------------------------------------------------------------
          Invoking FHI-aims ...

          When using FHI-aims, please cite the following reference:

            Volker Blum, Ralf Gehrke, Felix Hanke, Paula Havu,
            Ville Havu, Xinguo Ren, Karsten Reuter, and Matthias Scheffler,
            'Ab Initio Molecular Simulations with Numeric Atom-Centered Orbitals',
            Computer Physics Communications 180, 2175-2196 (2009)

          In addition, many other developments in FHI-aims are likely important for
          your particular application. A partial list of references is given at the end of
          this file. Thank you for giving credit to the authors of these developments.

          For any questions about FHI-aims, please visit our slack channel at

            https://fhi-aims.slack.com

          and our main development and support site at

            https://aims-git.rz-berlin.mpg.de .

          The latter site, in particular, has a wiki to collect information, as well
          as an issue tracker to log discussions, suggest improvements, and report issues
          or bugs. https://aims-git.rz-berlin.mpg.de is also the main development site
          of the project and all new and updated code versions can be obtained there.
          Please send an email to aims-coordinators@fhi-berlin.mpg.de and we will add
          you to these sites. They are for you and everyone is welcome there.

------------------------------------------------------------



  Date     :  20230221, Time     :  145306.245
  Time zero on CPU 1             :   0.346348000000000E+00  s.
  Internal wall clock time zero  :           446223186.245  s.

  FHI-aims created a unique identifier for this run for later identification
  aims_uuid : E3F1ECF3-A155-426A-A2A9-990541DA76D9

  Build configuration of the current instance of FHI-aims
  -------------------------------------------------------
  FHI-aims version      : 221103
  Commit number         : 42523251a
  CMake host system     : Linux-5.3.18-150300.59.68-default
  CMake version         : 3.17.0
  Fortran compiler      : /mpcdf/soft/SLE_15/packages/x86_64/intel_oneapi/2021.3/mpi/2021.3.0/bin/mpiifort (Intel) version 20.2.3.20210609
  Fortran compiler flags: -O3 -ip -fp-model precise
  C compiler            : /mpcdf/soft/SLE_15/packages/x86_64/intel/2021.3.0/bin/icc (Intel) version 20.2.3.20210609
  C compiler flags      : -O3 -ip -fp-model precise -std=gnu99
  CUDA compiler         : /mpcdf/soft/SLE_15/packages/x86_64/cuda/11.6.2/bin/nvcc
  CUDA compiler flags   : -O3 -DAdd_ -lcublas
  HIP compiler          :
  HIP compiler flags    :
  HIP GPU arch          :
  ELPA2 kernel          : AVX512
  Using MPI
  Using ScaLAPACK
  Using LibXC
  Using CUDA
  Using i-PI
  Using RLSY
  Linking against: /mpcdf/soft/SLE_15/packages/x86_64/cuda/11.6.2/lib64/libcublas.so
                   /mpcdf/soft/SLE_15/packages/x86_64/cuda/11.6.2/lib64/libcudart.so
                   /mpcdf/soft/SLE_15/packages/x86_64/intel_oneapi/2021.3/mkl/latest/lib/intel64/libmkl_intel_lp64.so
                   /mpcdf/soft/SLE_15/packages/x86_64/intel_oneapi/2021.3/mkl/latest/lib/intel64/libmkl_sequential.so
                   /mpcdf/soft/SLE_15/packages/x86_64/intel_oneapi/2021.3/mkl/latest/lib/intel64/libmkl_core.so
                   /mpcdf/soft/SLE_15/packages/x86_64/intel_oneapi/2021.3/mkl/latest/lib/intel64/libmkl_blacs_intelmpi_lp64.so
                   /mpcdf/soft/SLE_15/packages/x86_64/intel_oneapi/2021.3/mkl/latest/lib/intel64/libmkl_scalapack_lp64.so

  Using       18 parallel tasks.
  Task        0 on host adag039 reporting.
  Task        1 on host adag039 reporting.
  Task        2 on host adag039 reporting.
  Task        3 on host adag039 reporting.
  Task        4 on host adag039 reporting.
  Task        5 on host adag039 reporting.
  Task        6 on host adag039 reporting.
  Task        7 on host adag039 reporting.
  Task        8 on host adag039 reporting.
  Task        9 on host adag039 reporting.
  Task       10 on host adag039 reporting.
  Task       11 on host adag039 reporting.
  Task       12 on host adag039 reporting.
  Task       13 on host adag039 reporting.
  Task       14 on host adag039 reporting.
  Task       15 on host adag039 reporting.
  Task       16 on host adag039 reporting.
  Task       17 on host adag039 reporting.

  Obtaining array dimensions for all initial allocations:
  
  -----------------------------------------------------------------------
  Parsing control.in (first pass over file, find array dimensions only).
  The contents of control.in will be repeated verbatim below
  unless switched off by setting 'verbatim_writeout .false.' .
  in the first line of control.in .
  -----------------------------------------------------------------------
  
  #########################################################################################
  #
  #  Volker Blum, 2017 : Test run input file control.in for simple H2O
  #
  #########################################################################################
  #
  #  Physical model
  #
    xc                 pw-lda
    spin               none
    relativistic       none
    charge             0.
  
    use_gpu
  
    DFPT dielectric
    ri_density_restart write
    ri_rho1 write
  #  ri_density_restart read 0
  #  ri_rho1 read
    ri_full_output .true.
    sc_accuracy_rho    1d-6
  #  use_calculate_fock_matrix_old .false.
  #  wave_threshold 1e-8
    k_grid 1 1 1
  #  output cube eigenstate 160
  #  output cube eigenstate 161
    wave_threshold 1e-8
    default_prodbas_acc 1e-6
    default_max_l_prodbas 6
  #
  #  Relaxation
  #
  #  relax_geometry   bfgs 1.e-2
  #
  
  ################################################################################
  
  
  ################################################################################
  #
  #  FHI-aims code project
  #  VB, Fritz-Haber Institut, 2009
  #
  #  Suggested "light" defaults for H atom (to be pasted into control.in file)
  #  Be sure to double-check any results obtained with these settings for post-processing,
  #  e.g., with the "tight" defaults and larger basis sets.
  #
  ################################################################################
    species        H
  #     global species definitions
      nucleus             1
      mass                1.00794
  #
      l_hartree           4
  #
      cut_pot             3.5  1.5  1.0
      basis_dep_cutoff    1e-4
  #
      radial_base         24 5.0
      radial_multiplier   1
      angular_grids       specified
        division   0.2421   50
        division   0.3822  110
        division   0.4799  194
        division   0.5341  302
  #      division   0.5626  434
  #      division   0.5922  590
  #      division   0.6542  770
  #      division   0.6868 1202
  #      outer_grid  770
        outer_grid  302
  ################################################################################
  #
  #  Definition of "minimal" basis
  #
  ################################################################################
  #     valence basis states
      valence      1  s   1.
  #     ion occupancy
      ion_occ      1  s   0.5
  ################################################################################
  #
  #  Suggested additional basis functions. For production calculations,
  #  uncomment them one after another (the most important basis functions are
  #  listed first).
  #
  #  Basis constructed for dimers: 0.5 A, 0.7 A, 1.0 A, 1.5 A, 2.5 A
  #
  ################################################################################
  #  "First tier" - improvements: -1014.90 meV to -62.69 meV
       hydro 2 s 2.1
       hydro 2 p 3.5
  #  "Second tier" - improvements: -12.89 meV to -1.83 meV
  #     hydro 1 s 0.85
  #     hydro 2 p 3.7
  #     hydro 2 s 1.2
  #     hydro 3 d 7
  #  "Third tier" - improvements: -0.25 meV to -0.12 meV
  #     hydro 4 f 11.2
  #     hydro 3 p 4.8
  #     hydro 4 d 9
  #     hydro 3 s 3.2
  ################################################################################
  #
  #  FHI-aims code project
  #  VB, Fritz-Haber Institut, 2009
  #
  #  Suggested "light" defaults for O atom (to be pasted into control.in file)
  #  Be sure to double-check any results obtained with these settings for post-processing,
  #  e.g., with the "tight" defaults and larger basis sets.
  #
  ################################################################################
    species        O
  #     global species definitions
      nucleus             8
      mass                15.9994
  #
      l_hartree           4
  #
      cut_pot             3.5  1.5  1.0
      basis_dep_cutoff    1e-4
  #
      radial_base         36 5.0
      radial_multiplier   1
       angular_grids specified
        division   0.2659   50
        division   0.4451  110
        division   0.6052  194
        division   0.7543  302
  #      division   0.8014  434
  #      division   0.8507  590
  #      division   0.8762  770
  #      division   0.9023  974
  #      division   1.2339 1202
  #      outer_grid 974
        outer_grid 302
  ################################################################################
  #
  #  Definition of "minimal" basis
  #
  ################################################################################
  #     valence basis states
      valence      2  s   2.
      valence      2  p   4.
  #     ion occupancy
      ion_occ      2  s   1.
      ion_occ      2  p   3.
  ################################################################################
  #
  #  Suggested additional basis functions. For production calculations,
  #  uncomment them one after another (the most important basis functions are
  #  listed first).
  #
  #  Constructed for dimers: 1.0 A, 1.208 A, 1.5 A, 2.0 A, 3.0 A
  #
  ################################################################################
  #  "First tier" - improvements: -699.05 meV to -159.38 meV
       hydro 2 p 1.8
       hydro 3 d 7.6
       hydro 3 s 6.4
  #  "Second tier" - improvements: -49.91 meV to -5.39 meV
  #     hydro 4 f 11.6
  #     hydro 3 p 6.2
  #     hydro 3 d 5.6
  #     hydro 5 g 17.6
  #     hydro 1 s 0.75
  #  "Third tier" - improvements: -2.83 meV to -0.50 meV
  #     ionic 2 p auto
  #     hydro 4 f 10.8
  #     hydro 4 d 4.7
  #     hydro 2 s 6.8
  #  "Fourth tier" - improvements: -0.40 meV to -0.12 meV
  #     hydro 3 p 5
  #     hydro 3 s 3.3
  #     hydro 5 g 15.6
  #     hydro 4 f 17.6
  #     hydro 4 d 14
  # Further basis functions - -0.08 meV and below
  #     hydro 3 s 2.1
  #     hydro 4 d 11.6
  #     hydro 3 p 16
  #     hydro 2 s 17.2
  
  -----------------------------------------------------------------------
  Completed first pass over input file control.in .
  -----------------------------------------------------------------------
  
  
  -----------------------------------------------------------------------
  Parsing geometry.in (first pass over file, find array dimensions only).
  The contents of geometry.in will be repeated verbatim below
  unless switched off by setting 'verbatim_writeout .false.' .
  in the first line of geometry.in .
  -----------------------------------------------------------------------
  
  #=======================================================
  # FHI-aims file: /ada/ptmp/mpsd/alewis/bulk_water/qmdata/data/geoms/102.in
  # Created using the Atomic Simulation Environment (ASE)
  # Tue Feb 21 11:23:37 2023
  #=======================================================
  lattice_vector 10.1772600000000004 0.0000000000000000 0.0000000000000000
  lattice_vector 0.0000000000000000 10.1772600000000004 0.0000000000000000
  lattice_vector 0.0000000000000000 0.0000000000000000 10.1772600000000004
  atom 11.6202000000000005 1.4008799999999999 -8.1819000000000006 O
  atom 12.2960999999999991 1.7567699999999999 -7.5136599999999998 H
  atom 11.2548999999999992 0.7229010000000000 -7.8187100000000003 H
  atom 13.6770999999999994 7.1795000000000000 -8.2926900000000003 O
  atom 13.9013000000000009 6.2533899999999996 -8.2569400000000002 H
  atom 14.3459000000000003 7.7103700000000002 -7.6251300000000004 H
  atom 1.5430100000000000 -1.2494499999999999 16.8416999999999994 O
  atom 2.4250799999999999 -1.3741000000000001 16.4835999999999991 H
  atom 0.9623330000000000 -2.0290599999999999 16.6712999999999987 H
  atom 5.1985000000000001 10.8788000000000000 -1.7049399999999999 O
  atom 4.3945400000000001 10.6144999999999996 -2.0354600000000000 H
  atom 5.0446299999999997 11.6511999999999993 -1.1336999999999999 H
  atom 0.9787880000000000 -3.5933999999999999 9.1432400000000005 O
  atom 1.8254900000000001 -3.1374100000000000 9.0710700000000006 H
  atom 1.3176600000000001 -4.5624500000000001 9.0876500000000000 H
  atom 2.1627800000000001 0.4937600000000000 8.5277799999999999 O
  atom 1.7137000000000000 -0.2279910000000000 8.1645400000000006 H
  atom 2.6634400000000000 0.1144780000000000 9.2503399999999996 H
  atom 6.3430999999999997 14.1440999999999999 -7.4809700000000001 O
  atom 6.6559699999999999 13.1542999999999992 -7.6310599999999997 H
  atom 6.8724800000000004 14.5381000000000000 -8.1753800000000005 H
  atom -1.9227399999999999 -14.4006000000000007 4.3312999999999997 O
  atom -2.4593900000000000 -13.6122999999999994 4.7777399999999997 H
  atom -2.5495299999999999 -15.0588999999999995 3.9946600000000001 H
  atom -6.0364800000000001 -15.9274000000000004 16.7166999999999994 O
  atom -5.4113199999999999 -16.6125000000000007 16.4830000000000005 H
  atom -6.7702600000000004 -16.0758000000000010 16.0156999999999989 H
  atom 12.2144999999999992 -5.7144500000000003 4.8022400000000003 O
  atom 11.8522999999999996 -4.8397800000000002 5.1157000000000004 H
  atom 12.5487000000000002 -5.2990800000000000 4.0256299999999996 H
  atom -0.3628880000000000 13.1308000000000007 -5.2259700000000002 O
  atom -0.2926090000000000 12.1320999999999994 -5.1587899999999998 H
  atom 0.4883960000000000 13.4521999999999995 -5.1517600000000003 H
  atom 13.7385000000000002 4.4682800000000000 12.4598999999999993 O
  atom 13.5503999999999998 4.0465999999999998 11.5154999999999994 H
  atom 14.5471000000000004 4.0946300000000004 12.4064999999999994 H
  atom -0.8430520000000000 2.9379200000000001 2.2598099999999999 O
  atom -0.1564400000000000 2.2954599999999998 2.1029200000000001 H
  atom -0.9320670000000000 2.9049800000000001 3.1876300000000000 H
  atom -0.4976650000000000 10.2858999999999998 15.5168999999999997 O
  atom -0.1793850000000000 9.6988099999999999 16.2260999999999989 H
  atom -0.1627680000000000 9.7236499999999992 14.6554000000000002 H
  atom -1.6823200000000000 3.2590699999999999 7.0970000000000004 O
  atom -1.4860899999999999 2.7090299999999998 7.9418699999999998 H
  atom -1.0229100000000000 3.0617000000000001 6.2050400000000003 H
  atom 4.1528400000000003 13.3483000000000001 -0.9251560000000000 O
  atom 4.1216200000000001 13.4736999999999991 -1.8524099999999999 H
  atom 3.1133700000000002 13.1425000000000001 -0.7010900000000000 H
  atom -10.8462999999999994 1.4660400000000000 -1.2518100000000001 O
  atom -9.7386800000000004 1.2144699999999999 -1.1821200000000001 H
  atom -11.3528000000000002 0.6687100000000000 -1.3125100000000001 H
  atom -12.0056999999999992 -4.3647000000000000 8.3295999999999992 O
  atom -11.9342000000000006 -5.2398199999999999 7.8559799999999997 H
  atom -11.5747000000000000 -4.2041199999999996 9.0378900000000009 H
  atom 7.4242800000000004 9.5224299999999999 -0.3577280000000000 O
  atom 7.5327900000000003 10.2217000000000002 0.2809380000000000 H
  atom 6.6527099999999999 9.7855899999999991 -1.0204299999999999 H
  atom 0.1467330000000000 -3.5867200000000001 -14.3421000000000003 O
  atom -0.1205400000000000 -3.6919599999999999 -13.4772999999999996 H
  atom -0.4668200000000000 -3.7269999999999999 -15.0968000000000000 H
  atom 3.9175300000000002 -2.2295699999999998 -4.4059999999999997 O
  atom 4.5331099999999998 -2.4132500000000001 -3.8154900000000000 H
  atom 4.4304399999999999 -2.2385000000000002 -5.3215500000000002 H
  atom 0.3460960000000000 19.2494000000000014 3.0969799999999998 O
  atom -0.1686960000000000 18.5599999999999987 2.4230299999999998 H
  atom 1.2683199999999999 18.8669000000000011 3.1860700000000000 H
  atom 9.4676200000000001 8.0061400000000003 11.2159999999999993 O
  atom 10.0962999999999994 7.5600699999999996 10.5473999999999997 H
  atom 8.9011300000000002 8.5134699999999999 10.7428000000000008 H
  atom 7.0764500000000004 17.3040999999999983 21.9195999999999991 O
  atom 7.8386800000000001 17.7712000000000003 21.6494999999999997 H
  atom 6.3418999999999999 17.8908999999999985 21.5453000000000010 H
  atom -3.2923700000000000 0.2783680000000000 4.3646399999999996 O
  atom -2.3129800000000000 0.2231510000000000 4.4029400000000001 H
  atom -3.5780099999999999 0.9518680000000000 4.9592700000000001 H
  atom 5.5100300000000004 6.4256599999999997 7.7963699999999996 O
  atom 5.2179799999999998 5.5751499999999998 7.4484899999999996 H
  atom 6.5782600000000002 6.5754599999999996 7.9732200000000004 H
  atom 3.3204199999999999 17.7791999999999994 9.2558699999999998 O
  atom 3.4179800000000000 17.6556999999999995 10.2994000000000003 H
  atom 3.9775499999999999 17.0683000000000007 8.8716399999999993 H
  atom 13.4387000000000008 22.2287999999999997 4.1287000000000003 O
  atom 13.2734000000000005 23.1117999999999988 3.7459699999999998 H
  atom 14.2825000000000006 22.0210000000000008 4.0902399999999997 H
  atom 1.4865200000000001 13.9431999999999992 10.6381999999999994 O
  atom 0.9806890000000000 14.4984999999999999 11.0861000000000001 H
  atom 1.5596900000000000 13.0436999999999994 11.0801999999999996 H
  atom 7.3376900000000003 1.3056900000000000 1.8503499999999999 O
  atom 8.1395499999999998 1.8638699999999999 1.9077800000000000 H
  atom 7.3305100000000003 0.8030190000000000 2.6709000000000001 H
  atom 5.5435900000000000 -2.2065100000000002 13.7667000000000002 O
  atom 6.2219100000000003 -2.4700600000000001 13.2012000000000000 H
  atom 6.1284900000000002 -1.5801600000000000 14.4224999999999994 H
  atom -4.0391599999999999 2.0863700000000001 6.1917799999999996 O
  atom -4.3114200000000000 1.6134100000000000 6.9198300000000001 H
  atom -3.1013199999999999 2.3932500000000001 6.1194600000000001 H
  
  -----------------------------------------------------------------------
  Completed first pass over input file geometry.in .
  -----------------------------------------------------------------------
  

  Basic array size parameters:
  | Number of species                 :        2
  | Number of atoms                   :       96
  | Number of lattice vectors         :        3
  | Max. basis fn. angular momentum   :        2
  | Max. atomic/ionic basis occupied n:        2
  | Max. number of basis fn. types    :        2
  | Max. radial fns per species/type  :        3
  | Max. logarithmic grid size        :     1301
  | Max. radial integration grid size :       36
  | Max. angular integration grid size:      302
  | Max. angular grid division number :        8
  | Radial grid for Hartree potential :     1301
  | Number of spin channels           :        1

------------------------------------------------------------
          Reading file control.in.
------------------------------------------------------------
  XC: Using Perdew-Wang parametrisation of Ceperley-Alder LDA.
  Spin treatment: No spin polarisation.
  Non-relativistic treatment of kinetic energy.
  Charge =   0.000000E+00: Neutral system requested explicitly.
  DFPT calculation will begin after the DFT/HF calculation.
  Convergence accuracy of self-consistent charge density:  0.1000E-05
  Found k-point grid:         1         1         1
  Threshold value for wave function integration:  0.1000E-07
 
  Reading configuration options for species H                   .
  | Found nuclear charge :   1.0000
  | Found atomic mass :    1.00794000000000      amu
  | Found l_max for Hartree potential  :   4
  | Found cutoff potl. onset [A], width [A], scale factor :    3.50000    1.50000    1.00000
  | Threshold for basis-dependent cutoff potential is   0.100000E-03
  | Found data for basic radial integration grid :    24 points, outermost radius =    5.000 A
  | Found multiplier for basic radial grid :   1
  | Found angular grid specification: user-specified.
  | Specified grid contains     5 separate shells.
  | Check grid settings after all constraints further below.
  | Found free-atom valence shell :  1 s   1.000
  | No ionic wave fns used. Skipping ion_occ.
  | Found hydrogenic basis function :  2 s   2.100
  | Found hydrogenic basis function :  2 p   3.500
  Species H                   : Missing cutoff potential type.
  Defaulting to exp(1/x)/(1-x)^2 type cutoff potential.
  Species H : No 'logarithmic' tag. Using default grid for free atom:
  | Default logarithmic grid data [bohr] : 0.1000E-03 0.1000E+03 0.1012E+01
  Species H : On-site basis accuracy parameter (for Gram-Schmidt orthonormalisation) not specified.
  Using default value basis_acc =  0.1000000E-03.
  Species H                   : Using default innermost maximum threshold i_radial=  2 for radial functions.
  Species H                   : Default cutoff onset for free atom density etc. : 0.35000000E+01 AA.
  Species H                   : Basic radial grid will be enhanced according to radial_multiplier =   1, to contain    24 grid points.
 
  Reading configuration options for species O                   .
  | Found nuclear charge :   8.0000
  | Found atomic mass :    15.9994000000000      amu
  | Found l_max for Hartree potential  :   4
  | Found cutoff potl. onset [A], width [A], scale factor :    3.50000    1.50000    1.00000
  | Threshold for basis-dependent cutoff potential is   0.100000E-03
  | Found data for basic radial integration grid :    36 points, outermost radius =    5.000 A
  | Found multiplier for basic radial grid :   1
  | Found angular grid specification: user-specified.
  | Specified grid contains     5 separate shells.
  | Check grid settings after all constraints further below.
  | Found free-atom valence shell :  2 s   2.000
  | Found free-atom valence shell :  2 p   4.000
  | No ionic wave fns used. Skipping ion_occ.
  | No ionic wave fns used. Skipping ion_occ.
  | Found hydrogenic basis function :  2 p   1.800
  | Found hydrogenic basis function :  3 d   7.600
  | Found hydrogenic basis function :  3 s   6.400
  Species O                   : Missing cutoff potential type.
  Defaulting to exp(1/x)/(1-x)^2 type cutoff potential.
  Species O : No 'logarithmic' tag. Using default grid for free atom:
  | Default logarithmic grid data [bohr] : 0.1000E-03 0.1000E+03 0.1012E+01
  Species O : On-site basis accuracy parameter (for Gram-Schmidt orthonormalisation) not specified.
  Using default value basis_acc =  0.1000000E-03.
  Species O                   : Using default innermost maximum threshold i_radial=  2 for radial functions.
  Species O                   : Default cutoff onset for free atom density etc. : 0.35000000E+01 AA.
  Species O                   : Basic radial grid will be enhanced according to radial_multiplier =   1, to contain    36 grid points.
 
  Finished reading input file 'control.in'.
 
------------------------------------------------------------


------------------------------------------------------------
          Reading geometry description geometry.in.
------------------------------------------------------------
  | The smallest distance between any two atoms is         0.84452452 AA.
  | The first atom of this pair is atom number                     52 .
  | The second atom of this pair is atom number                    54 .
  | Wigner-Seitz cell of the first atom image           0     0     0 .
  | (The Wigner-Seitz cell of the second atom is 0 0 0  by definition.)

  Symmetry information by spglib:
  | Precision set to  0.1E-04
  | Number of Operations  : 1
  | Space group           : 1
  | International         : P1
  | Schoenflies           : C1^1
  Input structure read successfully.
  The structure contains       96 atoms,  and a total of        320.000 electrons.

  Input geometry:
  | Unit cell:
  |       10.17726000        0.00000000        0.00000000
  |        0.00000000       10.17726000        0.00000000
  |        0.00000000        0.00000000       10.17726000
  | Atomic structure:
  |       Atom                x [A]            y [A]            z [A]
  |    1: Species O            11.62020000        1.40088000       -8.18190000
  |    2: Species H            12.29610000        1.75677000       -7.51366000
  |    3: Species H            11.25490000        0.72290100       -7.81871000
  |    4: Species O            13.67710000        7.17950000       -8.29269000
  |    5: Species H            13.90130000        6.25339000       -8.25694000
  |    6: Species H            14.34590000        7.71037000       -7.62513000
  |    7: Species O             1.54301000       -1.24945000       16.84170000
  |    8: Species H             2.42508000       -1.37410000       16.48360000
  |    9: Species H             0.96233300       -2.02906000       16.67130000
  |   10: Species O             5.19850000       10.87880000       -1.70494000
  |   11: Species H             4.39454000       10.61450000       -2.03546000
  |   12: Species H             5.04463000       11.65120000       -1.13370000
  |   13: Species O             0.97878800       -3.59340000        9.14324000
  |   14: Species H             1.82549000       -3.13741000        9.07107000
  |   15: Species H             1.31766000       -4.56245000        9.08765000
  |   16: Species O             2.16278000        0.49376000        8.52778000
  |   17: Species H             1.71370000       -0.22799100        8.16454000
  |   18: Species H             2.66344000        0.11447800        9.25034000
  |   19: Species O             6.34310000       14.14410000       -7.48097000
  |   20: Species H             6.65597000       13.15430000       -7.63106000
  |   21: Species H             6.87248000       14.53810000       -8.17538000
  |   22: Species O            -1.92274000      -14.40060000        4.33130000
  |   23: Species H            -2.45939000      -13.61230000        4.77774000
  |   24: Species H            -2.54953000      -15.05890000        3.99466000
  |   25: Species O            -6.03648000      -15.92740000       16.71670000
  |   26: Species H            -5.41132000      -16.61250000       16.48300000
  |   27: Species H            -6.77026000      -16.07580000       16.01570000
  |   28: Species O            12.21450000       -5.71445000        4.80224000
  |   29: Species H            11.85230000       -4.83978000        5.11570000
  |   30: Species H            12.54870000       -5.29908000        4.02563000
  |   31: Species O            -0.36288800       13.13080000       -5.22597000
  |   32: Species H            -0.29260900       12.13210000       -5.15879000
  |   33: Species H             0.48839600       13.45220000       -5.15176000
  |   34: Species O            13.73850000        4.46828000       12.45990000
  |   35: Species H            13.55040000        4.04660000       11.51550000
  |   36: Species H            14.54710000        4.09463000       12.40650000
  |   37: Species O            -0.84305200        2.93792000        2.25981000
  |   38: Species H            -0.15644000        2.29546000        2.10292000
  |   39: Species H            -0.93206700        2.90498000        3.18763000
  |   40: Species O            -0.49766500       10.28590000       15.51690000
  |   41: Species H            -0.17938500        9.69881000       16.22610000
  |   42: Species H            -0.16276800        9.72365000       14.65540000
  |   43: Species O            -1.68232000        3.25907000        7.09700000
  |   44: Species H            -1.48609000        2.70903000        7.94187000
  |   45: Species H            -1.02291000        3.06170000        6.20504000
  |   46: Species O             4.15284000       13.34830000       -0.92515600
  |   47: Species H             4.12162000       13.47370000       -1.85241000
  |   48: Species H             3.11337000       13.14250000       -0.70109000
  |   49: Species O           -10.84630000        1.46604000       -1.25181000
  |   50: Species H            -9.73868000        1.21447000       -1.18212000
  |   51: Species H           -11.35280000        0.66871000       -1.31251000
  |   52: Species O           -12.00570000       -4.36470000        8.32960000
  |   53: Species H           -11.93420000       -5.23982000        7.85598000
  |   54: Species H           -11.57470000       -4.20412000        9.03789000
  |   55: Species O             7.42428000        9.52243000       -0.35772800
  |   56: Species H             7.53279000       10.22170000        0.28093800
  |   57: Species H             6.65271000        9.78559000       -1.02043000
  |   58: Species O             0.14673300       -3.58672000      -14.34210000
  |   59: Species H            -0.12054000       -3.69196000      -13.47730000
  |   60: Species H            -0.46682000       -3.72700000      -15.09680000
  |   61: Species O             3.91753000       -2.22957000       -4.40600000
  |   62: Species H             4.53311000       -2.41325000       -3.81549000
  |   63: Species H             4.43044000       -2.23850000       -5.32155000
  |   64: Species O             0.34609600       19.24940000        3.09698000
  |   65: Species H            -0.16869600       18.56000000        2.42303000
  |   66: Species H             1.26832000       18.86690000        3.18607000
  |   67: Species O             9.46762000        8.00614000       11.21600000
  |   68: Species H            10.09630000        7.56007000       10.54740000
  |   69: Species H             8.90113000        8.51347000       10.74280000
  |   70: Species O             7.07645000       17.30410000       21.91960000
  |   71: Species H             7.83868000       17.77120000       21.64950000
  |   72: Species H             6.34190000       17.89090000       21.54530000
  |   73: Species O            -3.29237000        0.27836800        4.36464000
  |   74: Species H            -2.31298000        0.22315100        4.40294000
  |   75: Species H            -3.57801000        0.95186800        4.95927000
  |   76: Species O             5.51003000        6.42566000        7.79637000
  |   77: Species H             5.21798000        5.57515000        7.44849000
  |   78: Species H             6.57826000        6.57546000        7.97322000
  |   79: Species O             3.32042000       17.77920000        9.25587000
  |   80: Species H             3.41798000       17.65570000       10.29940000
  |   81: Species H             3.97755000       17.06830000        8.87164000
  |   82: Species O            13.43870000       22.22880000        4.12870000
  |   83: Species H            13.27340000       23.11180000        3.74597000
  |   84: Species H            14.28250000       22.02100000        4.09024000
  |   85: Species O             1.48652000       13.94320000       10.63820000
  |   86: Species H             0.98068900       14.49850000       11.08610000
  |   87: Species H             1.55969000       13.04370000       11.08020000
  |   88: Species O             7.33769000        1.30569000        1.85035000
  |   89: Species H             8.13955000        1.86387000        1.90778000
  |   90: Species H             7.33051000        0.80301900        2.67090000
  |   91: Species O             5.54359000       -2.20651000       13.76670000
  |   92: Species H             6.22191000       -2.47006000       13.20120000
  |   93: Species H             6.12849000       -1.58016000       14.42250000
  |   94: Species O            -4.03916000        2.08637000        6.19178000
  |   95: Species H            -4.31142000        1.61341000        6.91983000
  |   96: Species H            -3.10132000        2.39325000        6.11946000

  Lattice parameters for 3D lattice (in Angstroms) :    10.177260   10.177260   10.177260
  Angle(s) between unit vectors (in degrees)       :    90.000000   90.000000   90.000000


  Quantities derived from the lattice vectors (in Angstrom^-1):
  | Reciprocal lattice vector 1:  0.617375  0.000000  0.000000
  | Reciprocal lattice vector 2:  0.000000  0.617375  0.000000
  | Reciprocal lattice vector 3:  0.000000  0.000000  0.617375
  | Unit cell volume                               :   0.105413E+04  Angstrom^3

  Fractional coordinates:
                         L1                L2                L3
       atom_frac         1.14178079        0.13764805       -0.80393937  O
       atom_frac         1.20819356        0.17261719       -0.73827926  H
       atom_frac         1.10588705        0.07103100       -0.76825295  H
       atom_frac         1.34388824        0.70544528       -0.81482540  O
       atom_frac         1.36591774        0.61444731       -0.81131267  H
       atom_frac         1.40960337        0.75760765       -0.74923211  H
       atom_frac         0.15161350       -0.12276880        1.65483637  O
       atom_frac         0.23828417       -0.13501669        1.61965008  H
       atom_frac         0.09455718       -0.19937193        1.63809316  H
       atom_frac         0.51079564        1.06893211       -0.16752446  O
       atom_frac         0.43179991        1.04296245       -0.20000079  H
       atom_frac         0.49567664        1.14482680       -0.11139541  H
       atom_frac         0.09617402       -0.35308128        0.89839898  O
       atom_frac         0.17936950       -0.30827649        0.89130768  H
       atom_frac         0.12947100       -0.44829846        0.89293680  H
       atom_frac         0.21251103        0.04851601        0.83792494  O
       atom_frac         0.16838520       -0.02240200        0.80223361  H
       atom_frac         0.26170502        0.01124841        0.90892244  H
       atom_frac         0.62326206        1.38977485       -0.73506720  O
       atom_frac         0.65400412        1.29251881       -0.74981478  H
       atom_frac         0.67527802        1.42848861       -0.80329873  H
       atom_frac        -0.18892511       -1.41497810        0.42558606  O
       atom_frac        -0.24165542       -1.33752110        0.46945249  H
       atom_frac        -0.25051242       -1.47966152        0.39250840  H
       atom_frac        -0.59313410       -1.56499883        1.64255409  O
       atom_frac        -0.53170696       -1.63231557        1.61959113  H
       atom_frac        -0.66523406       -1.57958036        1.57367504  H
       atom_frac         1.20017569       -0.56149199        0.47185981  O
       atom_frac         1.16458654       -0.47554843        0.50265985  H
       atom_frac         1.23301360       -0.52067845        0.39555145  H
       atom_frac        -0.03565675        1.29020974       -0.51349479  O
       atom_frac        -0.02875126        1.19207920       -0.50689380  H
       atom_frac         0.04798895        1.32178995       -0.50620304  H
       atom_frac         1.34992130        0.43904548        1.22428827  O
       atom_frac         1.33143891        0.39761193        1.13149315  H
       atom_frac         1.42937294        0.40233128        1.21904127  H
       atom_frac        -0.08283683        0.28867495        0.22204503  O
       atom_frac        -0.01537152        0.22554794        0.20662929  H
       atom_frac        -0.09158329        0.28543832        0.31321102  H
       atom_frac        -0.04889970        1.01067478        1.52466381  O
       atom_frac        -0.01762606        0.95298833        1.59434858  H
       atom_frac        -0.01599330        0.95542906        1.44001431  H
       atom_frac        -0.16530186        0.32023059        0.69733897  O
       atom_frac        -0.14602064        0.26618461        0.78035444  H
       atom_frac        -0.10050937        0.30083736        0.60969652  H
       atom_frac         0.40805089        1.31158092       -0.09090423  O
       atom_frac         0.40498327        1.32390250       -0.18201461  H
       atom_frac         0.30591436        1.29135936       -0.06888789  H
       atom_frac        -1.06573872        0.14405056       -0.12300069  O
       atom_frac        -0.95690589        0.11933173       -0.11615307  H
       atom_frac        -1.11550653        0.06570629       -0.12896497  H
       atom_frac        -1.17965936       -0.42886789        0.81845212  O
       atom_frac        -1.17263389       -0.51485567        0.77191503  H
       atom_frac        -1.13731004       -0.41308957        0.88804747  H
       atom_frac         0.72949694        0.93565753       -0.03514974  O
       atom_frac         0.74015894        1.00436660        0.02760448  H
       atom_frac         0.65368380        0.96151518       -0.10026569  H
       atom_frac         0.01441773       -0.35242492       -1.40922999  O
       atom_frac        -0.01184405       -0.36276562       -1.32425623  H
       atom_frac        -0.04586893       -0.36620859       -1.48338551  H
       atom_frac         0.38492974       -0.21907370       -0.43292595  O
       atom_frac         0.44541556       -0.23712178       -0.37490346  H
       atom_frac         0.43532739       -0.21995115       -0.52288632  H
       atom_frac         0.03400680        1.89141282        0.30430391  O
       atom_frac        -0.01657578        1.82367356        0.23808275  H
       atom_frac         0.12462293        1.85382903        0.31305774  H
       atom_frac         0.93027200        0.78666950        1.10206480  O
       atom_frac         0.99204501        0.74283943        1.03636932  H
       atom_frac         0.87460967        0.83651887        1.05556898  H
       atom_frac         0.69531976        1.70027100        2.15378206  O
       atom_frac         0.77021517        1.74616744        2.12724250  H
       atom_frac         0.62314415        1.75792895        2.11700399  H
       atom_frac        -0.32350259        0.02735196        0.42886199  O
       atom_frac        -0.22726942        0.02192643        0.43262528  H
       atom_frac        -0.35156909        0.09352891        0.48728931  H
       atom_frac         0.54140604        0.63137426        0.76605786  O
       atom_frac         0.51270971        0.54780462        0.73187577  H
       atom_frac         0.64636847        0.64609335        0.78343483  H
       atom_frac         0.32625874        1.74695350        0.90946581  O
       atom_frac         0.33584481        1.73481861        1.01200127  H
       atom_frac         0.39082720        1.67710170        0.87171203  H
       atom_frac         1.32046346        2.18416352        0.40567894  O
       atom_frac         1.30422137        2.27092557        0.36807255  H
       atom_frac         1.40337380        2.16374545        0.40189992  H
       atom_frac         0.14606289        1.37003476        1.04529117  O
       atom_frac         0.09636081        1.42459758        1.08930105  H
       atom_frac         0.15325245        1.28165145        1.08872133  H
       atom_frac         0.72098875        0.12829485        0.18181220  O
       atom_frac         0.79977813        0.18314065        0.18745517  H
       atom_frac         0.72028326        0.07890326        0.26243802  H
       atom_frac         0.54470358       -0.21680786        1.35269218  O
       atom_frac         0.61135414       -0.24270383        1.29712712  H
       atom_frac         0.60217485       -0.15526379        1.41712995  H
       atom_frac        -0.39688089        0.20500311        0.60839361  O
       atom_frac        -0.42363269        0.15853088        0.67993055  H
       atom_frac        -0.30473035        0.23515661        0.60128758  H

 
  Finished reading input file 'geometry.in'.
 

 
  Consistency checks for stacksize environment parameter are next.
 
  | Maximum stacksize for task 0: unlimited
  | Maximum stacksize for task 1: unlimited
  | Maximum stacksize for task 2: unlimited
  | Maximum stacksize for task 3: unlimited
  | Maximum stacksize for task 4: unlimited
  | Maximum stacksize for task 5: unlimited
  | Maximum stacksize for task 6: unlimited
  | Maximum stacksize for task 7: unlimited
  | Maximum stacksize for task 8: unlimited
  | Maximum stacksize for task 9: unlimited
  | Maximum stacksize for task 10: unlimited
  | Maximum stacksize for task 11: unlimited
  | Maximum stacksize for task 12: unlimited
  | Maximum stacksize for task 13: unlimited
  | Maximum stacksize for task 14: unlimited
  | Maximum stacksize for task 15: unlimited
  | Maximum stacksize for task 16: unlimited
  | Maximum stacksize for task 17: unlimited
  | Current stacksize for task 0: unlimited
  | Current stacksize for task 1: unlimited
  | Current stacksize for task 2: unlimited
  | Current stacksize for task 3: unlimited
  | Current stacksize for task 4: unlimited
  | Current stacksize for task 5: unlimited
  | Current stacksize for task 6: unlimited
  | Current stacksize for task 7: unlimited
  | Current stacksize for task 8: unlimited
  | Current stacksize for task 9: unlimited
  | Current stacksize for task 10: unlimited
  | Current stacksize for task 11: unlimited
  | Current stacksize for task 12: unlimited
  | Current stacksize for task 13: unlimited
  | Current stacksize for task 14: unlimited
  | Current stacksize for task 15: unlimited
  | Current stacksize for task 16: unlimited
  | Current stacksize for task 17: unlimited
 
  Consistency checks for the contents of control.in are next.
 
  MPI_IN_PLACE appears to work with this MPI implementation.
  | Keeping use_mpi_in_place .true. (see manual).
  Explicit treatment of the Coulomb operator is needed, but the RI method is not specified.
  Coulomb operator: Defaulting to 'LVL fast' resolution of identity - RI_type = LVL_fast
  Species H: Using default value for prodbas_acc =   1.000000E-06.
  Species H: Using default value max_l_prodbas =     6.
  Species O: Using default value for prodbas_acc =   1.000000E-06.
  Species O: Using default value max_l_prodbas =     6.
  Target number of points in a grid batch is not set.  Since GPU acceleration is enabled, defaulting to  200
  Method for grid partitioning is not set. Defaulting to parallel hash+maxmin partitioning.
  Batch size limit is not set. Defaulting to    200
  By default, will store active basis functions for each batch.
  If in need of memory, prune_basis_once .false. can be used to disable this option.
  communication_type for Hartree potential was not specified.
  Defaulting to calc_hartree .
  Defaulting to Pulay charge density mixer.
  Pulay mixer: Number of relevant iterations not set.
  Defaulting to    8 iterations.
  Pulay mixer: Number of initial linear mixing iterations not set.
  Defaulting to    0 iterations.
  Work space size for distributed Hartree potential not set.
  Defaulting to   0.200000E+03 MB.
  Mixing parameter for charge density mixing has not been set.
  Using default: charge_mix_param =     0.0500.
  The mixing parameter will be adjusted in iteration number     2 of the first full s.c.f. cycle only.
  Algorithm-dependent basis array size parameters:
  | n_max_pulay                         :        8
  Maximum number of self-consistency iterations not provided.
  Presetting  1000 iterations.
  Presetting      1001 iterations before the initial mixing cycle
  is restarted anyway using the sc_init_iter criterion / keyword.
  Presetting a factor      1.000 between actual scf density residual
  and density convergence criterion sc_accuracy_rho below which sc_init_iter
  takes no effect.
  Calculation of forces was not defined in control.in. No forces will be calculated.
  Geometry relaxation not requested: no relaxation will be performed.
  No accuracy limit for integral partition fn. given. Defaulting to  0.1000E-14.
  No occupation type (smearing scheme) given. Defaulting to Gaussian broadening, width =  0.1000E-01 eV.
  The width will be adjusted in iteration number     2 of the first full s.c.f. cycle only.
  S.C.F. convergence parameters will be adjusted in iteration number     2 of the first full s.c.f. cycle only.
  No accuracy for occupation numbers given. Defaulting to  0.1000E-12.
  No threshold value for occupation numbers given. Defaulting to  0.0000E+00.
  No accuracy for fermi level given. Defaulting to  0.1000E-19.
  Maximum # of iterations to find E_F not set. Defaulting to  200.
  Preferred method for the eigenvalue solver ('KS_method') not specified in 'control.in'.
  Calling BLACS routine to test compilation state
  Since ScaLAPACK support is enabled, defaulting to ELPA (via ELSI).
  Will not use alltoall communication since running on < 1024 CPUs.
  Threshold for basis singularities not set.
  Default threshold for basis singularities:  0.1000E-04
  partition_type (choice of integration weights) for integrals was not specified.
  | Using a version of the partition function of Stratmann and coworkers ('stratmann_sparse').
  | At each grid point, the set of atoms used to build the partition table is smoothly restricted to
  | only those atoms whose free-atom density would be non-zero at that grid point.
  Partitioning for Hartree potential was not defined. Using partition_type for integrals.
  | Adjusted default value of keyword multip_moments_threshold to:       0.10000000E-11
  | This value may affect high angular momentum components of the Hartree potential in periodic systems.
  Angular momentum expansion for Kerker preconditioner not set explicitly.
  | Using default value of   0
  No explicit requirement for turning off preconditioner.
  | By default, it will be turned off when the charge convergence reaches
  | sc_accuracy_rho  =   0.100000E-05
  No special mixing parameter while Kerker preconditioner is on.
  Using default: charge_mix_param =     0.0500.
  Threshold for auxiliary basis singularities not set.
  Default threshold for auxiliary basis singularities:  0.1000E-04
  No q(lm)/r^(l+1) cutoff set for long-range Hartree potential.
  | Using default value of  0.100000E-09 .
  | Verify using the multipole_threshold keyword.
  Defaulting to new monopole extrapolation.
  Density update method: automatic selection selected.
  Using density matrix based charge density update.
  Using density matrix based charge density update.
  Using packed matrix style: index .
  Defaulting to use time-reversal symmetry for k-point grid.
  Charge integration errors on the 3D integration grid will be compensated
  by explicit normalization and distribution of residual charges.
  Use the "compensate_multipole_errors" flag to change this behaviour.
  Default to 1D ("use_logsbt") integrations for auxiliary 2-center integrals.
  Default onset of logarithmic r-grid for SBT is -38.000000000000
  Default onset of logarithmic k-grid for SBT is -25.000000000000
  Default range of logarithmic r- and k-grid for SBT is  45.000000000000
  Default number of logarithmic r- and k-grid for SBT is   4096
  Default of use_2d_corr is to use the efficient 2D distribution where possible
 
  Consistency checks for the contents of geometry.in are next.
 

  Range separation radius for Ewald summation (hartree_convergence_parameter):      3.09111129 bohr.
  Number of empty states per atom not set in control.in .
  | Since you are using a method that relies on the unoccupied spectrum
  | (MP2,GW,RPA et al.), will use the full Hamiltonian size (see below)
  | as the max. possible number of states (occupied plus empty).

  Structure-dependent array size parameters: 
  | Maximum number of distinct radial functions  :        9
  | Maximum number of basis functions            :      768
  | Number of Kohn-Sham states (occupied + empty):      768
------------------------------------------------------------

  Performing system and environment tests:
  | Environment variable OMP_NUM_THREADS correctly set to 1.
  | Checking for ScaLAPACK...
  | Testing pdtran()...
  | All pdtran() tests passed.
CUDA runtime version: 11060
CUDA driver version: 11060
  Initializing GPUs...

  Number of GPUs available to MPI task         0 :   1
  Number of GPUs available to MPI task         1 :   1
  Number of GPUs available to MPI task         2 :   1
  Number of GPUs available to MPI task         3 :   1
  Number of GPUs available to MPI task         4 :   1
  Number of GPUs available to MPI task         5 :   1
  Number of GPUs available to MPI task         6 :   1
  Number of GPUs available to MPI task         7 :   1
  Number of GPUs available to MPI task         8 :   1
  Number of GPUs available to MPI task         9 :   1
  Number of GPUs available to MPI task        10 :   1
  Number of GPUs available to MPI task        11 :   1
  Number of GPUs available to MPI task        12 :   1
  Number of GPUs available to MPI task        13 :   1
  Number of GPUs available to MPI task        14 :   1
  Number of GPUs available to MPI task        15 :   1
  Number of GPUs available to MPI task        16 :   1
  Number of GPUs available to MPI task        17 :   1

  | MPI task         0, GPU activated = T, Device Name = NVIDIA A100-SXM4-80GB
  | MPI task         1, GPU activated = T, Device Name = NVIDIA A100-SXM4-80GB
  | MPI task         2, GPU activated = T, Device Name = NVIDIA A100-SXM4-80GB
  | MPI task         3, GPU activated = T, Device Name = NVIDIA A100-SXM4-80GB
  | MPI task         4, GPU activated = T, Device Name = NVIDIA A100-SXM4-80GB
  | MPI task         5, GPU activated = T, Device Name = NVIDIA A100-SXM4-80GB
  | MPI task         6, GPU activated = T, Device Name = NVIDIA A100-SXM4-80GB
  | MPI task         7, GPU activated = T, Device Name = NVIDIA A100-SXM4-80GB
  | MPI task         8, GPU activated = T, Device Name = NVIDIA A100-SXM4-80GB
  | MPI task         9, GPU activated = T, Device Name = NVIDIA A100-SXM4-80GB
  | MPI task        10, GPU activated = T, Device Name = NVIDIA A100-SXM4-80GB
  | MPI task        11, GPU activated = T, Device Name = NVIDIA A100-SXM4-80GB
  | MPI task        12, GPU activated = T, Device Name = NVIDIA A100-SXM4-80GB
  | MPI task        13, GPU activated = T, Device Name = NVIDIA A100-SXM4-80GB
  | MPI task        14, GPU activated = T, Device Name = NVIDIA A100-SXM4-80GB
  | MPI task        15, GPU activated = T, Device Name = NVIDIA A100-SXM4-80GB
  | MPI task        16, GPU activated = T, Device Name = NVIDIA A100-SXM4-80GB
  | MPI task        17, GPU activated = T, Device Name = NVIDIA A100-SXM4-80GB

------------------------------------------------------------
          Preparing all fixed parts of the calculation.
------------------------------------------------------------
  Determining machine precision:
    2.225073858507201E-308
  Setting up grids for atomic and cluster calculations.

  Creating wave function, potential, and density for free atoms.
  Runtime choices for atomic solver:
  | atomic solver xc        : PW-LDA
  | compute density gradient: 0
  | compute kinetic density : F

  Species: H

  List of occupied orbitals and eigenvalues:
    n    l              occ      energy [Ha]    energy [eV]
    1    0           1.0000        -0.232375        -6.3233


  Species: O

  List of occupied orbitals and eigenvalues:
    n    l              occ      energy [Ha]    energy [eV]
    1    0           2.0000       -18.757744      -510.4242
    2    0           2.0000        -0.870917       -23.6989
    2    1           4.0000        -0.337950        -9.1961


  Adding cutoff potential to free-atom effective potential.
  Creating fixed part of basis set: Ionic, confined, hydrogenic.
 
  H                    hydrogenic:
 
  List of hydrogenic basis orbitals: 
    n    l      effective z      eigenvalue [eV]  inner max. [A]     outer max. [A]     outer radius [A]   
    2    0         2.100000       -14.9728           0.193243           1.317208           4.696947
    2    1         3.500000       -41.6669           0.602369           0.602369           3.862494
 
 
  O                    hydrogenic:
 
  List of hydrogenic basis orbitals: 
    n    l      effective z      eigenvalue [eV]  inner max. [A]     outer max. [A]     outer radius [A]   
    2    1         1.800000       -10.9749           1.164242           1.164242           4.691341
    3    2         7.600000       -87.3180           0.624125           0.624125           3.413946
    3    0         6.400000       -61.9207           0.061167           1.081902           4.151495
 
  Creating atomic-like basis functions for current effective potential.

  Species H                   :

  List of atomic basis orbitals and eigenvalues:
    n    l      energy [Ha]    energy [eV]    outer radius [A]
    1    0        -0.232375        -6.3233       4.696947


  Species O                   :

  List of atomic basis orbitals and eigenvalues:
    n    l      energy [Ha]    energy [eV]    outer radius [A]
    1    0       -18.757744      -510.4242       1.830144
    2    0        -0.870917       -23.6989       4.578029
    2    1        -0.337950        -9.1961       4.634338

  Assembling full basis from fixed parts.
  | Species H :   atomic orbital   1 s accepted.
  | Species H :    hydro orbital   2 s accepted.
  | Species H :    hydro orbital   2 p accepted.
  | Species O :   atomic orbital   1 s accepted.
  | Species O :    hydro orbital   3 s accepted.
  | Species O :   atomic orbital   2 s accepted.
  | Species O :   atomic orbital   2 p accepted.
  | Species O :    hydro orbital   2 p accepted.
  | Species O :    hydro orbital   3 d accepted.
 
  Basis size parameters after reduction:
  | Total number of radial functions:        9
  | Total number of basis functions :      768
 
  Per-task memory consumption for arrays in subroutine allocate_ext:
  |           2.268304MB.
  Testing on-site integration grid accuracy.
  |  Species  Function  <phi|h_atom|phi> (log., in eV)  <phi|h_atom|phi> (rad., in eV)
           1        1                 -6.3245358373                 -6.3232436907
           1        2                 14.1326137532                 14.1384481100
           1        3                 25.3627025200                 25.3628451197
           2        4               -510.4241781764               -510.4240769407
           2        5                 14.9072942213                 14.9072945271
           2        6                -21.2004736474                -21.2005650551
           2        7                 -9.1962086505                 -9.1963509834
           2        8                  8.1896755006                  8.1702200081
           2        9                 45.7920584937                 45.7920228520

  Preparing densities etc. for the partition functions (integrals / Hartree potential).

  Preparations completed.
  max(cpu_time)          :      0.071 s.
  Wall clock time (cpu1) :      0.064 s.
------------------------------------------------------------

  Initializing index lists of integration centers etc. from given atomic structure:
  Mapping all atomic coordinates to central unit cell.

  Initializing the k-points
  Using symmetry for reducing the k-points
  | k-points reduced from:        1 to        1
  | Number of k-points                             :         1
  | Consuming          0 KiB for k_phase_exx.
  The eigenvectors in the calculations are REAL.
  | Number of basis functions in the Hamiltonian integrals :      4365
  | Number of basis functions in a single unit cell        :       768
  | Number of centers in hartree potential         :      2507
  | Number of centers in hartree multipole         :      1804
  | Number of centers in electron density summation:      1385
  | Number of centers in basis integrals           :      1465
  | Number of centers in integrals                 :       667
  | Number of centers in hamiltonian               :      1385
  | Consuming          0 KiB for k_phase.
  | Number of super-cells (origin) [n_cells]                     :         125
  | Number of super-cells (after PM_index) [n_cells]             :          28
  | Number of super-cells in hamiltonian [n_cells_in_hamiltonian]:          28
  | Size of matrix packed + index [n_hamiltonian_matrix_size] :      722787
  | Size of matrix packed + index (no_symmetry):     1444805

------------------------------------------------------------
          Begin self-consistency loop: Initialization.

          Date     :  20230221, Time     :  145317.890
------------------------------------------------------------
  | Estimated reciprocal-space cutoff momentum G_max:         3.05319047 bohr^-1 .
  | Reciprocal lattice points for long-range Hartree potential:    3406
  Using simple linear distribution as default method for k-point parallelism.
  * Using 18 tasks for Scalapack Eigenvalue solver.
  Detailed listing of tasks and assigned k-points:
   Task     0 k-point     1 on adag039
   Task     1 k-point     1 on adag039
   Task     2 k-point     1 on adag039
   Task     3 k-point     1 on adag039
   Task     4 k-point     1 on adag039
   Task     5 k-point     1 on adag039
   Task     6 k-point     1 on adag039
   Task     7 k-point     1 on adag039
   Task     8 k-point     1 on adag039
   Task     9 k-point     1 on adag039
   Task    10 k-point     1 on adag039
   Task    11 k-point     1 on adag039
   Task    12 k-point     1 on adag039
   Task    13 k-point     1 on adag039
   Task    14 k-point     1 on adag039
   Task    15 k-point     1 on adag039
   Task    16 k-point     1 on adag039
   Task    17 k-point     1 on adag039
  K-point:     1 Tasks:    18 split into      6 X      3 BLACS grid
  Calculating block size based on n_basis =          768  max_nprow =            6  max_npcol =            3
  ScaLAPACK block size set to:           16
  Allocating        0.250 MB for ovlp
  Allocating        0.250 MB for ham
  Allocating        0.250 MB for eigenvec
  Required Scalapack workspace - INTEGER:            1  REAL:             1
  Partitioning the integration grid into batches with parallel hashing+maxmin method.
  | Number of batches:     3968
  | Maximal batch size:     199
  | Minimal batch size:     100
  | Average batch size:     128.419
  | Standard deviation of batch sizes:      24.574

  Integration load balanced across    18 MPI tasks.
  Work distribution over tasks is as follows:
  Task     0 has      28291 integration points.
  Task     1 has      28289 integration points.
  Task     2 has      28320 integration points.
  Task     3 has      28379 integration points.
  Task     4 has      28316 integration points.
  Task     5 has      28338 integration points.
  Task     6 has      28279 integration points.
  Task     7 has      28347 integration points.
  Task     8 has      28236 integration points.
  Task     9 has      28245 integration points.
  Task    10 has      28281 integration points.
  Task    11 has      28347 integration points.
  Task    12 has      28248 integration points.
  Task    13 has      28359 integration points.
  Task    14 has      28341 integration points.
  Task    15 has      28296 integration points.
  Task    16 has      28296 integration points.
  Task    17 has      28360 integration points.
  Initializing partition tables, free-atom densities, potentials, etc. across the integration grid (initialize_grid_storage).
  | initialize_grid_storage: Actual outermost partition radius vs. multipole_radius_free
  | (-- VB: in principle, multipole_radius_free should be larger, hence this output)
  | Species        1: Confinement radius =              4.999999999999999 AA, multipole_radius_free =              5.054417573612229 AA.
  | Species        1: outer_partition_radius set to              5.054417573612229 AA .
  | Species        2: Confinement radius =              4.999999999999999 AA, multipole_radius_free =              5.048384829883283 AA.
  | Species        2: outer_partition_radius set to              5.048384829883283 AA .
  | The sparse table of interatomic distances needs       4402.26 kbyte instead of     17169.80 kbyte of memory.
  | Net number of integration points:   509568
  | of which are non-zero points    :   410775
  | Numerical average free-atom electrostatic potential    :     -4.94371239 eV
  Renormalizing the initial density to the exact electron count on the 3D integration grid.
  | Initial density: Formal number of electrons (from input files) :     320.0000000000
  | Integrated number of electrons on 3D grid     :     319.9993716376
  | Charge integration error                      :      -0.0006283624
  | Normalization factor for density and gradient :       1.0000019636
  Renormalizing the free-atom superposition density to the exact electron count on the 3D integration grid.
  | Formal number of electrons (from input files) :     320.0000000000
  | Integrated number of electrons on 3D grid     :     319.9993716376
  | Charge integration error                      :      -0.0006283624
  | Normalization factor for density and gradient :       1.0000019636
  Obtaining max. number of non-zero basis functions in each batch (get_n_compute_maxes).
  | Maximal number of non-zero basis functions:      410 in task     0
  | Maximal number of non-zero basis functions:      415 in task     1
  | Maximal number of non-zero basis functions:      421 in task     2
  | Maximal number of non-zero basis functions:      407 in task     3
  | Maximal number of non-zero basis functions:      402 in task     4
  | Maximal number of non-zero basis functions:      403 in task     5
  | Maximal number of non-zero basis functions:      389 in task     6
  | Maximal number of non-zero basis functions:      412 in task     7
  | Maximal number of non-zero basis functions:      415 in task     8
  | Maximal number of non-zero basis functions:      399 in task     9
  | Maximal number of non-zero basis functions:      408 in task    10
  | Maximal number of non-zero basis functions:      410 in task    11
  | Maximal number of non-zero basis functions:      401 in task    12
  | Maximal number of non-zero basis functions:      397 in task    13
  | Maximal number of non-zero basis functions:      393 in task    14
  | Maximal number of non-zero basis functions:      394 in task    15
  | Maximal number of non-zero basis functions:      425 in task    16
  | Maximal number of non-zero basis functions:      442 in task    17
  Integrating Hamiltonian matrix: batch-based integration.
  GPU acceleration will be used when integrating the Hamiltonian matrix.
  Reporting GPU memory usage by myid 0.  Note that it is likely not the only MPI task binding to its GPU!
  Allocating        1.345 MB on GPU for hamiltonian_shell
  Allocating        0.653 MB on GPU for wave
  Allocating        0.002 MB on GPU for partition
  Allocating        0.653 MB on GPU for h_times_psi
  Time summed over all CPUs for integration: real work       10.848 s, elapsed       11.148 s
  Deallocating memory used on GPU for Hamiltonian integration.
  Integrating overlap matrix.
  Time summed over all CPUs for integration: real work        8.626 s, elapsed        8.997 s
  Deallocating overlap matrix.

  Updating Kohn-Sham eigenvalues and eigenvectors using ELSI and the ELPA eigensolver.
  Singularity check in k-point 1 (analysis for other k-points may follow below):
  Overlap matrix is not singular
  | Lowest and highest eigenvalues :  0.2045E-02,  0.6931E+01
  Finished singularity check of overlap matrix
  | Time :     0.166 s
  Starting ELPA eigensolver (GPU)
  Finished Cholesky decomposition
  | Time :     0.008 s
  Finished transformation to standard eigenproblem
  | Time :     0.029 s
  Finished solving standard eigenproblem
  | Time :     0.189 s
  Finished back-transformation of eigenvectors
  | Time :     0.017 s

  Obtaining occupation numbers and electronic chemical potential using ELSI.
  | Note that, for insulating systems, the printed 'chemical potential' value is not uniquely defined.
  | It can be anywhere in the energy gap, as long as it correctly separates occupied and unoccupied states.
  | In systems with a gap, the physically relevant chemical potential is the VBM or HOMO.

  | Chemical potential (Fermi level):    -8.66232209 eV
  Writing Kohn-Sham eigenvalues.

  State    Occupation    Eigenvalue [Ha]    Eigenvalue [eV]
      1       2.00000         -18.899700         -514.28700
      2       2.00000         -18.897608         -514.23009
      3       2.00000         -18.895937         -514.18462
      4       2.00000         -18.890015         -514.02346
      5       2.00000         -18.889793         -514.01741
      6       2.00000         -18.888975         -513.99517
      7       2.00000         -18.887158         -513.94573
      8       2.00000         -18.887051         -513.94280
      9       2.00000         -18.885073         -513.88898
     10       2.00000         -18.884329         -513.86874
     11       2.00000         -18.884205         -513.86536
     12       2.00000         -18.882974         -513.83186
     13       2.00000         -18.878049         -513.69786
     14       2.00000         -18.877394         -513.68003
     15       2.00000         -18.876377         -513.65237
     16       2.00000         -18.873063         -513.56218
     17       2.00000         -18.872837         -513.55601
     18       2.00000         -18.872735         -513.55326
     19       2.00000         -18.870593         -513.49495
     20       2.00000         -18.865916         -513.36768
     21       2.00000         -18.862042         -513.26229
     22       2.00000         -18.861083         -513.23618
     23       2.00000         -18.860192         -513.21194
     24       2.00000         -18.859960         -513.20563
     25       2.00000         -18.858042         -513.15343
     26       2.00000         -18.857233         -513.13142
     27       2.00000         -18.853524         -513.03048
     28       2.00000         -18.853159         -513.02056
     29       2.00000         -18.852236         -512.99543
     30       2.00000         -18.849974         -512.93390
     31       2.00000         -18.847692         -512.87179
     32       2.00000         -18.839370         -512.64535
     33       2.00000          -1.147650          -31.22916
     34       2.00000          -1.137380          -30.94968
     35       2.00000          -1.136921          -30.93718
     36       2.00000          -1.134987          -30.88458
     37       2.00000          -1.134447          -30.86987
     38       2.00000          -1.129020          -30.72220
     39       2.00000          -1.128079          -30.69660
     40       2.00000          -1.126974          -30.66652
     41       2.00000          -1.124534          -30.60013
     42       2.00000          -1.122565          -30.54656
     43       2.00000          -1.121920          -30.52900
     44       2.00000          -1.118447          -30.43449
     45       2.00000          -1.117551          -30.41011
     46       2.00000          -1.113440          -30.29824
     47       2.00000          -1.109386          -30.18793
     48       2.00000          -1.106876          -30.11962
     49       2.00000          -1.098658          -29.89600
     50       2.00000          -1.096365          -29.83361
     51       2.00000          -1.094336          -29.77839
     52       2.00000          -1.092616          -29.73159
     53       2.00000          -1.091610          -29.70422
     54       2.00000          -1.083808          -29.49192
     55       2.00000          -1.081750          -29.43592
     56       2.00000          -1.080323          -29.39708
     57       2.00000          -1.074325          -29.23387
     58       2.00000          -1.073668          -29.21599
     59       2.00000          -1.072933          -29.19600
     60       2.00000          -1.065648          -28.99777
     61       2.00000          -1.063692          -28.94454
     62       2.00000          -1.057195          -28.76774
     63       2.00000          -1.052814          -28.64852
     64       2.00000          -1.038749          -28.26581
     65       2.00000          -0.707610          -19.25505
     66       2.00000          -0.700488          -19.06125
     67       2.00000          -0.692911          -18.85507
     68       2.00000          -0.689744          -18.76888
     69       2.00000          -0.688166          -18.72596
     70       2.00000          -0.678860          -18.47272
     71       2.00000          -0.675462          -18.38026
     72       2.00000          -0.673014          -18.31364
     73       2.00000          -0.669023          -18.20504
     74       2.00000          -0.666896          -18.14717
     75       2.00000          -0.665845          -18.11856
     76       2.00000          -0.665104          -18.09841
     77       2.00000          -0.664271          -18.07575
     78       2.00000          -0.660051          -17.96090
     79       2.00000          -0.648954          -17.65895
     80       2.00000          -0.643754          -17.51744
     81       2.00000          -0.639652          -17.40581
     82       2.00000          -0.632144          -17.20152
     83       2.00000          -0.631408          -17.18149
     84       2.00000          -0.628353          -17.09836
     85       2.00000          -0.625578          -17.02284
     86       2.00000          -0.623972          -16.97914
     87       2.00000          -0.623199          -16.95810
     88       2.00000          -0.622614          -16.94218
     89       2.00000          -0.620252          -16.87792
     90       2.00000          -0.616756          -16.78278
     91       2.00000          -0.615240          -16.74154
     92       2.00000          -0.611345          -16.63554
     93       2.00000          -0.610579          -16.61471
     94       2.00000          -0.609217          -16.57763
     95       2.00000          -0.607516          -16.53135
     96       2.00000          -0.602106          -16.38412
     97       2.00000          -0.563428          -15.33164
     98       2.00000          -0.560422          -15.24987
     99       2.00000          -0.558602          -15.20033
    100       2.00000          -0.554737          -15.09515
    101       2.00000          -0.552476          -15.03363
    102       2.00000          -0.547885          -14.90871
    103       2.00000          -0.546211          -14.86316
    104       2.00000          -0.545033          -14.83110
    105       2.00000          -0.543079          -14.77794
    106       2.00000          -0.538509          -14.65357
    107       2.00000          -0.537489          -14.62583
    108       2.00000          -0.534827          -14.55339
    109       2.00000          -0.533829          -14.52622
    110       2.00000          -0.533151          -14.50776
    111       2.00000          -0.530660          -14.44000
    112       2.00000          -0.527722          -14.36005
    113       2.00000          -0.526300          -14.32134
    114       2.00000          -0.523594          -14.24771
    115       2.00000          -0.522733          -14.22428
    116       2.00000          -0.522492          -14.21774
    117       2.00000          -0.520815          -14.17211
    118       2.00000          -0.516596          -14.05728
    119       2.00000          -0.515068          -14.01571
    120       2.00000          -0.512012          -13.93256
    121       2.00000          -0.510719          -13.89738
    122       2.00000          -0.505910          -13.76652
    123       2.00000          -0.504636          -13.73184
    124       2.00000          -0.497031          -13.52490
    125       2.00000          -0.493915          -13.44010
    126       2.00000          -0.491937          -13.38630
    127       2.00000          -0.489793          -13.32794
    128       2.00000          -0.485949          -13.22335
    129       2.00000          -0.476876          -12.97645
    130       2.00000          -0.472479          -12.85680
    131       2.00000          -0.472410          -12.85494
    132       2.00000          -0.471352          -12.82614
    133       2.00000          -0.471087          -12.81892
    134       2.00000          -0.470098          -12.79201
    135       2.00000          -0.468937          -12.76042
    136       2.00000          -0.468377          -12.74519
    137       2.00000          -0.466380          -12.69086
    138       2.00000          -0.465680          -12.67180
    139       2.00000          -0.464950          -12.65193
    140       2.00000          -0.464087          -12.62846
    141       2.00000          -0.461907          -12.56913
    142       2.00000          -0.461583          -12.56031
    143       2.00000          -0.458975          -12.48933
    144       2.00000          -0.458390          -12.47342
    145       2.00000          -0.456237          -12.41484
    146       2.00000          -0.455784          -12.40252
    147       2.00000          -0.454483          -12.36711
    148       2.00000          -0.452694          -12.31842
    149       2.00000          -0.449501          -12.23154
    150       2.00000          -0.447443          -12.17555
    151       2.00000          -0.447158          -12.16778
    152       2.00000          -0.444101          -12.08459
    153       2.00000          -0.442787          -12.04886
    154       2.00000          -0.440960          -11.99913
    155       2.00000          -0.439922          -11.97090
    156       2.00000          -0.438145          -11.92253
    157       2.00000          -0.437903          -11.91594
    158       2.00000          -0.435599          -11.85324
    159       2.00000          -0.434149          -11.81379
    160       2.00000          -0.433615          -11.79925
    161       0.00000          -0.169978           -4.62534
    162       0.00000          -0.122350           -3.32932
    163       0.00000          -0.113610           -3.09148
    164       0.00000          -0.109684           -2.98466
    165       0.00000          -0.103538           -2.81742
    166       0.00000          -0.099975           -2.72046
    167       0.00000          -0.095788           -2.60652
    168       0.00000          -0.082202           -2.23683
    169       0.00000          -0.068746           -1.87068
    170       0.00000          -0.063498           -1.72787
    171       0.00000          -0.061550           -1.67485
    172       0.00000          -0.059443           -1.61753
    173       0.00000          -0.056194           -1.52911
    174       0.00000          -0.053401           -1.45313
    175       0.00000          -0.048445           -1.31826
    176       0.00000          -0.044799           -1.21904
    177       0.00000          -0.041456           -1.12808
    178       0.00000          -0.036300           -0.98777
    179       0.00000          -0.027712           -0.75408
    180       0.00000          -0.023121           -0.62916
    181       0.00000          -0.013888           -0.37790
    182       0.00000          -0.008442           -0.22973
    183       0.00000          -0.006613           -0.17996
    184       0.00000          -0.002312           -0.06292
    185       0.00000           0.008800            0.23947
    186       0.00000           0.010181            0.27703
    187       0.00000           0.015833            0.43084
    188       0.00000           0.023065            0.62762
    189       0.00000           0.026511            0.72139
    190       0.00000           0.029063            0.79084
    191       0.00000           0.032610            0.88736
    192       0.00000           0.034886            0.94930
    193       0.00000           0.039196            1.06657
    194       0.00000           0.045332            1.23356
    195       0.00000           0.047202            1.28444
    196       0.00000           0.049223            1.33942
    197       0.00000           0.052403            1.42597
    198       0.00000           0.054652            1.48715
    199       0.00000           0.056313            1.53234
    200       0.00000           0.061437            1.67178
    201       0.00000           0.062101            1.68984
    202       0.00000           0.064661            1.75951
    203       0.00000           0.066747            1.81627
    204       0.00000           0.070001            1.90483
    205       0.00000           0.072271            1.96658
    206       0.00000           0.073234            1.99280
    207       0.00000           0.076819            2.09036
    208       0.00000           0.082024            2.23198
    209       0.00000           0.084870            2.30942
    210       0.00000           0.086740            2.36031
    211       0.00000           0.089818            2.44407
    212       0.00000           0.091951            2.50213
    213       0.00000           0.093217            2.53655
    214       0.00000           0.097347            2.64895
    215       0.00000           0.100568            2.73659
    216       0.00000           0.103285            2.81054
    217       0.00000           0.104660            2.84796
    218       0.00000           0.107365            2.92154
    219       0.00000           0.109489            2.97934
    220       0.00000           0.116500            3.17012
    221       0.00000           0.119345            3.24755
    222       0.00000           0.126818            3.45088
    223       0.00000           0.130226            3.54364
    224       0.00000           0.135980            3.70020
    225       0.00000           0.138564            3.77053
    226       0.00000           0.141701            3.85589
    227       0.00000           0.148198            4.03268
    228       0.00000           0.150763            4.10247
    229       0.00000           0.157321            4.28093
    230       0.00000           0.160467            4.36653
    231       0.00000           0.169494            4.61215
    232       0.00000           0.173224            4.71367
    233       0.00000           0.181880            4.94921
    234       0.00000           0.185718            5.05364
    235       0.00000           0.190738            5.19024
    236       0.00000           0.198324            5.39667
    237       0.00000           0.203347            5.53334
    238       0.00000           0.207126            5.63619
    239       0.00000           0.214527            5.83757
    240       0.00000           0.227210            6.18269
    241       0.00000           0.233022            6.34086
    242       0.00000           0.235973            6.42115
    243       0.00000           0.239160            6.50787
    244       0.00000           0.242268            6.59244
    245       0.00000           0.247819            6.74349
    246       0.00000           0.252991            6.88425
    247       0.00000           0.254879            6.93561
    248       0.00000           0.264581            7.19962
    249       0.00000           0.265339            7.22023
    250       0.00000           0.276147            7.51434
    251       0.00000           0.279520            7.60614
    252       0.00000           0.282218            7.67954
    253       0.00000           0.288796            7.85854
    254       0.00000           0.298819            8.13127
    255       0.00000           0.304799            8.29400
    256       0.00000           0.314184            8.54937
    257       0.00000           0.316757            8.61941
    258       0.00000           0.320366            8.71760
    259       0.00000           0.322845            8.78506
    260       0.00000           0.337623            9.18720
[...]
  |    H      0     4.527807 A      4.527807 A        1.268855E-16 a.u.
  |    H      0     4.527807 A      4.583499 A       -4.900954E-17 a.u.
  |    H      0     4.527807 A      4.583499 A        4.713786E-16 a.u.
  |    H      2     3.678162 A  2.180220E+05 A            0.556529 a.u.
  |    H      1     3.958095 A  1.721251E+08 A            0.841931 a.u.
  |    H      0     4.527807 A  3.866455E+16 A            0.581436 a.u.
  |    O      0     2.043000 A      2.043000 A       -1.436841E-16 a.u.
  |    O      3     3.498446 A      3.498446 A        3.043453E-17 a.u.
  |    O      3     3.498446 A      3.498446 A        1.541443E-16 a.u.
  |    O      0     3.905335 A      3.905335 A        2.173090E-16 a.u.
  |    O      0     3.905335 A      3.905335 A        7.213445E-17 a.u.
  |    O      0     4.101052 A      4.101052 A        2.361718E-16 a.u.
  |    O      1     4.101052 A      4.101052 A        3.235185E-17 a.u.
  |    O      0     4.359549 A      4.359549 A       -5.329475E-17 a.u.
  |    O      1     4.413171 A      4.413171 A        3.261883E-17 a.u.
  |    O      1     4.522403 A      4.522403 A        6.417997E-16 a.u.
  |    O      1     4.522403 A      4.522403 A        4.224783E-16 a.u.
  |    O      2     4.522403 A      4.522403 A       -4.387647E-16 a.u.
  |    O      0     4.522403 A      4.578029 A        2.602039E-16 a.u.
  |    O      0     4.578029 A      4.578029 A        1.226235E-16 a.u.
  |    O      1     4.578029 A      4.578029 A       -6.107316E-16 a.u.
  |    O      1     4.578029 A      4.578029 A       -2.224438E-16 a.u.
  |    O      2     4.578029 A      4.578029 A       -7.020279E-16 a.u.
  |    O      2     4.522403 A      4.578029 A        1.323470E-15 a.u.
  |    O      2     4.578029 A      4.578029 A        7.923696E-16 a.u.
  |    O      2     4.522403 A      4.578029 A       -9.951815E-16 a.u.
  |    O      0     4.578029 A      4.634338 A       -8.813582E-18 a.u.
  |    O      1     4.578029 A      4.634338 A       -3.325386E-17 a.u.
  |    O      1     4.634338 A      4.634338 A        9.588032E-16 a.u.
  |    O      2     4.578029 A      4.634338 A        1.064715E-17 a.u.
  |    O      2     4.578029 A      4.634338 A       -3.770343E-15 a.u.
  |    O      4     3.251020 A  1.511584E+03 A            1.513372 a.u.
  |    O      3     3.541477 A  1.434166E+04 A            4.293220 a.u.
  |    O      2     4.634338 A  5.584435E+05 A            9.352428 a.u.
  |    O      1     4.634338 A  2.821283E+08 A            2.261940 a.u.
  |    O      0     4.578029 A  4.264100E+16 A            0.641234 a.u.

  | Shrink_full_auxil_basis : there are       38  radial auxiliary wave functions
                            accepted and       5 rejected.
  | Shrink_full_auxil_basis : there are totally                4544 partial auxiliary wave functions.
 
  | Maximal number of product basis functions per thread :   256   256
 
  | Minimal total memory requirement for three-center overlap :      10.450 Gbs
  | Number of local auxiliary basis functions on task:      0   256
  | Number of local auxiliary basis functions on task:      1   256
  | Number of local auxiliary basis functions on task:      2   256
  | Number of local auxiliary basis functions on task:      3   256
  | Number of local auxiliary basis functions on task:      4   256
  | Number of local auxiliary basis functions on task:      5   256
  | Number of local auxiliary basis functions on task:      6   256
  | Number of local auxiliary basis functions on task:      7   256
  | Number of local auxiliary basis functions on task:      8   256
  | Number of local auxiliary basis functions on task:      9   256
  | Number of local auxiliary basis functions on task:     10   256
  | Number of local auxiliary basis functions on task:     11   256
  | Number of local auxiliary basis functions on task:     12   256
  | Number of local auxiliary basis functions on task:     13   256
  | Number of local auxiliary basis functions on task:     14   240
  | Number of local auxiliary basis functions on task:     15   240
  | Number of local auxiliary basis functions on task:     16   240
  | Number of local auxiliary basis functions on task:     17   240
  | 2D aux task distribution:      3 X      6
  | 2D block size (nb_aux_2d):     64
 
  Basis pair condensation :    295296  -->     216404
 
 --------------------------------------------
  Constructing auxiliary basis (full product) ...
 
  Product basis:
  | charge radius: extent of product basis function
  | field radius: extent of its Coulomb potential
  | Species   l  charge radius    field radius  multipol momen
  |    H      1     3.910002 A      3.910002 A       -2.487223E-16 a.u.
  |    H      1     3.958095 A      3.958095 A       -2.441841E-16 a.u.
  |    H      0     4.527807 A      4.527807 A        1.268855E-16 a.u.
  |    H      0     4.527807 A      4.583499 A       -4.900954E-17 a.u.
  |    H      0     4.527807 A      4.583499 A        4.713786E-16 a.u.
  |    H      2     3.678162 A  2.180220E+05 A            0.556529 a.u.
  |    H      1     3.958095 A  1.721251E+08 A            0.841931 a.u.
  |    H      0     4.527807 A  3.866455E+16 A            0.581436 a.u.
  |    O      0     2.043000 A      2.043000 A       -1.436841E-16 a.u.
  |    O      3     3.498446 A      3.498446 A        3.043453E-17 a.u.
  |    O      3     3.498446 A      3.498446 A        1.541443E-16 a.u.
  |    O      0     3.905335 A      3.905335 A        2.173090E-16 a.u.
  |    O      0     3.905335 A      3.905335 A        7.213445E-17 a.u.
  |    O      0     4.101052 A      4.101052 A        2.361718E-16 a.u.
  |    O      1     4.101052 A      4.101052 A        3.235185E-17 a.u.
  |    O      0     4.359549 A      4.359549 A       -5.329475E-17 a.u.
  |    O      1     4.413171 A      4.413171 A        3.261883E-17 a.u.
  |    O      1     4.522403 A      4.522403 A        6.417997E-16 a.u.
  |    O      1     4.522403 A      4.522403 A        4.224783E-16 a.u.
  |    O      2     4.522403 A      4.522403 A       -4.387647E-16 a.u.
  |    O      0     4.522403 A      4.578029 A        2.602039E-16 a.u.
  |    O      0     4.578029 A      4.578029 A        1.226235E-16 a.u.
  |    O      1     4.578029 A      4.578029 A       -6.107316E-16 a.u.
  |    O      1     4.578029 A      4.578029 A       -2.224438E-16 a.u.
  |    O      2     4.578029 A      4.578029 A       -7.020279E-16 a.u.
  |    O      2     4.522403 A      4.578029 A        1.323470E-15 a.u.
  |    O      2     4.578029 A      4.578029 A        7.923696E-16 a.u.
  |    O      2     4.522403 A      4.578029 A       -9.951815E-16 a.u.
  |    O      0     4.578029 A      4.634338 A       -8.813582E-18 a.u.
  |    O      1     4.578029 A      4.634338 A       -3.325386E-17 a.u.
  |    O      1     4.634338 A      4.634338 A        9.588032E-16 a.u.
  |    O      2     4.578029 A      4.634338 A        1.064715E-17 a.u.
  |    O      2     4.578029 A      4.634338 A       -3.770343E-15 a.u.
  |    O      4     3.251020 A  1.511584E+03 A            1.513372 a.u.
  |    O      3     3.541477 A  1.434166E+04 A            4.293220 a.u.
  |    O      2     4.634338 A  5.584435E+05 A            9.352428 a.u.
  |    O      1     4.634338 A  2.821283E+08 A            2.261940 a.u.
  |    O      0     4.578029 A  4.264100E+16 A            0.641234 a.u.

  | Shrink_full_auxil_basis : there are       38  radial auxiliary wave functions
                            accepted and       5 rejected.
  | Shrink_full_auxil_basis : there are totally                4544 partial auxiliary wave functions.
 
  | Maximal number of product basis functions per thread :   256   256
 
  | Minimal total memory requirement for three-center overlap :      10.450 Gbs
  | Number of local auxiliary basis functions on task:      0   256
  | Number of local auxiliary basis functions on task:      1   256
  | Number of local auxiliary basis functions on task:      2   256
  | Number of local auxiliary basis functions on task:      3   256
  | Number of local auxiliary basis functions on task:      4   256
  | Number of local auxiliary basis functions on task:      5   256
  | Number of local auxiliary basis functions on task:      6   256
  | Number of local auxiliary basis functions on task:      7   256
  | Number of local auxiliary basis functions on task:      8   256
  | Number of local auxiliary basis functions on task:      9   256
  | Number of local auxiliary basis functions on task:     10   256
  | Number of local auxiliary basis functions on task:     11   256
  | Number of local auxiliary basis functions on task:     12   256
  | Number of local auxiliary basis functions on task:     13   256
  | Number of local auxiliary basis functions on task:     14   240
  | Number of local auxiliary basis functions on task:     15   240
  | Number of local auxiliary basis functions on task:     16   240
  | Number of local auxiliary basis functions on task:     17   240
  | 2D aux task distribution:      3 X      6
  | 2D block size (nb_aux_2d):     64
 
  Basis pair condensation :    295296  -->     216404
dP_dE (Bohr^3) at every cycle:--->
 (364.705803113321,0.000000000000000E+000) (-8.61080506771328,0.000000000000000E+000) (6.33219316034281,0.000000000000000E+000)
 (-8.60931418762083,0.000000000000000E+000) (333.807263669036,0.000000000000000E+000) (20.3489319607875,0.000000000000000E+000)
 (6.31435161315706,0.000000000000000E+000) (20.3463398230082,0.000000000000000E+000) (338.123348128243,0.000000000000000E+000)
DFPT polarizability (Bohr^3)        xx        yy        zz        xy        xz        yz
  | Polarizability:--->                       364.705803113                  333.807263669                  338.123348128                   -8.610805068                    6.332193160                   20.348931961

DFPT for dielectric_constant:--->  # PARSE DFPT_dielectric_tensor
               1.644263200203548            -0.015211232675478             0.011185999770127
              -0.015208598993285             1.589680049252684             0.035946968526047
               0.011154482168300             0.035942389440749             1.597304535516131

                                               :  max(cpu_time)    wall_clock(cpu1)
  | Time for  dielectric calculation            :        0.000 s           0.000 s
===========================================================================

------------------------------------------------------------------------------
  Final output of selected total energy values:

  The following output summarizes some interesting total energy values
  at the end of a run (AFTER all relaxation, molecular dynamics, etc.).

  | Total energy of the DFT / Hartree-Fock s.c.f. calculation      :         -66110.336931876 eV
  | Final zero-broadening corrected energy (caution - metals only) :         -66110.336931876 eV
  | For reference only, the value of 1 Hartree used in FHI-aims is :             27.211384500 eV
  | For reference only, the overall average (free atom contribution
  | + realspace contribution) of the electrostatic potential after
  | s.c.f. convergence is                                          :             -4.558572348 eV

  Before relying on these values, please be sure to understand exactly which
  total energy value is referred to by a given number. Different objects may
  all carry the same name 'total energy'. Definitions:

  Total energy of the DFT / Hartree-Fock s.c.f. calculation:
  | Note that this energy does not include ANY quantities calculated after the
  | s.c.f. cycle, in particular not ANY RPA, MP2, etc. many-body perturbation terms.

  Final zero-broadening corrected energy:
  | For metallic systems only, a broadening of the occupation numbers at the Fermi
  | level can be extrapolated back to zero broadening by an electron-gas inspired
  | formula. For all systems that are not real metals, this value can be
  | meaningless and should be avoided.

------------------------------------------------------------------------------
  Methods described in the following list of references were used in this FHI-aims run.
  If you publish the results, please make sure to cite these reference if they apply.
  FHI-aims is an academic code, and for our developers (often, Ph.D. students
  and postdocs), scientific credit in the community is essential.
  Thank you for helping us!

  For any use of FHI-aims, please cite:

    Volker Blum, Ralf Gehrke, Felix Hanke, Paula Havu, Ville Havu,
    Xinguo Ren, Karsten Reuter, and Matthias Scheffler
    'Ab initio molecular simulations with numeric atom-centered orbitals'
    Computer Physics Communications 180, 2175-2196 (2009)
    http://doi.org/10.1016/j.cpc.2009.06.022


  For Hartree-Fock, hybrid functionals, or many-body perturbation theory used in your run, please cite:

    Xinguo Ren, Patrick Rinke, Volker Blum, Juergen Wieferink, Alex Tkatchenko,
    Andrea Sanfilippo, Karsten Reuter, and Matthias Scheffler,
    'Resolution-of-identity approach to Hartree-Fock, hybrid density functionals,
    RPA, MP2, and GW with numeric atom-centered orbital basis functions'
    New Journal of Physics 14, 053020 (2012).
    http://doi.org/10.1088/1367-2630/14/5/053020


  The provided symmetry information was generated with SPGlib:

    Atsushi Togo, Yusuke Seto, Dimitar Pashov
    SPGlib 1.7.3 obtained from http://spglib.sourceforge.net
    Copyright (C) 2008 Atsushi Togo


  The DFPT (perturbation by an electric field) part of the code was used.
  Here is the corresponding reference:

    Honghui Shang, Nathaniel Raimbault, Mariana Rossi,
    Christian Carbogno, Patrick Rinke and Matthias Scheffler,
    'All-Electron, Real-Space Perturbation Theory for Homogeneous
    Electric Fields: Theory, Implementation, and Application within dft'
    New Journal of Physics, 20(7):073040, 2018


  The ELSI infrastructure was used in your run to solve the Kohn-Sham electronic structure.
  Please check out http://elsi-interchange.org to learn more.
  If scalability is important for your project, please acknowledge ELSI by citing:

    V. W-z. Yu, F. Corsetti, A. Garcia, W. P. Huhn, M. Jacquelin, W. Jia,
    B. Lange, L. Lin, J. Lu, W. Mi, A. Seifitokaldani, A. Vazquez-Mayagoitia,
    C. Yang, H. Yang, and V. Blum
    'ELSI: A unified software interface for Kohn-Sham electronic structure solvers'
    Computer Physics Communications 222, 267-285 (2018).
    http://doi.org/10.1016/j.cpc.2017.09.007


  For the real-space grid partitioning and parallelization used in this calculation, please cite:

    Ville Havu, Volker Blum, Paula Havu, and Matthias Scheffler,
    'Efficient O(N) integration for all-electron electronic structure calculation'
    'using numerically tabulated basis functions'
    Journal of Computational Physics 228, 8367-8379 (2009).
    http://doi.org/10.1016/j.jcp.2009.08.008


  The high-level electronic structure method used in your calculation
  employed our efficient localized resolution of identity for the Coulomb operator.
  Some calculations, especially large-scale hybrid density functional theory,
  are only possible thanks to this development. For this feature, please cite:

    Arvid Ihrig, Juergen Wieferink, Igor Ying Zhang, Matti Ropo, Xinguo Ren,
    Patrick Rinke, Matthias Scheffler, and Volker Blum,
    'Accurate localized resolution of identity approach for linear-scaling
    hybrid density functionals and for many-body perturbation theory'
    New Journal of Physics 117, 093020 (2015).
    http://doi.org/10.1088/1367-2630/17/9/093020

  Of course, there are many other important community references, e.g., those cited in the
  above references. Our list is limited to references that describe implementations in the
  FHI-aims code. The reason is purely practical (length of this list) - please credit others as well.

------------------------------------------------------------
          Leaving FHI-aims.
          Date     :  20230221, Time     :  150029.113

          Computational steps:
          | Number of self-consistency cycles          :           45
          | Number of SCF (re)initializations          :            1
          | Number of coupled perturbed self-consistency cycles          :            0
          | Number of CPSCF (re)initializations          :            0

          Detailed time accounting                     :  max(cpu_time)    wall_clock(cpu1)
          | Total time                                  :      431.686 s         442.868 s
          | GPU initialization                          :        2.282 s          10.182 s
          | Preparation time                            :        0.071 s           0.064 s
          | Boundary condition initalization            :        1.310 s           1.310 s
          | Grid partitioning                           :        0.422 s           0.423 s
          | Preloading free-atom quantities on grid     :        2.087 s           2.087 s
          | Free-atom superposition energy              :        0.289 s           0.289 s
          | Total time for integrations                 :       10.973 s          11.146 s
          | Product basis setup: Total time             :        0.000 s           0.000 s
          | Product basis: | 2-center integrations     :(       0.000 s)  (       0.000 s)
          | Product basis: | LVL 3-center & coefficient:(       0.000 s)  (       0.000 s)
          | Total time for solution of K.-S. equations  :        2.277 s           4.510 s
          | Total time for density update               :        8.017 s           8.319 s
          | Total time for mixing & preconditioning     :        8.111 s           8.112 s
          | Total time for Hartree multipole update     :        0.096 s           0.093 s
          | Total time for Hartree multipole sum        :       35.959 s          35.970 s
          | Total time for total energy evaluation      :        0.005 s           0.011 s
          | Total time for DFPT                         :      359.065 s         359.204 s
          | Total time first_order_DM                   :        0.277 s           0.275 s
          | Total time first_order_density              :       70.690 s          70.700 s
          | Total time first_order_potential            :       52.920 s          52.939 s
          | Total time first_order_H                    :      141.414 s         141.469 s
          | Total time solving of Sternheimer equations :        0.182 s           0.184 s
          | Total time for dielectric constant          :        0.000 s           0.000 s
          | Total time momentum matrix                  :        0.000 s           0.000 s

          GPU acceleration has been used for charge density update.
          GPU acceleration has been used for real-space Hamiltonian integration.
          Due to GPU usage, wall_clock(cpu1) will give a more reliable estimate for timings.

          Partial memory accounting:
          | Residual value for overall tracked memory usage across tasks:     0.000000 MB (should be 0.000000 MB)
          | Peak values for overall tracked memory usage:
          |   Minimum:      108.283 MB (on task  0 after allocating DFPT_pulay_mixing::pulay_mix::alphas)
          |   Maximum:      108.283 MB (on task  0 after allocating DFPT_pulay_mixing::pulay_mix::alphas)
          |   Average:      108.283 MB
          | Largest tracked array allocation:
          |   Minimum:       38.601 MB (DFPT_pulay_mixing::initialize_pulay_mixing::X_in_diffs on task  0)
          |   Maximum:       38.601 MB (DFPT_pulay_mixing::initialize_pulay_mixing::X_in_diffs on task  0)
          |   Average:       38.601 MB
          Note:  These values currently only include a subset of arrays which are explicitly tracked.
          The "true" memory usage will be greater.

          Have a nice day.
------------------------------------------------------------
