------------------------------------------------------------
          Invoking FHI-aims ...

          When using FHI-aims, please cite the following reference:

            Volker Blum, Ralf Gehrke, Felix Hanke, Paula Havu,
            Ville Havu, Xinguo Ren, Karsten Reuter, and Matthias Scheffler,
            'Ab Initio Molecular Simulations with Numeric Atom-Centered Orbitals',
            Computer Physics Communications 180, 2175-2196 (2009)

          In addition, many other developments in FHI-aims are likely important for
          your particular application. A partial list of references is given at the end of
          this file. Thank you for giving credit to the authors of these developments.

          For any questions about FHI-aims, please visit our slack channel at

            https://fhi-aims.slack.com

          and our main development and support site at

            https://aims-git.rz-berlin.mpg.de .

          The latter site, in particular, has a wiki to collect information, as well
          as an issue tracker to log discussions, suggest improvements, and report issues
          or bugs. https://aims-git.rz-berlin.mpg.de is also the main development site
          of the project and all new and updated code versions can be obtained there.
          Please send an email to aims-coordinators@fhi-berlin.mpg.de and we will add
          you to these sites. They are for you and everyone is welcome there.

------------------------------------------------------------



  Date     :  20230221, Time     :  133458.495
  Time zero on CPU 1             :   0.397529000000000E+00  s.
  Internal wall clock time zero  :           446218498.495  s.

  FHI-aims created a unique identifier for this run for later identification
  aims_uuid : 081A2D89-4255-49AD-AD57-4FA12D46EC1A

  Build configuration of the current instance of FHI-aims
  -------------------------------------------------------
  FHI-aims version      : 221103
  Commit number         : 42523251a
  CMake host system     : Linux-5.3.18-150300.59.68-default
  CMake version         : 3.17.0
  Fortran compiler      : /mpcdf/soft/SLE_15/packages/x86_64/intel_oneapi/2021.3/mpi/2021.3.0/bin/mpiifort (Intel) version 20.2.3.20210609
  Fortran compiler flags: -O3 -ip -fp-model precise
  C compiler            : /mpcdf/soft/SLE_15/packages/x86_64/intel/2021.3.0/bin/icc (Intel) version 20.2.3.20210609
  C compiler flags      : -O3 -ip -fp-model precise -std=gnu99
  CUDA compiler         : /mpcdf/soft/SLE_15/packages/x86_64/cuda/11.6.2/bin/nvcc
  CUDA compiler flags   : -O3 -DAdd_ -lcublas
  HIP compiler          :
  HIP compiler flags    :
  HIP GPU arch          :
  ELPA2 kernel          : AVX512
  Using MPI
  Using ScaLAPACK
  Using LibXC
  Using CUDA
  Using i-PI
  Using RLSY
  Linking against: /mpcdf/soft/SLE_15/packages/x86_64/cuda/11.6.2/lib64/libcublas.so
                   /mpcdf/soft/SLE_15/packages/x86_64/cuda/11.6.2/lib64/libcudart.so
                   /mpcdf/soft/SLE_15/packages/x86_64/intel_oneapi/2021.3/mkl/latest/lib/intel64/libmkl_intel_lp64.so
                   /mpcdf/soft/SLE_15/packages/x86_64/intel_oneapi/2021.3/mkl/latest/lib/intel64/libmkl_sequential.so
                   /mpcdf/soft/SLE_15/packages/x86_64/intel_oneapi/2021.3/mkl/latest/lib/intel64/libmkl_core.so
                   /mpcdf/soft/SLE_15/packages/x86_64/intel_oneapi/2021.3/mkl/latest/lib/intel64/libmkl_blacs_intelmpi_lp64.so
                   /mpcdf/soft/SLE_15/packages/x86_64/intel_oneapi/2021.3/mkl/latest/lib/intel64/libmkl_scalapack_lp64.so

  Using       18 parallel tasks.
  Task        0 on host adag040 reporting.
  Task        1 on host adag040 reporting.
  Task        2 on host adag040 reporting.
  Task        3 on host adag040 reporting.
  Task        4 on host adag040 reporting.
  Task        5 on host adag040 reporting.
  Task        6 on host adag040 reporting.
  Task        7 on host adag040 reporting.
  Task        8 on host adag040 reporting.
  Task        9 on host adag040 reporting.
  Task       10 on host adag040 reporting.
  Task       11 on host adag040 reporting.
  Task       12 on host adag040 reporting.
  Task       13 on host adag040 reporting.
  Task       14 on host adag040 reporting.
  Task       15 on host adag040 reporting.
  Task       16 on host adag040 reporting.
  Task       17 on host adag040 reporting.

  Obtaining array dimensions for all initial allocations:
  
  -----------------------------------------------------------------------
  Parsing control.in (first pass over file, find array dimensions only).
  The contents of control.in will be repeated verbatim below
  unless switched off by setting 'verbatim_writeout .false.' .
  in the first line of control.in .
  -----------------------------------------------------------------------
  
  #########################################################################################
  #
  #  Volker Blum, 2017 : Test run input file control.in for simple H2O
  #
  #########################################################################################
  #
  #  Physical model
  #
    xc                 pw-lda
    spin               none
    relativistic       none
    charge             0.
  
    use_gpu
  
    DFPT dielectric
    ri_density_restart write
    ri_rho1 write
  #  ri_density_restart read 0
  #  ri_rho1 read
    ri_full_output .true.
    sc_accuracy_rho    1d-6
  #  use_calculate_fock_matrix_old .false.
  #  wave_threshold 1e-8
    k_grid 1 1 1
  #  output cube eigenstate 160
  #  output cube eigenstate 161
    wave_threshold 1e-8
    default_prodbas_acc 1e-6
    default_max_l_prodbas 6
  #
  #  Relaxation
  #
  #  relax_geometry   bfgs 1.e-2
  #
  
  ################################################################################
  
  
  ################################################################################
  #
  #  FHI-aims code project
  #  VB, Fritz-Haber Institut, 2009
  #
  #  Suggested "light" defaults for H atom (to be pasted into control.in file)
  #  Be sure to double-check any results obtained with these settings for post-processing,
  #  e.g., with the "tight" defaults and larger basis sets.
  #
  ################################################################################
    species        H
  #     global species definitions
      nucleus             1
      mass                1.00794
  #
      l_hartree           4
  #
      cut_pot             3.5  1.5  1.0
      basis_dep_cutoff    1e-4
  #
      radial_base         24 5.0
      radial_multiplier   1
      angular_grids       specified
        division   0.2421   50
        division   0.3822  110
        division   0.4799  194
        division   0.5341  302
  #      division   0.5626  434
  #      division   0.5922  590
  #      division   0.6542  770
  #      division   0.6868 1202
  #      outer_grid  770
        outer_grid  302
  ################################################################################
  #
  #  Definition of "minimal" basis
  #
  ################################################################################
  #     valence basis states
      valence      1  s   1.
  #     ion occupancy
      ion_occ      1  s   0.5
  ################################################################################
  #
  #  Suggested additional basis functions. For production calculations,
  #  uncomment them one after another (the most important basis functions are
  #  listed first).
  #
  #  Basis constructed for dimers: 0.5 A, 0.7 A, 1.0 A, 1.5 A, 2.5 A
  #
  ################################################################################
  #  "First tier" - improvements: -1014.90 meV to -62.69 meV
       hydro 2 s 2.1
       hydro 2 p 3.5
  #  "Second tier" - improvements: -12.89 meV to -1.83 meV
  #     hydro 1 s 0.85
  #     hydro 2 p 3.7
  #     hydro 2 s 1.2
  #     hydro 3 d 7
  #  "Third tier" - improvements: -0.25 meV to -0.12 meV
  #     hydro 4 f 11.2
  #     hydro 3 p 4.8
  #     hydro 4 d 9
  #     hydro 3 s 3.2
  ################################################################################
  #
  #  FHI-aims code project
  #  VB, Fritz-Haber Institut, 2009
  #
  #  Suggested "light" defaults for O atom (to be pasted into control.in file)
  #  Be sure to double-check any results obtained with these settings for post-processing,
  #  e.g., with the "tight" defaults and larger basis sets.
  #
  ################################################################################
    species        O
  #     global species definitions
      nucleus             8
      mass                15.9994
  #
      l_hartree           4
  #
      cut_pot             3.5  1.5  1.0
      basis_dep_cutoff    1e-4
  #
      radial_base         36 5.0
      radial_multiplier   1
       angular_grids specified
        division   0.2659   50
        division   0.4451  110
        division   0.6052  194
        division   0.7543  302
  #      division   0.8014  434
  #      division   0.8507  590
  #      division   0.8762  770
  #      division   0.9023  974
  #      division   1.2339 1202
  #      outer_grid 974
        outer_grid 302
  ################################################################################
  #
  #  Definition of "minimal" basis
  #
  ################################################################################
  #     valence basis states
      valence      2  s   2.
      valence      2  p   4.
  #     ion occupancy
      ion_occ      2  s   1.
      ion_occ      2  p   3.
  ################################################################################
  #
  #  Suggested additional basis functions. For production calculations,
  #  uncomment them one after another (the most important basis functions are
  #  listed first).
  #
  #  Constructed for dimers: 1.0 A, 1.208 A, 1.5 A, 2.0 A, 3.0 A
  #
  ################################################################################
  #  "First tier" - improvements: -699.05 meV to -159.38 meV
       hydro 2 p 1.8
       hydro 3 d 7.6
       hydro 3 s 6.4
  #  "Second tier" - improvements: -49.91 meV to -5.39 meV
  #     hydro 4 f 11.6
  #     hydro 3 p 6.2
  #     hydro 3 d 5.6
  #     hydro 5 g 17.6
  #     hydro 1 s 0.75
  #  "Third tier" - improvements: -2.83 meV to -0.50 meV
  #     ionic 2 p auto
  #     hydro 4 f 10.8
  #     hydro 4 d 4.7
  #     hydro 2 s 6.8
  #  "Fourth tier" - improvements: -0.40 meV to -0.12 meV
  #     hydro 3 p 5
  #     hydro 3 s 3.3
  #     hydro 5 g 15.6
  #     hydro 4 f 17.6
  #     hydro 4 d 14
  # Further basis functions - -0.08 meV and below
  #     hydro 3 s 2.1
  #     hydro 4 d 11.6
  #     hydro 3 p 16
  #     hydro 2 s 17.2
  
  -----------------------------------------------------------------------
  Completed first pass over input file control.in .
  -----------------------------------------------------------------------
  
  
  -----------------------------------------------------------------------
  Parsing geometry.in (first pass over file, find array dimensions only).
  The contents of geometry.in will be repeated verbatim below
  unless switched off by setting 'verbatim_writeout .false.' .
  in the first line of geometry.in .
  -----------------------------------------------------------------------
  
  #=======================================================
  # FHI-aims file: /ada/ptmp/mpsd/alewis/bulk_water/qmdata/data/geoms/106.in
  # Created using the Atomic Simulation Environment (ASE)
  # Tue Feb 21 11:23:37 2023
  #=======================================================
  lattice_vector 10.1071200000000001 0.0000000000000000 0.0000000000000000
  lattice_vector 0.0000000000000000 10.1071200000000001 0.0000000000000000
  lattice_vector 0.0000000000000000 0.0000000000000000 10.1071200000000001
  atom 29.0853000000000002 9.2424199999999992 7.3630800000000001 O
  atom 28.5968000000000018 8.4486000000000008 7.2834000000000003 H
  atom 28.3919999999999995 9.9100999999999999 7.0048199999999996 H
  atom 10.7867999999999995 22.6478000000000002 -7.6342100000000004 O
  atom 10.4059000000000008 23.4353000000000016 -7.7854400000000004 H
  atom 10.7990999999999993 22.2545999999999999 -8.5267099999999996 H
  atom -15.7315000000000005 3.5009100000000002 14.2964000000000002 O
  atom -15.4636999999999993 2.6668799999999999 13.8117000000000001 H
  atom -15.7081000000000000 4.1934399999999998 13.6438000000000006 H
  atom -14.3314000000000004 3.0635300000000001 0.4553160000000000 O
  atom -15.1486000000000001 2.8497200000000000 -0.3702630000000000 H
  atom -14.5246999999999993 2.6235499999999998 1.3481600000000000 H
  atom -11.6904000000000003 -9.6766100000000002 23.3028000000000013 O
  atom -11.1123999999999992 -8.7748200000000001 23.1675000000000004 H
  atom -11.9610000000000003 -9.6054200000000005 24.1718000000000011 H
  atom -4.3007400000000002 1.3346400000000000 12.8242999999999991 O
  atom -3.3499900000000000 0.8147900000000000 12.8102000000000000 H
  atom -4.9542000000000002 0.6189120000000000 12.7332999999999998 H
  atom 15.6745000000000001 -12.6068999999999996 -9.3742500000000000 O
  atom 15.0699000000000005 -12.6865000000000006 -10.2627000000000006 H
  atom 16.4904000000000011 -12.4507999999999992 -9.7579499999999992 H
  atom -20.0329000000000015 3.6191100000000000 -10.9457000000000004 O
  atom -19.4773999999999994 3.7494200000000002 -11.7132000000000005 H
  atom -19.4989999999999988 3.1920600000000001 -10.2645000000000000 H
  atom 0.6898400000000000 17.5228000000000002 1.5832400000000000 O
  atom 0.9342810000000000 18.2688999999999986 2.0854499999999998 H
  atom -0.1394110000000000 17.8415999999999997 1.1795500000000001 H
  atom 5.4882400000000002 3.4736799999999999 6.7653900000000000 O
  atom 5.2336999999999998 3.4361700000000002 5.8825500000000002 H
  atom 6.4250200000000000 3.9455600000000000 6.4866400000000004 H
  atom 3.9752700000000001 -7.7332900000000002 8.5860599999999998 O
  atom 4.3427100000000003 -7.6628200000000000 7.6916599999999997 H
  atom 3.5224299999999999 -6.9464199999999998 8.7265599999999992 H
  atom 10.2932000000000006 -2.0125400000000000 25.2430999999999983 O
  atom 10.9362999999999992 -1.3124800000000001 25.2256000000000000 H
  atom 10.3064000000000000 -2.2118099999999998 26.0122000000000000 H
  atom -2.8155700000000001 7.5759600000000002 -15.7195999999999998 O
  atom -2.6717200000000001 6.8068600000000004 -16.4724000000000004 H
  atom -1.9306399999999999 8.1072000000000006 -15.5595999999999997 H
  atom -2.6683400000000002 0.8992810000000000 -4.4863700000000000 O
  atom -2.8941100000000000 1.7493099999999999 -4.1312699999999998 H
  atom -3.4313699999999998 0.3087040000000000 -4.3522100000000004 H
  atom 4.4697300000000002 -2.5917900000000000 -2.0182699999999998 O
  atom 4.0324999999999998 -3.5213899999999998 -2.2561200000000001 H
  atom 5.3953899999999999 -2.8723999999999998 -2.4218799999999998 H
  atom -10.0528999999999993 2.5589599999999999 5.5135199999999998 O
  atom -9.8294800000000002 1.8754500000000001 6.0698400000000001 H
  atom -10.0117999999999991 2.4206400000000001 4.6228499999999997 H
  atom -9.2512699999999999 6.7343299999999999 8.6134400000000007 O
  atom -10.2468000000000004 6.7579099999999999 8.6998700000000007 H
  atom -8.9578100000000003 7.2703499999999996 9.3584899999999998 H
  atom 13.1417999999999999 -4.7404200000000003 28.5944000000000003 O
  atom 12.3323999999999998 -4.2890199999999998 29.0491999999999990 H
  atom 13.0576000000000008 -5.1205200000000000 27.7920000000000016 H
  atom 0.9779800000000000 11.1890000000000001 0.1269250000000000 O
  atom 0.6648200000000000 11.2777999999999992 -0.6798729999999999 H
  atom 1.8471800000000000 10.7402999999999995 -0.0909050000000000 H
  atom -0.3500920000000000 4.9064199999999998 -8.2578700000000005 O
  atom 0.0975730000000000 5.7510000000000003 -8.3504600000000000 H
  atom -0.3551630000000000 4.6930899999999998 -9.2736400000000003 H
  atom 25.6681999999999988 9.0220900000000004 15.8942999999999994 O
  atom 25.2834000000000003 8.3808900000000008 16.4512000000000000 H
  atom 26.3312999999999988 8.2200600000000001 15.6623999999999999 H
  atom 4.3034999999999997 19.1270999999999987 3.2582800000000001 O
  atom 4.7404099999999998 18.9741999999999997 4.2013400000000001 H
  atom 4.5245899999999999 18.5019999999999989 2.5131000000000001 H
  atom 8.3333399999999997 18.7268000000000008 10.8478999999999992 O
  atom 8.3450299999999995 18.9529999999999994 9.8582400000000003 H
  atom 8.1632999999999996 19.5957000000000008 11.2951999999999995 H
  atom 2.8696100000000002 -10.4428000000000001 -1.2407200000000000 O
  atom 3.4591200000000000 -9.6976300000000002 -1.6359500000000000 H
  atom 3.4954800000000001 -11.1920999999999999 -1.4789500000000000 H
  atom 0.9223440000000001 0.8127900000000000 -2.7514099999999999 O
  atom 1.6035900000000001 0.2128000000000000 -2.3930199999999999 H
  atom 0.3315560000000000 0.0521540000000000 -2.8100100000000001 H
  atom 2.2214000000000000 4.1261299999999999 5.7278599999999997 O
  atom 1.3609199999999999 3.7564099999999998 5.5971399999999996 H
  atom 2.6125300000000000 3.7893300000000001 5.0002899999999997 H
  atom -8.3748100000000001 -0.2341160000000000 23.4588999999999999 O
  atom -7.6179500000000004 -0.5796140000000000 23.2796999999999983 H
  atom -8.6702800000000000 0.4377670000000000 22.9083000000000006 H
  atom 8.1436100000000007 4.4201600000000001 5.8246700000000002 O
  atom 8.1224500000000006 4.8786600000000000 4.9825299999999997 H
  atom 9.0117999999999991 3.8512200000000001 5.8482000000000003 H
  atom 17.1807000000000016 16.9532999999999987 7.3284399999999996 O
  atom 17.0696000000000012 16.3835000000000015 7.9768200000000000 H
  atom 17.5923000000000016 16.4273999999999987 6.5618299999999996 H
  atom 7.7250399999999999 4.9940100000000003 -0.4991960000000000 O
  atom 7.0367899999999999 4.2159899999999997 -0.1599750000000000 H
  atom 8.4675700000000003 4.5292500000000002 -0.9359020000000000 H
  atom 17.5199999999999996 15.3667999999999996 3.2198099999999998 O
  atom 16.7737000000000016 15.1960999999999995 2.7232699999999999 H
  atom 18.2315000000000005 15.4609000000000005 2.7222000000000000 H
  atom 4.7737400000000001 5.1527900000000004 -8.2262699999999995 O
  atom 4.9637700000000002 6.0648099999999996 -8.5579000000000001 H
  atom 4.9767400000000004 4.4427500000000002 -8.7319800000000001 H
  
  -----------------------------------------------------------------------
  Completed first pass over input file geometry.in .
  -----------------------------------------------------------------------
  

  Basic array size parameters:
  | Number of species                 :        2
  | Number of atoms                   :       96
  | Number of lattice vectors         :        3
  | Max. basis fn. angular momentum   :        2
  | Max. atomic/ionic basis occupied n:        2
  | Max. number of basis fn. types    :        2
  | Max. radial fns per species/type  :        3
  | Max. logarithmic grid size        :     1301
  | Max. radial integration grid size :       36
  | Max. angular integration grid size:      302
  | Max. angular grid division number :        8
  | Radial grid for Hartree potential :     1301
  | Number of spin channels           :        1

------------------------------------------------------------
          Reading file control.in.
------------------------------------------------------------
  XC: Using Perdew-Wang parametrisation of Ceperley-Alder LDA.
  Spin treatment: No spin polarisation.
  Non-relativistic treatment of kinetic energy.
  Charge =   0.000000E+00: Neutral system requested explicitly.
  DFPT calculation will begin after the DFT/HF calculation.
  Convergence accuracy of self-consistent charge density:  0.1000E-05
  Found k-point grid:         1         1         1
  Threshold value for wave function integration:  0.1000E-07
 
  Reading configuration options for species H                   .
  | Found nuclear charge :   1.0000
  | Found atomic mass :    1.00794000000000      amu
  | Found l_max for Hartree potential  :   4
  | Found cutoff potl. onset [A], width [A], scale factor :    3.50000    1.50000    1.00000
  | Threshold for basis-dependent cutoff potential is   0.100000E-03
  | Found data for basic radial integration grid :    24 points, outermost radius =    5.000 A
  | Found multiplier for basic radial grid :   1
  | Found angular grid specification: user-specified.
  | Specified grid contains     5 separate shells.
  | Check grid settings after all constraints further below.
  | Found free-atom valence shell :  1 s   1.000
  | No ionic wave fns used. Skipping ion_occ.
  | Found hydrogenic basis function :  2 s   2.100
  | Found hydrogenic basis function :  2 p   3.500
  Species H                   : Missing cutoff potential type.
  Defaulting to exp(1/x)/(1-x)^2 type cutoff potential.
  Species H : No 'logarithmic' tag. Using default grid for free atom:
  | Default logarithmic grid data [bohr] : 0.1000E-03 0.1000E+03 0.1012E+01
  Species H : On-site basis accuracy parameter (for Gram-Schmidt orthonormalisation) not specified.
  Using default value basis_acc =  0.1000000E-03.
  Species H                   : Using default innermost maximum threshold i_radial=  2 for radial functions.
  Species H                   : Default cutoff onset for free atom density etc. : 0.35000000E+01 AA.
  Species H                   : Basic radial grid will be enhanced according to radial_multiplier =   1, to contain    24 grid points.
 
  Reading configuration options for species O                   .
  | Found nuclear charge :   8.0000
  | Found atomic mass :    15.9994000000000      amu
  | Found l_max for Hartree potential  :   4
  | Found cutoff potl. onset [A], width [A], scale factor :    3.50000    1.50000    1.00000
  | Threshold for basis-dependent cutoff potential is   0.100000E-03
  | Found data for basic radial integration grid :    36 points, outermost radius =    5.000 A
  | Found multiplier for basic radial grid :   1
  | Found angular grid specification: user-specified.
  | Specified grid contains     5 separate shells.
  | Check grid settings after all constraints further below.
  | Found free-atom valence shell :  2 s   2.000
  | Found free-atom valence shell :  2 p   4.000
  | No ionic wave fns used. Skipping ion_occ.
  | No ionic wave fns used. Skipping ion_occ.
  | Found hydrogenic basis function :  2 p   1.800
  | Found hydrogenic basis function :  3 d   7.600
  | Found hydrogenic basis function :  3 s   6.400
  Species O                   : Missing cutoff potential type.
  Defaulting to exp(1/x)/(1-x)^2 type cutoff potential.
  Species O : No 'logarithmic' tag. Using default grid for free atom:
  | Default logarithmic grid data [bohr] : 0.1000E-03 0.1000E+03 0.1012E+01
  Species O : On-site basis accuracy parameter (for Gram-Schmidt orthonormalisation) not specified.
  Using default value basis_acc =  0.1000000E-03.
  Species O                   : Using default innermost maximum threshold i_radial=  2 for radial functions.
  Species O                   : Default cutoff onset for free atom density etc. : 0.35000000E+01 AA.
  Species O                   : Basic radial grid will be enhanced according to radial_multiplier =   1, to contain    36 grid points.
 
  Finished reading input file 'control.in'.
 
------------------------------------------------------------


------------------------------------------------------------
          Reading geometry description geometry.in.
------------------------------------------------------------
  | The smallest distance between any two atoms is         0.79460530 AA.
  | The first atom of this pair is atom number                     36 .
  | The second atom of this pair is atom number                    34 .
  | Wigner-Seitz cell of the first atom image           0     0     1 .
  | (The Wigner-Seitz cell of the second atom is 0 0 0  by definition.)

  Symmetry information by spglib:
  | Precision set to  0.1E-04
  | Number of Operations  : 1
  | Space group           : 1
  | International         : P1
  | Schoenflies           : C1^1
  Input structure read successfully.
  The structure contains       96 atoms,  and a total of        320.000 electrons.

  Input geometry:
  | Unit cell:
  |       10.10712000        0.00000000        0.00000000
  |        0.00000000       10.10712000        0.00000000
  |        0.00000000        0.00000000       10.10712000
  | Atomic structure:
  |       Atom                x [A]            y [A]            z [A]
  |    1: Species O            29.08530000        9.24242000        7.36308000
  |    2: Species H            28.59680000        8.44860000        7.28340000
  |    3: Species H            28.39200000        9.91010000        7.00482000
  |    4: Species O            10.78680000       22.64780000       -7.63421000
  |    5: Species H            10.40590000       23.43530000       -7.78544000
  |    6: Species H            10.79910000       22.25460000       -8.52671000
  |    7: Species O           -15.73150000        3.50091000       14.29640000
  |    8: Species H           -15.46370000        2.66688000       13.81170000
  |    9: Species H           -15.70810000        4.19344000       13.64380000
  |   10: Species O           -14.33140000        3.06353000        0.45531600
  |   11: Species H           -15.14860000        2.84972000       -0.37026300
  |   12: Species H           -14.52470000        2.62355000        1.34816000
  |   13: Species O           -11.69040000       -9.67661000       23.30280000
  |   14: Species H           -11.11240000       -8.77482000       23.16750000
  |   15: Species H           -11.96100000       -9.60542000       24.17180000
  |   16: Species O            -4.30074000        1.33464000       12.82430000
  |   17: Species H            -3.34999000        0.81479000       12.81020000
  |   18: Species H            -4.95420000        0.61891200       12.73330000
  |   19: Species O            15.67450000      -12.60690000       -9.37425000
  |   20: Species H            15.06990000      -12.68650000      -10.26270000
  |   21: Species H            16.49040000      -12.45080000       -9.75795000
  |   22: Species O           -20.03290000        3.61911000      -10.94570000
  |   23: Species H           -19.47740000        3.74942000      -11.71320000
  |   24: Species H           -19.49900000        3.19206000      -10.26450000
  |   25: Species O             0.68984000       17.52280000        1.58324000
  |   26: Species H             0.93428100       18.26890000        2.08545000
  |   27: Species H            -0.13941100       17.84160000        1.17955000
  |   28: Species O             5.48824000        3.47368000        6.76539000
  |   29: Species H             5.23370000        3.43617000        5.88255000
  |   30: Species H             6.42502000        3.94556000        6.48664000
  |   31: Species O             3.97527000       -7.73329000        8.58606000
  |   32: Species H             4.34271000       -7.66282000        7.69166000
  |   33: Species H             3.52243000       -6.94642000        8.72656000
  |   34: Species O            10.29320000       -2.01254000       25.24310000
  |   35: Species H            10.93630000       -1.31248000       25.22560000
  |   36: Species H            10.30640000       -2.21181000       26.01220000
  |   37: Species O            -2.81557000        7.57596000      -15.71960000
  |   38: Species H            -2.67172000        6.80686000      -16.47240000
  |   39: Species H            -1.93064000        8.10720000      -15.55960000
  |   40: Species O            -2.66834000        0.89928100       -4.48637000
  |   41: Species H            -2.89411000        1.74931000       -4.13127000
  |   42: Species H            -3.43137000        0.30870400       -4.35221000
  |   43: Species O             4.46973000       -2.59179000       -2.01827000
  |   44: Species H             4.03250000       -3.52139000       -2.25612000
  |   45: Species H             5.39539000       -2.87240000       -2.42188000
  |   46: Species O           -10.05290000        2.55896000        5.51352000
  |   47: Species H            -9.82948000        1.87545000        6.06984000
  |   48: Species H           -10.01180000        2.42064000        4.62285000
  |   49: Species O            -9.25127000        6.73433000        8.61344000
  |   50: Species H           -10.24680000        6.75791000        8.69987000
  |   51: Species H            -8.95781000        7.27035000        9.35849000
  |   52: Species O            13.14180000       -4.74042000       28.59440000
  |   53: Species H            12.33240000       -4.28902000       29.04920000
  |   54: Species H            13.05760000       -5.12052000       27.79200000
  |   55: Species O             0.97798000       11.18900000        0.12692500
  |   56: Species H             0.66482000       11.27780000       -0.67987300
  |   57: Species H             1.84718000       10.74030000       -0.09090500
  |   58: Species O            -0.35009200        4.90642000       -8.25787000
  |   59: Species H             0.09757300        5.75100000       -8.35046000
  |   60: Species H            -0.35516300        4.69309000       -9.27364000
  |   61: Species O            25.66820000        9.02209000       15.89430000
  |   62: Species H            25.28340000        8.38089000       16.45120000
  |   63: Species H            26.33130000        8.22006000       15.66240000
  |   64: Species O             4.30350000       19.12710000        3.25828000
  |   65: Species H             4.74041000       18.97420000        4.20134000
  |   66: Species H             4.52459000       18.50200000        2.51310000
  |   67: Species O             8.33334000       18.72680000       10.84790000
  |   68: Species H             8.34503000       18.95300000        9.85824000
  |   69: Species H             8.16330000       19.59570000       11.29520000
  |   70: Species O             2.86961000      -10.44280000       -1.24072000
  |   71: Species H             3.45912000       -9.69763000       -1.63595000
  |   72: Species H             3.49548000      -11.19210000       -1.47895000
  |   73: Species O             0.92234400        0.81279000       -2.75141000
  |   74: Species H             1.60359000        0.21280000       -2.39302000
  |   75: Species H             0.33155600        0.05215400       -2.81001000
  |   76: Species O             2.22140000        4.12613000        5.72786000
  |   77: Species H             1.36092000        3.75641000        5.59714000
  |   78: Species H             2.61253000        3.78933000        5.00029000
  |   79: Species O            -8.37481000       -0.23411600       23.45890000
  |   80: Species H            -7.61795000       -0.57961400       23.27970000
  |   81: Species H            -8.67028000        0.43776700       22.90830000
  |   82: Species O             8.14361000        4.42016000        5.82467000
  |   83: Species H             8.12245000        4.87866000        4.98253000
  |   84: Species H             9.01180000        3.85122000        5.84820000
  |   85: Species O            17.18070000       16.95330000        7.32844000
  |   86: Species H            17.06960000       16.38350000        7.97682000
  |   87: Species H            17.59230000       16.42740000        6.56183000
  |   88: Species O             7.72504000        4.99401000       -0.49919600
  |   89: Species H             7.03679000        4.21599000       -0.15997500
  |   90: Species H             8.46757000        4.52925000       -0.93590200
  |   91: Species O            17.52000000       15.36680000        3.21981000
  |   92: Species H            16.77370000       15.19610000        2.72327000
  |   93: Species H            18.23150000       15.46090000        2.72220000
  |   94: Species O             4.77374000        5.15279000       -8.22627000
  |   95: Species H             4.96377000        6.06481000       -8.55790000
  |   96: Species H             4.97674000        4.44275000       -8.73198000

  Lattice parameters for 3D lattice (in Angstroms) :    10.107120   10.107120   10.107120
  Angle(s) between unit vectors (in degrees)       :    90.000000   90.000000   90.000000


  Quantities derived from the lattice vectors (in Angstrom^-1):
  | Reciprocal lattice vector 1:  0.621659  0.000000  0.000000
  | Reciprocal lattice vector 2:  0.000000  0.621659  0.000000
  | Reciprocal lattice vector 3:  0.000000  0.000000  0.621659
  | Unit cell volume                               :   0.103248E+04  Angstrom^3

  Fractional coordinates:
                         L1                L2                L3
       atom_frac         2.87770403        0.91444645        0.72850426  O
       atom_frac         2.82937177        0.83590578        0.72062071  H
       atom_frac         2.80910883        0.98050681        0.69305796  H
       atom_frac         1.06724764        2.24077680       -0.75532991  O
       atom_frac         1.02956134        2.31869217       -0.77029263  H
       atom_frac         1.06846461        2.20187353       -0.84363399  H
       atom_frac        -1.55647702        0.34638057        1.41448800  O
       atom_frac        -1.52998085        0.26386152        1.36653171  H
       atom_frac        -1.55416182        0.41489960        1.34991966  H
       atom_frac        -1.41795091        0.30310613        0.04504903  O
       atom_frac        -1.49880480        0.28195173       -0.03663388  H
       atom_frac        -1.43707604        0.25957444        0.13338716  H
       atom_frac        -1.15664997       -0.95740527        2.30558260  O
       atom_frac        -1.09946256       -0.86818203        2.29219600  H
       atom_frac        -1.18342317       -0.95036173        2.39156159  H
       atom_frac        -0.42551587        0.13204949        1.26883821  O
       atom_frac        -0.33144852        0.08061545        1.26744315  H
       atom_frac        -0.49016931        0.06123525        1.25983465  H
       atom_frac         1.55083743       -1.24732862       -0.92748973  O
       atom_frac         1.49101821       -1.25520425       -1.01539311  H
       atom_frac         1.63156270       -1.23188406       -0.96545307  H
       atom_frac        -1.98205819        0.35807530       -1.08296923  O
       atom_frac        -1.92709694        0.37096819       -1.15890580  H
       atom_frac        -1.92923404        0.31582291       -1.01557120  H
       atom_frac         0.06825288        1.73370851        0.15664601  O
       atom_frac         0.09243791        1.80752776        0.20633474  H
       atom_frac        -0.01379335        1.76525064        0.11670486  H
       atom_frac         0.54300731        0.34368643        0.66936872  O
       atom_frac         0.51782308        0.33997519        0.58202040  H
       atom_frac         0.63569246        0.39037431        0.64178915  H
       atom_frac         0.39331382       -0.76513290        0.84950609  O
       atom_frac         0.42966839       -0.75816058        0.76101402  H
       atom_frac         0.34850976       -0.68727986        0.86340718  H
       atom_frac         1.01841078       -0.19912102        2.49755618  O
       atom_frac         1.08203920       -0.12985697        2.49582473  H
       atom_frac         1.01971679       -0.21883682        2.57365105  H
       atom_frac        -0.27857293        0.74956664       -1.55529963  O
       atom_frac        -0.26434039        0.67347177       -1.62978178  H
       atom_frac        -0.19101782        0.80212761       -1.53946921  H
       atom_frac        -0.26400597        0.08897500       -0.44388213  O
       atom_frac        -0.28634369        0.17307700       -0.40874849  H
       atom_frac        -0.33950027        0.03054322       -0.43060832  H
       atom_frac         0.44223577       -0.25643210       -0.19968794  O
       atom_frac         0.39897617       -0.34840687       -0.22322086  H
       atom_frac         0.53382071       -0.28419570       -0.23962118  H
       atom_frac        -0.99463546        0.25318389        0.54550851  O
       atom_frac        -0.97253026        0.18555731        0.60055090  H
       atom_frac        -0.99056902        0.23949849        0.45738549  H
       atom_frac        -0.91532207        0.66629564        0.85221507  O
       atom_frac        -1.01381996        0.66862865        0.86076647  H
       atom_frac        -0.88628709        0.71932954        0.92593043  H
       atom_frac         1.30025170       -0.46901788        2.82913431  O
       atom_frac         1.22016954       -0.42435630        2.87413229  H
       atom_frac         1.29192094       -0.50662503        2.74974473  H
       atom_frac         0.09676149        1.10704137        0.01255798  O
       atom_frac         0.06577739        1.11582726       -0.06726674  H
       atom_frac         0.18276027        1.06264693       -0.00899415  H
       atom_frac        -0.03463816        0.48544195       -0.81703492  O
       atom_frac         0.00965389        0.56900482       -0.82619579  H
       atom_frac        -0.03513988        0.46433504       -0.91753536  H
       atom_frac         2.53961564        0.89264697        1.57258448  O
       atom_frac         2.50154347        0.82920654        1.62768425  H
       atom_frac         2.60522285        0.81329399        1.54964025  H
       atom_frac         0.42578895        1.89243820        0.32237472  O
       atom_frac         0.46901689        1.87731025        0.41568122  H
       atom_frac         0.44766363        1.83059071        0.24864650  H
       atom_frac         0.82450194        1.85283246        1.07329289  O
       atom_frac         0.82565855        1.87521272        0.97537577  H
       atom_frac         0.80767815        1.93880156        1.11754882  H
       atom_frac         0.28391965       -1.03321223       -0.12275703  O
       atom_frac         0.34224586       -0.95948500       -0.16186114  H
       atom_frac         0.34584333       -1.10734809       -0.14632754  H
       atom_frac         0.09125686        0.08041757       -0.27222493  O
       atom_frac         0.15865944        0.02105446       -0.23676577  H
       atom_frac         0.03280420        0.00516012       -0.27802282  H
       atom_frac         0.21978566        0.40823993        0.56671535  O
       atom_frac         0.13464963        0.37165978        0.55378189  H
       atom_frac         0.25848412        0.37491689        0.49472946  H
       atom_frac        -0.82860498       -0.02316347        2.32102716  O
       atom_frac        -0.75372114       -0.05734710        2.30329708  H
       atom_frac        -0.85783883        0.04331273        2.26655071  H
       atom_frac         0.80573002        0.43733131        0.57629374  O
       atom_frac         0.80363645        0.48269537        0.49297228  H
       atom_frac         0.89162887        0.38104030        0.57862180  H
       atom_frac         1.69986109        1.67736210        0.72507698  O
       atom_frac         1.68886884        1.62098600        0.78922779  H
       atom_frac         1.74058486        1.62532947        0.64922846  H
       atom_frac         0.76431664        0.49410811       -0.04939053  O
       atom_frac         0.69622108        0.41713070       -0.01582795  H
       atom_frac         0.83778267        0.44812469       -0.09259829  H
       atom_frac         1.73343148        1.52039354        0.31856849  O
       atom_frac         1.65959245        1.50350446        0.26944075  H
       atom_frac         1.80382740        1.52970381        0.26933488  H
       atom_frac         0.47231457        0.50981783       -0.81390841  O
       atom_frac         0.49111616        0.60005323       -0.84671994  H
       atom_frac         0.49239942        0.43956637       -0.86394344  H

 
  Finished reading input file 'geometry.in'.
 

 
  Consistency checks for stacksize environment parameter are next.
 
  | Maximum stacksize for task 0: unlimited
  | Maximum stacksize for task 1: unlimited
  | Maximum stacksize for task 2: unlimited
  | Maximum stacksize for task 3: unlimited
  | Maximum stacksize for task 4: unlimited
  | Maximum stacksize for task 5: unlimited
  | Maximum stacksize for task 6: unlimited
  | Maximum stacksize for task 7: unlimited
  | Maximum stacksize for task 8: unlimited
  | Maximum stacksize for task 9: unlimited
  | Maximum stacksize for task 10: unlimited
  | Maximum stacksize for task 11: unlimited
  | Maximum stacksize for task 12: unlimited
  | Maximum stacksize for task 13: unlimited
  | Maximum stacksize for task 14: unlimited
  | Maximum stacksize for task 15: unlimited
  | Maximum stacksize for task 16: unlimited
  | Maximum stacksize for task 17: unlimited
  | Current stacksize for task 0: unlimited
  | Current stacksize for task 1: unlimited
  | Current stacksize for task 2: unlimited
  | Current stacksize for task 3: unlimited
  | Current stacksize for task 4: unlimited
  | Current stacksize for task 5: unlimited
  | Current stacksize for task 6: unlimited
  | Current stacksize for task 7: unlimited
  | Current stacksize for task 8: unlimited
  | Current stacksize for task 9: unlimited
  | Current stacksize for task 10: unlimited
  | Current stacksize for task 11: unlimited
  | Current stacksize for task 12: unlimited
  | Current stacksize for task 13: unlimited
  | Current stacksize for task 14: unlimited
  | Current stacksize for task 15: unlimited
  | Current stacksize for task 16: unlimited
  | Current stacksize for task 17: unlimited
 
  Consistency checks for the contents of control.in are next.
 
  MPI_IN_PLACE appears to work with this MPI implementation.
  | Keeping use_mpi_in_place .true. (see manual).
  Explicit treatment of the Coulomb operator is needed, but the RI method is not specified.
  Coulomb operator: Defaulting to 'LVL fast' resolution of identity - RI_type = LVL_fast
  Species H: Using default value for prodbas_acc =   1.000000E-06.
  Species H: Using default value max_l_prodbas =     6.
  Species O: Using default value for prodbas_acc =   1.000000E-06.
  Species O: Using default value max_l_prodbas =     6.
  Target number of points in a grid batch is not set.  Since GPU acceleration is enabled, defaulting to  200
  Method for grid partitioning is not set. Defaulting to parallel hash+maxmin partitioning.
  Batch size limit is not set. Defaulting to    200
  By default, will store active basis functions for each batch.
  If in need of memory, prune_basis_once .false. can be used to disable this option.
  communication_type for Hartree potential was not specified.
  Defaulting to calc_hartree .
  Defaulting to Pulay charge density mixer.
  Pulay mixer: Number of relevant iterations not set.
  Defaulting to    8 iterations.
  Pulay mixer: Number of initial linear mixing iterations not set.
  Defaulting to    0 iterations.
  Work space size for distributed Hartree potential not set.
  Defaulting to   0.200000E+03 MB.
  Mixing parameter for charge density mixing has not been set.
  Using default: charge_mix_param =     0.0500.
  The mixing parameter will be adjusted in iteration number     2 of the first full s.c.f. cycle only.
  Algorithm-dependent basis array size parameters:
  | n_max_pulay                         :        8
  Maximum number of self-consistency iterations not provided.
  Presetting  1000 iterations.
  Presetting      1001 iterations before the initial mixing cycle
  is restarted anyway using the sc_init_iter criterion / keyword.
  Presetting a factor      1.000 between actual scf density residual
  and density convergence criterion sc_accuracy_rho below which sc_init_iter
  takes no effect.
  Calculation of forces was not defined in control.in. No forces will be calculated.
  Geometry relaxation not requested: no relaxation will be performed.
  No accuracy limit for integral partition fn. given. Defaulting to  0.1000E-14.
  No occupation type (smearing scheme) given. Defaulting to Gaussian broadening, width =  0.1000E-01 eV.
  The width will be adjusted in iteration number     2 of the first full s.c.f. cycle only.
  S.C.F. convergence parameters will be adjusted in iteration number     2 of the first full s.c.f. cycle only.
  No accuracy for occupation numbers given. Defaulting to  0.1000E-12.
  No threshold value for occupation numbers given. Defaulting to  0.0000E+00.
  No accuracy for fermi level given. Defaulting to  0.1000E-19.
  Maximum # of iterations to find E_F not set. Defaulting to  200.
  Preferred method for the eigenvalue solver ('KS_method') not specified in 'control.in'.
  Calling BLACS routine to test compilation state
  Since ScaLAPACK support is enabled, defaulting to ELPA (via ELSI).
  Will not use alltoall communication since running on < 1024 CPUs.
  Threshold for basis singularities not set.
  Default threshold for basis singularities:  0.1000E-04
  partition_type (choice of integration weights) for integrals was not specified.
  | Using a version of the partition function of Stratmann and coworkers ('stratmann_sparse').
  | At each grid point, the set of atoms used to build the partition table is smoothly restricted to
  | only those atoms whose free-atom density would be non-zero at that grid point.
  Partitioning for Hartree potential was not defined. Using partition_type for integrals.
  | Adjusted default value of keyword multip_moments_threshold to:       0.10000000E-11
  | This value may affect high angular momentum components of the Hartree potential in periodic systems.
  Angular momentum expansion for Kerker preconditioner not set explicitly.
  | Using default value of   0
  No explicit requirement for turning off preconditioner.
  | By default, it will be turned off when the charge convergence reaches
  | sc_accuracy_rho  =   0.100000E-05
  No special mixing parameter while Kerker preconditioner is on.
  Using default: charge_mix_param =     0.0500.
  Threshold for auxiliary basis singularities not set.
  Default threshold for auxiliary basis singularities:  0.1000E-04
  No q(lm)/r^(l+1) cutoff set for long-range Hartree potential.
  | Using default value of  0.100000E-09 .
  | Verify using the multipole_threshold keyword.
  Defaulting to new monopole extrapolation.
  Density update method: automatic selection selected.
  Using density matrix based charge density update.
  Using density matrix based charge density update.
  Using packed matrix style: index .
  Defaulting to use time-reversal symmetry for k-point grid.
  Charge integration errors on the 3D integration grid will be compensated
  by explicit normalization and distribution of residual charges.
  Use the "compensate_multipole_errors" flag to change this behaviour.
  Default to 1D ("use_logsbt") integrations for auxiliary 2-center integrals.
  Default onset of logarithmic r-grid for SBT is -38.000000000000
  Default onset of logarithmic k-grid for SBT is -25.000000000000
  Default range of logarithmic r- and k-grid for SBT is  45.000000000000
  Default number of logarithmic r- and k-grid for SBT is   4096
  Default of use_2d_corr is to use the efficient 2D distribution where possible
 
  Consistency checks for the contents of geometry.in are next.
 

  Range separation radius for Ewald summation (hartree_convergence_parameter):      3.06543045 bohr.
  Number of empty states per atom not set in control.in .
  | Since you are using a method that relies on the unoccupied spectrum
  | (MP2,GW,RPA et al.), will use the full Hamiltonian size (see below)
  | as the max. possible number of states (occupied plus empty).

  Structure-dependent array size parameters: 
  | Maximum number of distinct radial functions  :        9
  | Maximum number of basis functions            :      768
  | Number of Kohn-Sham states (occupied + empty):      768
------------------------------------------------------------

  Performing system and environment tests:
  | Environment variable OMP_NUM_THREADS correctly set to 1.
  | Checking for ScaLAPACK...
  | Testing pdtran()...
  | All pdtran() tests passed.
CUDA runtime version: 11060
CUDA driver version: 11060
  Initializing GPUs...

  Number of GPUs available to MPI task         0 :   1
  Number of GPUs available to MPI task         1 :   1
  Number of GPUs available to MPI task         2 :   1
  Number of GPUs available to MPI task         3 :   1
  Number of GPUs available to MPI task         4 :   1
  Number of GPUs available to MPI task         5 :   1
  Number of GPUs available to MPI task         6 :   1
  Number of GPUs available to MPI task         7 :   1
  Number of GPUs available to MPI task         8 :   1
  Number of GPUs available to MPI task         9 :   1
  Number of GPUs available to MPI task        10 :   1
  Number of GPUs available to MPI task        11 :   1
  Number of GPUs available to MPI task        12 :   1
  Number of GPUs available to MPI task        13 :   1
  Number of GPUs available to MPI task        14 :   1
  Number of GPUs available to MPI task        15 :   1
  Number of GPUs available to MPI task        16 :   1
  Number of GPUs available to MPI task        17 :   1

  | MPI task         0, GPU activated = T, Device Name = NVIDIA A100-SXM4-80GB
  | MPI task         1, GPU activated = T, Device Name = NVIDIA A100-SXM4-80GB
  | MPI task         2, GPU activated = T, Device Name = NVIDIA A100-SXM4-80GB
  | MPI task         3, GPU activated = T, Device Name = NVIDIA A100-SXM4-80GB
  | MPI task         4, GPU activated = T, Device Name = NVIDIA A100-SXM4-80GB
  | MPI task         5, GPU activated = T, Device Name = NVIDIA A100-SXM4-80GB
  | MPI task         6, GPU activated = T, Device Name = NVIDIA A100-SXM4-80GB
  | MPI task         7, GPU activated = T, Device Name = NVIDIA A100-SXM4-80GB
  | MPI task         8, GPU activated = T, Device Name = NVIDIA A100-SXM4-80GB
  | MPI task         9, GPU activated = T, Device Name = NVIDIA A100-SXM4-80GB
  | MPI task        10, GPU activated = T, Device Name = NVIDIA A100-SXM4-80GB
  | MPI task        11, GPU activated = T, Device Name = NVIDIA A100-SXM4-80GB
  | MPI task        12, GPU activated = T, Device Name = NVIDIA A100-SXM4-80GB
  | MPI task        13, GPU activated = T, Device Name = NVIDIA A100-SXM4-80GB
  | MPI task        14, GPU activated = T, Device Name = NVIDIA A100-SXM4-80GB
  | MPI task        15, GPU activated = T, Device Name = NVIDIA A100-SXM4-80GB
  | MPI task        16, GPU activated = T, Device Name = NVIDIA A100-SXM4-80GB
  | MPI task        17, GPU activated = T, Device Name = NVIDIA A100-SXM4-80GB

------------------------------------------------------------
          Preparing all fixed parts of the calculation.
------------------------------------------------------------
  Determining machine precision:
    2.225073858507201E-308
  Setting up grids for atomic and cluster calculations.

  Creating wave function, potential, and density for free atoms.
  Runtime choices for atomic solver:
  | atomic solver xc        : PW-LDA
  | compute density gradient: 0
  | compute kinetic density : F

  Species: H

  List of occupied orbitals and eigenvalues:
    n    l              occ      energy [Ha]    energy [eV]
    1    0           1.0000        -0.232375        -6.3233


  Species: O

  List of occupied orbitals and eigenvalues:
    n    l              occ      energy [Ha]    energy [eV]
    1    0           2.0000       -18.757744      -510.4242
    2    0           2.0000        -0.870917       -23.6989
    2    1           4.0000        -0.337950        -9.1961


  Adding cutoff potential to free-atom effective potential.
  Creating fixed part of basis set: Ionic, confined, hydrogenic.
 
  H                    hydrogenic:
 
  List of hydrogenic basis orbitals: 
    n    l      effective z      eigenvalue [eV]  inner max. [A]     outer max. [A]     outer radius [A]   
    2    0         2.100000       -14.9728           0.193243           1.317208           4.696947
    2    1         3.500000       -41.6669           0.602369           0.602369           3.862494
 
 
  O                    hydrogenic:
 
  List of hydrogenic basis orbitals: 
    n    l      effective z      eigenvalue [eV]  inner max. [A]     outer max. [A]     outer radius [A]   
    2    1         1.800000       -10.9749           1.164242           1.164242           4.691341
    3    2         7.600000       -87.3180           0.624125           0.624125           3.413946
    3    0         6.400000       -61.9207           0.061167           1.081902           4.151495
 
  Creating atomic-like basis functions for current effective potential.

  Species H                   :

  List of atomic basis orbitals and eigenvalues:
    n    l      energy [Ha]    energy [eV]    outer radius [A]
    1    0        -0.232375        -6.3233       4.696947


  Species O                   :

  List of atomic basis orbitals and eigenvalues:
    n    l      energy [Ha]    energy [eV]    outer radius [A]
    1    0       -18.757744      -510.4242       1.830144
    2    0        -0.870917       -23.6989       4.578029
    2    1        -0.337950        -9.1961       4.634338

  Assembling full basis from fixed parts.
  | Species H :   atomic orbital   1 s accepted.
  | Species H :    hydro orbital   2 s accepted.
  | Species H :    hydro orbital   2 p accepted.
  | Species O :   atomic orbital   1 s accepted.
  | Species O :    hydro orbital   3 s accepted.
  | Species O :   atomic orbital   2 s accepted.
  | Species O :   atomic orbital   2 p accepted.
  | Species O :    hydro orbital   2 p accepted.
  | Species O :    hydro orbital   3 d accepted.
 
  Basis size parameters after reduction:
  | Total number of radial functions:        9
  | Total number of basis functions :      768
 
  Per-task memory consumption for arrays in subroutine allocate_ext:
  |           2.268304MB.
  Testing on-site integration grid accuracy.
  |  Species  Function  <phi|h_atom|phi> (log., in eV)  <phi|h_atom|phi> (rad., in eV)
           1        1                 -6.3245358373                 -6.3232436907
           1        2                 14.1326137532                 14.1384481100
           1        3                 25.3627025200                 25.3628451197
           2        4               -510.4241781764               -510.4240769407
           2        5                 14.9072942213                 14.9072945271
           2        6                -21.2004736474                -21.2005650551
           2        7                 -9.1962086505                 -9.1963509834
           2        8                  8.1896755006                  8.1702200081
           2        9                 45.7920584937                 45.7920228520

  Preparing densities etc. for the partition functions (integrals / Hartree potential).

  Preparations completed.
  max(cpu_time)          :      0.070 s.
  Wall clock time (cpu1) :      0.066 s.
------------------------------------------------------------

  Initializing index lists of integration centers etc. from given atomic structure:
  Mapping all atomic coordinates to central unit cell.

  Initializing the k-points
  Using symmetry for reducing the k-points
  | k-points reduced from:        1 to        1
  | Number of k-points                             :         1
  | Consuming          0 KiB for k_phase_exx.
  The eigenvectors in the calculations are REAL.
  | Number of basis functions in the Hamiltonian integrals :      4268
  | Number of basis functions in a single unit cell        :       768
  | Number of centers in hartree potential         :      2508
  | Number of centers in hartree multipole         :      1818
  | Number of centers in electron density summation:      1409
  | Number of centers in basis integrals           :      1462
  | Number of centers in integrals                 :       660
  | Number of centers in hamiltonian               :      1410
  | Consuming          0 KiB for k_phase.
  | Number of super-cells (origin) [n_cells]                     :         125
  | Number of super-cells (after PM_index) [n_cells]             :          28
  | Number of super-cells in hamiltonian [n_cells_in_hamiltonian]:          28
  | Size of matrix packed + index [n_hamiltonian_matrix_size] :      737262
  | Size of matrix packed + index (no_symmetry):     1473755

------------------------------------------------------------
          Begin self-consistency loop: Initialization.

          Date     :  20230221, Time     :  133518.733
------------------------------------------------------------
  | Estimated reciprocal-space cutoff momentum G_max:         3.07997621 bohr^-1 .
  | Reciprocal lattice points for long-range Hartree potential:    3406
  Using simple linear distribution as default method for k-point parallelism.
  * Using 18 tasks for Scalapack Eigenvalue solver.
  Detailed listing of tasks and assigned k-points:
   Task     0 k-point     1 on adag040
   Task     1 k-point     1 on adag040
   Task     2 k-point     1 on adag040
   Task     3 k-point     1 on adag040
   Task     4 k-point     1 on adag040
   Task     5 k-point     1 on adag040
   Task     6 k-point     1 on adag040
   Task     7 k-point     1 on adag040
   Task     8 k-point     1 on adag040
   Task     9 k-point     1 on adag040
   Task    10 k-point     1 on adag040
   Task    11 k-point     1 on adag040
   Task    12 k-point     1 on adag040
   Task    13 k-point     1 on adag040
   Task    14 k-point     1 on adag040
   Task    15 k-point     1 on adag040
   Task    16 k-point     1 on adag040
   Task    17 k-point     1 on adag040
  K-point:     1 Tasks:    18 split into      6 X      3 BLACS grid
  Calculating block size based on n_basis =          768  max_nprow =            6  max_npcol =            3
  ScaLAPACK block size set to:           16
  Allocating        0.250 MB for ovlp
  Allocating        0.250 MB for ham
  Allocating        0.250 MB for eigenvec
  Required Scalapack workspace - INTEGER:            1  REAL:             1
  Partitioning the integration grid into batches with parallel hashing+maxmin method.
  | Number of batches:     3988
  | Maximal batch size:     200
  | Minimal batch size:      99
  | Average batch size:     127.775
  | Standard deviation of batch sizes:      22.970

  Integration load balanced across    18 MPI tasks.
  Work distribution over tasks is as follows:
  Task     0 has      28321 integration points.
  Task     1 has      28350 integration points.
  Task     2 has      28337 integration points.
  Task     3 has      28275 integration points.
  Task     4 has      28260 integration points.
  Task     5 has      28332 integration points.
  Task     6 has      28292 integration points.
  Task     7 has      28351 integration points.
  Task     8 has      28330 integration points.
  Task     9 has      28377 integration points.
  Task    10 has      28280 integration points.
  Task    11 has      28336 integration points.
  Task    12 has      28286 integration points.
  Task    13 has      28271 integration points.
  Task    14 has      28276 integration points.
  Task    15 has      28286 integration points.
  Task    16 has      28290 integration points.
  Task    17 has      28318 integration points.
  Initializing partition tables, free-atom densities, potentials, etc. across the integration grid (initialize_grid_storage).
  | initialize_grid_storage: Actual outermost partition radius vs. multipole_radius_free
  | (-- VB: in principle, multipole_radius_free should be larger, hence this output)
  | Species        1: Confinement radius =              4.999999999999999 AA, multipole_radius_free =              5.054417573612229 AA.
  | Species        1: outer_partition_radius set to              5.054417573612229 AA .
  | Species        2: Confinement radius =              4.999999999999999 AA, multipole_radius_free =              5.048384829883283 AA.
  | Species        2: outer_partition_radius set to              5.048384829883283 AA .
  | The sparse table of interatomic distances needs       4534.56 kbyte instead of     17099.55 kbyte of memory.
  | Net number of integration points:   509568
  | of which are non-zero points    :   409612
  | Numerical average free-atom electrostatic potential    :     -5.04729902 eV
  Renormalizing the initial density to the exact electron count on the 3D integration grid.
  | Initial density: Formal number of electrons (from input files) :     320.0000000000
  | Integrated number of electrons on 3D grid     :     319.9955948824
  | Charge integration error                      :      -0.0044051176
  | Normalization factor for density and gradient :       1.0000137662
  Renormalizing the free-atom superposition density to the exact electron count on the 3D integration grid.
  | Formal number of electrons (from input files) :     320.0000000000
  | Integrated number of electrons on 3D grid     :     319.9955948824
  | Charge integration error                      :      -0.0044051176
  | Normalization factor for density and gradient :       1.0000137662
  Obtaining max. number of non-zero basis functions in each batch (get_n_compute_maxes).
  | Maximal number of non-zero basis functions:      402 in task     0
  | Maximal number of non-zero basis functions:      389 in task     1
  | Maximal number of non-zero basis functions:      418 in task     2
  | Maximal number of non-zero basis functions:      403 in task     3
  | Maximal number of non-zero basis functions:      403 in task     4
  | Maximal number of non-zero basis functions:      407 in task     5
  | Maximal number of non-zero basis functions:      400 in task     6
  | Maximal number of non-zero basis functions:      388 in task     7
  | Maximal number of non-zero basis functions:      428 in task     8
  | Maximal number of non-zero basis functions:      403 in task     9
  | Maximal number of non-zero basis functions:      395 in task    10
  | Maximal number of non-zero basis functions:      412 in task    11
  | Maximal number of non-zero basis functions:      392 in task    12
  | Maximal number of non-zero basis functions:      409 in task    13
  | Maximal number of non-zero basis functions:      405 in task    14
  | Maximal number of non-zero basis functions:      402 in task    15
  | Maximal number of non-zero basis functions:      396 in task    16
  | Maximal number of non-zero basis functions:      405 in task    17
  Integrating Hamiltonian matrix: batch-based integration.
  GPU acceleration will be used when integrating the Hamiltonian matrix.
  Reporting GPU memory usage by myid 0.  Note that it is likely not the only MPI task binding to its GPU!
  Allocating        1.293 MB on GPU for hamiltonian_shell
  Allocating        0.643 MB on GPU for wave
  Allocating        0.002 MB on GPU for partition
  Allocating        0.643 MB on GPU for h_times_psi
  Time summed over all CPUs for integration: real work        9.222 s, elapsed       10.489 s
  Deallocating memory used on GPU for Hamiltonian integration.
  Integrating overlap matrix.
  Time summed over all CPUs for integration: real work        7.725 s, elapsed        8.645 s
  Deallocating overlap matrix.

  Updating Kohn-Sham eigenvalues and eigenvectors using ELSI and the ELPA eigensolver.
  Singularity check in k-point 1 (analysis for other k-points may follow below):
  Overlap matrix is not singular
  | Lowest and highest eigenvalues :  0.2059E-02,  0.6978E+01
  Finished singularity check of overlap matrix
  | Time :     3.188 s
  Starting ELPA eigensolver (GPU)
  Finished Cholesky decomposition
  | Time :     0.043 s
  Finished transformation to standard eigenproblem
  | Time :     0.748 s
  Finished solving standard eigenproblem
  | Time :     5.363 s
  Finished back-transformation of eigenvectors
  | Time :     0.256 s

  Obtaining occupation numbers and electronic chemical potential using ELSI.
  | Note that, for insulating systems, the printed 'chemical potential' value is not uniquely defined.
  | It can be anywhere in the energy gap, as long as it correctly separates occupied and unoccupied states.
  | In systems with a gap, the physically relevant chemical potential is the VBM or HOMO.

  | Chemical potential (Fermi level):    -5.70469495 eV
  Writing Kohn-Sham eigenvalues.

  State    Occupation    Eigenvalue [Ha]    Eigenvalue [eV]
      1       2.00000         -18.926813         -515.02477
      2       2.00000         -18.914333         -514.68520
      3       2.00000         -18.914123         -514.67947
      4       2.00000         -18.906520         -514.47259
      5       2.00000         -18.894530         -514.14633
      6       2.00000         -18.893110         -514.10767
      7       2.00000         -18.891287         -514.05808
      8       2.00000         -18.890949         -514.04887
      9       2.00000         -18.887663         -513.95947
     10       2.00000         -18.886902         -513.93875
     11       2.00000         -18.882535         -513.81993
     12       2.00000         -18.880423         -513.76245
     13       2.00000         -18.877542         -513.68405
     14       2.00000         -18.876206         -513.64769
     15       2.00000         -18.873707         -513.57969
     16       2.00000         -18.871113         -513.50910
     17       2.00000         -18.870021         -513.47941
     18       2.00000         -18.869917         -513.47657
     19       2.00000         -18.867619         -513.41404
     20       2.00000         -18.867587         -513.41317
     21       2.00000         -18.867237         -513.40363
     22       2.00000         -18.865174         -513.34751
     23       2.00000         -18.863848         -513.31142
     24       2.00000         -18.862553         -513.27619
     25       2.00000         -18.859441         -513.19151
     26       2.00000         -18.857863         -513.14856
     27       2.00000         -18.853793         -513.03781
     28       2.00000         -18.853514         -513.03022
     29       2.00000         -18.848587         -512.89615
     30       2.00000         -18.846532         -512.84022
     31       2.00000         -18.841603         -512.70610
     32       2.00000         -18.837196         -512.58619
     33       2.00000          -1.192989          -32.46288
     34       2.00000          -1.164786          -31.69543
     35       2.00000          -1.160813          -31.58733
     36       2.00000          -1.153016          -31.37517
     37       2.00000          -1.144639          -31.14720
     38       2.00000          -1.139850          -31.01689
     39       2.00000          -1.134907          -30.88239
     40       2.00000          -1.134105          -30.86056
     41       2.00000          -1.128995          -30.72153
     42       2.00000          -1.120181          -30.48168
     43       2.00000          -1.118776          -30.44345
     44       2.00000          -1.116370          -30.37797
     45       2.00000          -1.116139          -30.37169
     46       2.00000          -1.113620          -30.30315
     47       2.00000          -1.106661          -30.11378
     48       2.00000          -1.106232          -30.10210
     49       2.00000          -1.102228          -29.99314
     50       2.00000          -1.098054          -29.87957
     51       2.00000          -1.095820          -29.81878
     52       2.00000          -1.095139          -29.80025
     53       2.00000          -1.094747          -29.78959
     54       2.00000          -1.092364          -29.72475
     55       2.00000          -1.089885          -29.65728
     56       2.00000          -1.082485          -29.45591
     57       2.00000          -1.079460          -29.37360
     58       2.00000          -1.077724          -29.32637
     59       2.00000          -1.070990          -29.14311
     60       2.00000          -1.061090          -28.87372
     61       2.00000          -1.060657          -28.86194
     62       2.00000          -1.059223          -28.82294
     63       2.00000          -1.044091          -28.41115
     64       2.00000          -1.035541          -28.17850
     65       2.00000          -0.731139          -19.89531
     66       2.00000          -0.722223          -19.65268
     67       2.00000          -0.720598          -19.60847
     68       2.00000          -0.706573          -19.22684
     69       2.00000          -0.692701          -18.84935
     70       2.00000          -0.685958          -18.66586
     71       2.00000          -0.676522          -18.40910
     72       2.00000          -0.672342          -18.29535
     73       2.00000          -0.670473          -18.24449
     74       2.00000          -0.668927          -18.20242
     75       2.00000          -0.665028          -18.09633
     76       2.00000          -0.662660          -18.03190
     77       2.00000          -0.655799          -17.84519
     78       2.00000          -0.651912          -17.73943
     79       2.00000          -0.644377          -17.53439
     80       2.00000          -0.641193          -17.44775
     81       2.00000          -0.639282          -17.39575
     82       2.00000          -0.637603          -17.35006
     83       2.00000          -0.631992          -17.19737
     84       2.00000          -0.631306          -17.17870
     85       2.00000          -0.624060          -16.98154
     86       2.00000          -0.621755          -16.91881
     87       2.00000          -0.618601          -16.83300
     88       2.00000          -0.617184          -16.79443
     89       2.00000          -0.615105          -16.73787
     90       2.00000          -0.611823          -16.64856
     91       2.00000          -0.609874          -16.59550
     92       2.00000          -0.607181          -16.52223
     93       2.00000          -0.603814          -16.43062
     94       2.00000          -0.601534          -16.36857
     95       2.00000          -0.595787          -16.21219
     96       2.00000          -0.590142          -16.05857
     97       2.00000          -0.572143          -15.56880
     98       2.00000          -0.568698          -15.47506
     99       2.00000          -0.568101          -15.45883
    100       2.00000          -0.564979          -15.37387
    101       2.00000          -0.560877          -15.26224
    102       2.00000          -0.558880          -15.20789
    103       2.00000          -0.554637          -15.09244
    104       2.00000          -0.550813          -14.98838
    105       2.00000          -0.549302          -14.94728
    106       2.00000          -0.544102          -14.80577
    107       2.00000          -0.542419          -14.75996
    108       2.00000          -0.541107          -14.72427
    109       2.00000          -0.539426          -14.67852
    110       2.00000          -0.537059          -14.61413
    111       2.00000          -0.535859          -14.58146
    112       2.00000          -0.534533          -14.54540
    113       2.00000          -0.531659          -14.46717
    114       2.00000          -0.528553          -14.38265
    115       2.00000          -0.526965          -14.33946
    116       2.00000          -0.525828          -14.30852
    117       2.00000          -0.522921          -14.22941
    118       2.00000          -0.519527          -14.13705
    119       2.00000          -0.514195          -13.99196
    120       2.00000          -0.513066          -13.96123
    121       2.00000          -0.510054          -13.87928
    122       2.00000          -0.509056          -13.85212
    123       2.00000          -0.505464          -13.75436
    124       2.00000          -0.504054          -13.71601
    125       2.00000          -0.500181          -13.61063
    126       2.00000          -0.495502          -13.48330
    127       2.00000          -0.494027          -13.44315
    128       2.00000          -0.492188          -13.39312
    129       2.00000          -0.485274          -13.20498
    130       2.00000          -0.482978          -13.14250
    131       2.00000          -0.482534          -13.13042
    132       2.00000          -0.475176          -12.93019
    133       2.00000          -0.474486          -12.91143
    134       2.00000          -0.471017          -12.81702
    135       2.00000          -0.470433          -12.80113
    136       2.00000          -0.469747          -12.78248
    137       2.00000          -0.467986          -12.73456
    138       2.00000          -0.466098          -12.68318
    139       2.00000          -0.464120          -12.62934
    140       2.00000          -0.462929          -12.59695
    141       2.00000          -0.460953          -12.54318
    142       2.00000          -0.458513          -12.47677
    143       2.00000          -0.457576          -12.45128
    144       2.00000          -0.456595          -12.42457
    145       2.00000          -0.455599          -12.39747
    146       2.00000          -0.455273          -12.38861
    147       2.00000          -0.453328          -12.33568
    148       2.00000          -0.452274          -12.30700
    149       2.00000          -0.451288          -12.28016
    150       2.00000          -0.450760          -12.26580
    151       2.00000          -0.449982          -12.24462
    152       2.00000          -0.448371          -12.20080
    153       2.00000          -0.446984          -12.16305
    154       2.00000          -0.445916          -12.13400
    155       2.00000          -0.445253          -12.11596
    156       2.00000          -0.439796          -11.96746
    157       2.00000          -0.439468          -11.95854
    158       2.00000          -0.433755          -11.80306
    159       2.00000          -0.430376          -11.71114
    160       2.00000          -0.428923          -11.67160
    161       0.00000          -0.170984           -4.65270
    162       0.00000          -0.115798           -3.15101
    163       0.00000          -0.115090           -3.13176
    164       0.00000          -0.111778           -3.04163
    165       0.00000          -0.108064           -2.94058
    166       0.00000          -0.100427           -2.73276
    167       0.00000          -0.086669           -2.35840
    168       0.00000          -0.075928           -2.06611
    169       0.00000          -0.071001           -1.93205
    170       0.00000          -0.063156           -1.71855
    171       0.00000          -0.062348           -1.69659
    172       0.00000          -0.058505           -1.59200
    173       0.00000          -0.056960           -1.54997
    174       0.00000          -0.051780           -1.40900
    175       0.00000          -0.046858           -1.27506
    176       0.00000          -0.044037           -1.19832
    177       0.00000          -0.035856           -0.97570
    178       0.00000          -0.030968           -0.84268
    179       0.00000          -0.022827           -0.62116
    180       0.00000          -0.018630           -0.50694
    181       0.00000          -0.014665           -0.39907
    182       0.00000          -0.002908           -0.07912
    183       0.00000          -0.000155           -0.00421
    184       0.00000           0.000954            0.02595
    185       0.00000           0.006047            0.16454
    186       0.00000           0.014877            0.40484
    187       0.00000           0.017235            0.46898
    188       0.00000           0.022824            0.62108
    189       0.00000           0.025598            0.69655
    190       0.00000           0.031037            0.84457
    191       0.00000           0.036688            0.99832
    192       0.00000           0.038672            1.05233
    193       0.00000           0.040508            1.10227
    194       0.00000           0.042431            1.15460
    195       0.00000           0.044777            1.21845
    196       0.00000           0.049696            1.35229
    197       0.00000           0.051102            1.39055
    198       0.00000           0.055789            1.51810
    199       0.00000           0.056800            1.54561
    200       0.00000           0.060873            1.65645
    201       0.00000           0.062145            1.69106
    202       0.00000           0.065886            1.79284
    203       0.00000           0.069024            1.87823
    204       0.00000           0.070281            1.91245
    205       0.00000           0.071673            1.95031
    206       0.00000           0.075269            2.04817
    207       0.00000           0.076162            2.07247
    208       0.00000           0.077794            2.11690
    209       0.00000           0.080603            2.19333
    210       0.00000           0.085818            2.33524
    211       0.00000           0.088074            2.39661
    212       0.00000           0.089969            2.44819
    213       0.00000           0.092441            2.51545
    214       0.00000           0.097860            2.66291
    215       0.00000           0.100517            2.73520
    216       0.00000           0.104919            2.85498
    217       0.00000           0.112574            3.06329
    218       0.00000           0.114386            3.11259
    219       0.00000           0.116603            3.17292
    220       0.00000           0.122417            3.33112
    221       0.00000           0.123321            3.35574
    222       0.00000           0.125088            3.40383
    223       0.00000           0.126711            3.44798
    224       0.00000           0.130344            3.54683
    225       0.00000           0.140040            3.81067
    226       0.00000           0.144969            3.94481
    227       0.00000           0.156488            4.25826
    228       0.00000           0.158179            4.30428
    229       0.00000           0.169112            4.60178
    230       0.00000           0.170060            4.62756
    231       0.00000           0.177738            4.83649
    232       0.00000           0.180297            4.90612
    233       0.00000           0.182618            4.96928
    234       0.00000           0.189841            5.16583
    235       0.00000           0.197619            5.37748
    236       0.00000           0.201607            5.48602
    237       0.00000           0.208538            5.67462
    238       0.00000           0.210027            5.71512
    239       0.00000           0.215166            5.85497
    240       0.00000           0.215885            5.87452
    241       0.00000           0.221597            6.02995
    242       0.00000           0.229058            6.23298
    243       0.00000           0.241379            6.56826
    244       0.00000           0.247243            6.72781
    245       0.00000           0.253115            6.88761
    246       0.00000           0.258956            7.04655
    247       0.00000           0.264182            7.18875
    248       0.00000           0.270045            7.34829
    249       0.00000           0.275980            7.50979
    250       0.00000           0.280194            7.62446
    251       0.00000           0.289453            7.87642
    252       0.00000           0.293212            7.97871
    253       0.00000           0.295387            8.03789
    254       0.00000           0.297922            8.10687
    255       0.00000           0.308425            8.39267
    256       0.00000           0.317349            8.63551
    257       0.00000           0.322309            8.77048
    258       0.00000           0.329146            8.95653
    259       0.00000           0.332707            9.05343
    260       0.00000           0.336628            9.16010
[...]
  |    H      0     4.527807 A      4.527807 A        1.268855E-16 a.u.
  |    H      0     4.527807 A      4.583499 A       -4.900954E-17 a.u.
  |    H      0     4.527807 A      4.583499 A        4.713786E-16 a.u.
  |    H      2     3.678162 A  2.180220E+05 A            0.556529 a.u.
  |    H      1     3.958095 A  1.721251E+08 A            0.841931 a.u.
  |    H      0     4.527807 A  3.866455E+16 A            0.581436 a.u.
  |    O      0     2.043000 A      2.043000 A       -1.436841E-16 a.u.
  |    O      3     3.498446 A      3.498446 A        3.043453E-17 a.u.
  |    O      3     3.498446 A      3.498446 A        1.541443E-16 a.u.
  |    O      0     3.905335 A      3.905335 A        2.173090E-16 a.u.
  |    O      0     3.905335 A      3.905335 A        7.213445E-17 a.u.
  |    O      0     4.101052 A      4.101052 A        2.361718E-16 a.u.
  |    O      1     4.101052 A      4.101052 A        3.235185E-17 a.u.
  |    O      0     4.359549 A      4.359549 A       -5.329475E-17 a.u.
  |    O      1     4.413171 A      4.413171 A        3.261883E-17 a.u.
  |    O      1     4.522403 A      4.522403 A        6.417997E-16 a.u.
  |    O      1     4.522403 A      4.522403 A        4.224783E-16 a.u.
  |    O      2     4.522403 A      4.522403 A       -4.387647E-16 a.u.
  |    O      0     4.522403 A      4.578029 A        2.602039E-16 a.u.
  |    O      0     4.578029 A      4.578029 A        1.226235E-16 a.u.
  |    O      1     4.578029 A      4.578029 A       -6.107316E-16 a.u.
  |    O      1     4.578029 A      4.578029 A       -2.224438E-16 a.u.
  |    O      2     4.578029 A      4.578029 A       -7.020279E-16 a.u.
  |    O      2     4.522403 A      4.578029 A        1.323470E-15 a.u.
  |    O      2     4.578029 A      4.578029 A        7.923696E-16 a.u.
  |    O      2     4.522403 A      4.578029 A       -9.951815E-16 a.u.
  |    O      0     4.578029 A      4.634338 A       -8.813582E-18 a.u.
  |    O      1     4.578029 A      4.634338 A       -3.325386E-17 a.u.
  |    O      1     4.634338 A      4.634338 A        9.588032E-16 a.u.
  |    O      2     4.578029 A      4.634338 A        1.064715E-17 a.u.
  |    O      2     4.578029 A      4.634338 A       -3.770343E-15 a.u.
  |    O      4     3.251020 A  1.511584E+03 A            1.513372 a.u.
  |    O      3     3.541477 A  1.434166E+04 A            4.293220 a.u.
  |    O      2     4.634338 A  5.584435E+05 A            9.352428 a.u.
  |    O      1     4.634338 A  2.821283E+08 A            2.261940 a.u.
  |    O      0     4.578029 A  4.264100E+16 A            0.641234 a.u.

  | Shrink_full_auxil_basis : there are       38  radial auxiliary wave functions
                            accepted and       5 rejected.
  | Shrink_full_auxil_basis : there are totally                4544 partial auxiliary wave functions.
 
  | Maximal number of product basis functions per thread :   256   256
 
  | Minimal total memory requirement for three-center overlap :      10.450 Gbs
  | Number of local auxiliary basis functions on task:      0   256
  | Number of local auxiliary basis functions on task:      1   256
  | Number of local auxiliary basis functions on task:      2   256
  | Number of local auxiliary basis functions on task:      3   256
  | Number of local auxiliary basis functions on task:      4   256
  | Number of local auxiliary basis functions on task:      5   256
  | Number of local auxiliary basis functions on task:      6   256
  | Number of local auxiliary basis functions on task:      7   256
  | Number of local auxiliary basis functions on task:      8   256
  | Number of local auxiliary basis functions on task:      9   256
  | Number of local auxiliary basis functions on task:     10   256
  | Number of local auxiliary basis functions on task:     11   256
  | Number of local auxiliary basis functions on task:     12   256
  | Number of local auxiliary basis functions on task:     13   256
  | Number of local auxiliary basis functions on task:     14   240
  | Number of local auxiliary basis functions on task:     15   240
  | Number of local auxiliary basis functions on task:     16   240
  | Number of local auxiliary basis functions on task:     17   240
  | 2D aux task distribution:      3 X      6
  | 2D block size (nb_aux_2d):     64
 
  Basis pair condensation :    295296  -->     214247
 
 --------------------------------------------
  Constructing auxiliary basis (full product) ...
 
  Product basis:
  | charge radius: extent of product basis function
  | field radius: extent of its Coulomb potential
  | Species   l  charge radius    field radius  multipol momen
  |    H      1     3.910002 A      3.910002 A       -2.487223E-16 a.u.
  |    H      1     3.958095 A      3.958095 A       -2.441841E-16 a.u.
  |    H      0     4.527807 A      4.527807 A        1.268855E-16 a.u.
  |    H      0     4.527807 A      4.583499 A       -4.900954E-17 a.u.
  |    H      0     4.527807 A      4.583499 A        4.713786E-16 a.u.
  |    H      2     3.678162 A  2.180220E+05 A            0.556529 a.u.
  |    H      1     3.958095 A  1.721251E+08 A            0.841931 a.u.
  |    H      0     4.527807 A  3.866455E+16 A            0.581436 a.u.
  |    O      0     2.043000 A      2.043000 A       -1.436841E-16 a.u.
  |    O      3     3.498446 A      3.498446 A        3.043453E-17 a.u.
  |    O      3     3.498446 A      3.498446 A        1.541443E-16 a.u.
  |    O      0     3.905335 A      3.905335 A        2.173090E-16 a.u.
  |    O      0     3.905335 A      3.905335 A        7.213445E-17 a.u.
  |    O      0     4.101052 A      4.101052 A        2.361718E-16 a.u.
  |    O      1     4.101052 A      4.101052 A        3.235185E-17 a.u.
  |    O      0     4.359549 A      4.359549 A       -5.329475E-17 a.u.
  |    O      1     4.413171 A      4.413171 A        3.261883E-17 a.u.
  |    O      1     4.522403 A      4.522403 A        6.417997E-16 a.u.
  |    O      1     4.522403 A      4.522403 A        4.224783E-16 a.u.
  |    O      2     4.522403 A      4.522403 A       -4.387647E-16 a.u.
  |    O      0     4.522403 A      4.578029 A        2.602039E-16 a.u.
  |    O      0     4.578029 A      4.578029 A        1.226235E-16 a.u.
  |    O      1     4.578029 A      4.578029 A       -6.107316E-16 a.u.
  |    O      1     4.578029 A      4.578029 A       -2.224438E-16 a.u.
  |    O      2     4.578029 A      4.578029 A       -7.020279E-16 a.u.
  |    O      2     4.522403 A      4.578029 A        1.323470E-15 a.u.
  |    O      2     4.578029 A      4.578029 A        7.923696E-16 a.u.
  |    O      2     4.522403 A      4.578029 A       -9.951815E-16 a.u.
  |    O      0     4.578029 A      4.634338 A       -8.813582E-18 a.u.
  |    O      1     4.578029 A      4.634338 A       -3.325386E-17 a.u.
  |    O      1     4.634338 A      4.634338 A        9.588032E-16 a.u.
  |    O      2     4.578029 A      4.634338 A        1.064715E-17 a.u.
  |    O      2     4.578029 A      4.634338 A       -3.770343E-15 a.u.
  |    O      4     3.251020 A  1.511584E+03 A            1.513372 a.u.
  |    O      3     3.541477 A  1.434166E+04 A            4.293220 a.u.
  |    O      2     4.634338 A  5.584435E+05 A            9.352428 a.u.
  |    O      1     4.634338 A  2.821283E+08 A            2.261940 a.u.
  |    O      0     4.578029 A  4.264100E+16 A            0.641234 a.u.

  | Shrink_full_auxil_basis : there are       38  radial auxiliary wave functions
                            accepted and       5 rejected.
  | Shrink_full_auxil_basis : there are totally                4544 partial auxiliary wave functions.
 
  | Maximal number of product basis functions per thread :   256   256
 
  | Minimal total memory requirement for three-center overlap :      10.450 Gbs
  | Number of local auxiliary basis functions on task:      0   256
  | Number of local auxiliary basis functions on task:      1   256
  | Number of local auxiliary basis functions on task:      2   256
  | Number of local auxiliary basis functions on task:      3   256
  | Number of local auxiliary basis functions on task:      4   256
  | Number of local auxiliary basis functions on task:      5   256
  | Number of local auxiliary basis functions on task:      6   256
  | Number of local auxiliary basis functions on task:      7   256
  | Number of local auxiliary basis functions on task:      8   256
  | Number of local auxiliary basis functions on task:      9   256
  | Number of local auxiliary basis functions on task:     10   256
  | Number of local auxiliary basis functions on task:     11   256
  | Number of local auxiliary basis functions on task:     12   256
  | Number of local auxiliary basis functions on task:     13   256
  | Number of local auxiliary basis functions on task:     14   240
  | Number of local auxiliary basis functions on task:     15   240
  | Number of local auxiliary basis functions on task:     16   240
  | Number of local auxiliary basis functions on task:     17   240
  | 2D aux task distribution:      3 X      6
  | 2D block size (nb_aux_2d):     64
 
  Basis pair condensation :    295296  -->     214247
dP_dE (Bohr^3) at every cycle:--->
 (343.932702583573,0.000000000000000E+000) (-1.82666912598841,0.000000000000000E+000) (-6.06699011193556,0.000000000000000E+000)
 (-1.83080303284809,0.000000000000000E+000) (342.163328603975,0.000000000000000E+000) (-0.662126158051012,0.000000000000000E+000)
 (-6.06310428145696,0.000000000000000E+000) (-0.665079206062292,0.000000000000000E+000) (340.291922500211,0.000000000000000E+000)
DFPT polarizability (Bohr^3)        xx        yy        zz        xy        xz        yz
  | Polarizability:--->                       343.932702584                  342.163328604                  340.291922500                   -1.826669126                   -6.066990112                   -0.662126158

DFPT for dielectric_constant:--->  # PARSE DFPT_dielectric_tensor
               1.620303836084374            -0.003294510401587            -0.010942190758976
              -0.003301966157506             1.617112661012136            -0.001194185352907
              -0.010935182424107            -0.001199511357081             1.613737464712637

                                               :  max(cpu_time)    wall_clock(cpu1)
  | Time for  dielectric calculation            :        0.000 s           0.000 s
===========================================================================

------------------------------------------------------------------------------
  Final output of selected total energy values:

  The following output summarizes some interesting total energy values
  at the end of a run (AFTER all relaxation, molecular dynamics, etc.).

  | Total energy of the DFT / Hartree-Fock s.c.f. calculation      :         -66109.464551513 eV
  | Final zero-broadening corrected energy (caution - metals only) :         -66109.464551513 eV
  | For reference only, the value of 1 Hartree used in FHI-aims is :             27.211384500 eV
  | For reference only, the overall average (free atom contribution
  | + realspace contribution) of the electrostatic potential after
  | s.c.f. convergence is                                          :             -4.638179940 eV

  Before relying on these values, please be sure to understand exactly which
  total energy value is referred to by a given number. Different objects may
  all carry the same name 'total energy'. Definitions:

  Total energy of the DFT / Hartree-Fock s.c.f. calculation:
  | Note that this energy does not include ANY quantities calculated after the
  | s.c.f. cycle, in particular not ANY RPA, MP2, etc. many-body perturbation terms.

  Final zero-broadening corrected energy:
  | For metallic systems only, a broadening of the occupation numbers at the Fermi
  | level can be extrapolated back to zero broadening by an electron-gas inspired
  | formula. For all systems that are not real metals, this value can be
  | meaningless and should be avoided.

------------------------------------------------------------------------------
  Methods described in the following list of references were used in this FHI-aims run.
  If you publish the results, please make sure to cite these reference if they apply.
  FHI-aims is an academic code, and for our developers (often, Ph.D. students
  and postdocs), scientific credit in the community is essential.
  Thank you for helping us!

  For any use of FHI-aims, please cite:

    Volker Blum, Ralf Gehrke, Felix Hanke, Paula Havu, Ville Havu,
    Xinguo Ren, Karsten Reuter, and Matthias Scheffler
    'Ab initio molecular simulations with numeric atom-centered orbitals'
    Computer Physics Communications 180, 2175-2196 (2009)
    http://doi.org/10.1016/j.cpc.2009.06.022


  For Hartree-Fock, hybrid functionals, or many-body perturbation theory used in your run, please cite:

    Xinguo Ren, Patrick Rinke, Volker Blum, Juergen Wieferink, Alex Tkatchenko,
    Andrea Sanfilippo, Karsten Reuter, and Matthias Scheffler,
    'Resolution-of-identity approach to Hartree-Fock, hybrid density functionals,
    RPA, MP2, and GW with numeric atom-centered orbital basis functions'
    New Journal of Physics 14, 053020 (2012).
    http://doi.org/10.1088/1367-2630/14/5/053020


  The provided symmetry information was generated with SPGlib:

    Atsushi Togo, Yusuke Seto, Dimitar Pashov
    SPGlib 1.7.3 obtained from http://spglib.sourceforge.net
    Copyright (C) 2008 Atsushi Togo


  The DFPT (perturbation by an electric field) part of the code was used.
  Here is the corresponding reference:

    Honghui Shang, Nathaniel Raimbault, Mariana Rossi,
    Christian Carbogno, Patrick Rinke and Matthias Scheffler,
    'All-Electron, Real-Space Perturbation Theory for Homogeneous
    Electric Fields: Theory, Implementation, and Application within dft'
    New Journal of Physics, 20(7):073040, 2018


  The ELSI infrastructure was used in your run to solve the Kohn-Sham electronic structure.
  Please check out http://elsi-interchange.org to learn more.
  If scalability is important for your project, please acknowledge ELSI by citing:

    V. W-z. Yu, F. Corsetti, A. Garcia, W. P. Huhn, M. Jacquelin, W. Jia,
    B. Lange, L. Lin, J. Lu, W. Mi, A. Seifitokaldani, A. Vazquez-Mayagoitia,
    C. Yang, H. Yang, and V. Blum
    'ELSI: A unified software interface for Kohn-Sham electronic structure solvers'
    Computer Physics Communications 222, 267-285 (2018).
    http://doi.org/10.1016/j.cpc.2017.09.007


  For the real-space grid partitioning and parallelization used in this calculation, please cite:

    Ville Havu, Volker Blum, Paula Havu, and Matthias Scheffler,
    'Efficient O(N) integration for all-electron electronic structure calculation'
    'using numerically tabulated basis functions'
    Journal of Computational Physics 228, 8367-8379 (2009).
    http://doi.org/10.1016/j.jcp.2009.08.008


  The high-level electronic structure method used in your calculation
  employed our efficient localized resolution of identity for the Coulomb operator.
  Some calculations, especially large-scale hybrid density functional theory,
  are only possible thanks to this development. For this feature, please cite:

    Arvid Ihrig, Juergen Wieferink, Igor Ying Zhang, Matti Ropo, Xinguo Ren,
    Patrick Rinke, Matthias Scheffler, and Volker Blum,
    'Accurate localized resolution of identity approach for linear-scaling
    hybrid density functionals and for many-body perturbation theory'
    New Journal of Physics 117, 093020 (2015).
    http://doi.org/10.1088/1367-2630/17/9/093020

  Of course, there are many other important community references, e.g., those cited in the
  above references. Our list is limited to references that describe implementations in the
  FHI-aims code. The reason is purely practical (length of this list) - please credit others as well.

------------------------------------------------------------
          Leaving FHI-aims.
          Date     :  20230221, Time     :  134316.198

          Computational steps:
          | Number of self-consistency cycles          :           45
          | Number of SCF (re)initializations          :            1
          | Number of coupled perturbed self-consistency cycles          :            0
          | Number of CPSCF (re)initializations          :            0

          Detailed time accounting                     :  max(cpu_time)    wall_clock(cpu1)
          | Total time                                  :      453.674 s         497.703 s
          | GPU initialization                          :        3.168 s          18.712 s
          | Preparation time                            :        0.070 s           0.066 s
          | Boundary condition initalization            :        1.351 s           1.351 s
          | Grid partitioning                           :        0.387 s           0.388 s
          | Preloading free-atom quantities on grid     :        2.798 s           2.795 s
          | Free-atom superposition energy              :        0.292 s           0.292 s
          | Total time for integrations                 :       11.738 s          12.545 s
          | Product basis setup: Total time             :        0.000 s           0.000 s
          | Product basis: | 2-center integrations     :(       0.000 s)  (       0.000 s)
          | Product basis: | LVL 3-center & coefficient:(       0.000 s)  (       0.000 s)
          | Total time for solution of K.-S. equations  :        6.805 s          30.518 s
          | Total time for density update               :        8.613 s          11.866 s
          | Total time for mixing & preconditioning     :        7.887 s           7.888 s
          | Total time for Hartree multipole update     :        0.108 s           0.109 s
          | Total time for Hartree multipole sum        :       37.042 s          37.056 s
          | Total time for total energy evaluation      :        0.012 s           0.007 s
          | Total time for DFPT                         :      356.686 s         356.822 s
          | Total time first_order_DM                   :        0.278 s           0.281 s
          | Total time first_order_density              :       74.195 s          74.206 s
          | Total time first_order_potential            :       50.716 s          50.739 s
          | Total time first_order_H                    :      147.143 s         147.195 s
          | Total time solving of Sternheimer equations :        0.180 s           0.179 s
          | Total time for dielectric constant          :        0.000 s           0.000 s
          | Total time momentum matrix                  :        0.000 s           0.000 s

          GPU acceleration has been used for charge density update.
          GPU acceleration has been used for real-space Hamiltonian integration.
          Due to GPU usage, wall_clock(cpu1) will give a more reliable estimate for timings.

          Partial memory accounting:
          | Residual value for overall tracked memory usage across tasks:     0.000000 MB (should be 0.000000 MB)
          | Peak values for overall tracked memory usage:
          |   Minimum:      110.437 MB (on task  0 after allocating DFPT_pulay_mixing::pulay_mix::alphas)
          |   Maximum:      110.437 MB (on task  0 after allocating DFPT_pulay_mixing::pulay_mix::alphas)
          |   Average:      110.437 MB
          | Largest tracked array allocation:
          |   Minimum:       39.374 MB (DFPT_pulay_mixing::initialize_pulay_mixing::X_in_diffs on task  0)
          |   Maximum:       39.374 MB (DFPT_pulay_mixing::initialize_pulay_mixing::X_in_diffs on task  0)
          |   Average:       39.374 MB
          Note:  These values currently only include a subset of arrays which are explicitly tracked.
          The "true" memory usage will be greater.

          Have a nice day.
------------------------------------------------------------
