------------------------------------------------------------
          Invoking FHI-aims ...

          When using FHI-aims, please cite the following reference:

            Volker Blum, Ralf Gehrke, Felix Hanke, Paula Havu,
            Ville Havu, Xinguo Ren, Karsten Reuter, and Matthias Scheffler,
            'Ab Initio Molecular Simulations with Numeric Atom-Centered Orbitals',
            Computer Physics Communications 180, 2175-2196 (2009)

          In addition, many other developments in FHI-aims are likely important for
          your particular application. A partial list of references is given at the end of
          this file. Thank you for giving credit to the authors of these developments.

          For any questions about FHI-aims, please visit our slack channel at

            https://fhi-aims.slack.com

          and our main development and support site at

            https://aims-git.rz-berlin.mpg.de .

          The latter site, in particular, has a wiki to collect information, as well
          as an issue tracker to log discussions, suggest improvements, and report issues
          or bugs. https://aims-git.rz-berlin.mpg.de is also the main development site
          of the project and all new and updated code versions can be obtained there.
          Please send an email to aims-coordinators@fhi-berlin.mpg.de and we will add
          you to these sites. They are for you and everyone is welcome there.

------------------------------------------------------------



  Date     :  20230221, Time     :  160302.897
  Time zero on CPU 1             :   0.382134000000000E+00  s.
  Internal wall clock time zero  :           446227382.897  s.

  FHI-aims created a unique identifier for this run for later identification
  aims_uuid : B1AF02BF-F538-4E0F-AF67-B5DF8AB500ED

  Build configuration of the current instance of FHI-aims
  -------------------------------------------------------
  FHI-aims version      : 221103
  Commit number         : 42523251a
  CMake host system     : Linux-5.3.18-150300.59.68-default
  CMake version         : 3.17.0
  Fortran compiler      : /mpcdf/soft/SLE_15/packages/x86_64/intel_oneapi/2021.3/mpi/2021.3.0/bin/mpiifort (Intel) version 20.2.3.20210609
  Fortran compiler flags: -O3 -ip -fp-model precise
  C compiler            : /mpcdf/soft/SLE_15/packages/x86_64/intel/2021.3.0/bin/icc (Intel) version 20.2.3.20210609
  C compiler flags      : -O3 -ip -fp-model precise -std=gnu99
  CUDA compiler         : /mpcdf/soft/SLE_15/packages/x86_64/cuda/11.6.2/bin/nvcc
  CUDA compiler flags   : -O3 -DAdd_ -lcublas
  HIP compiler          :
  HIP compiler flags    :
  HIP GPU arch          :
  ELPA2 kernel          : AVX512
  Using MPI
  Using ScaLAPACK
  Using LibXC
  Using CUDA
  Using i-PI
  Using RLSY
  Linking against: /mpcdf/soft/SLE_15/packages/x86_64/cuda/11.6.2/lib64/libcublas.so
                   /mpcdf/soft/SLE_15/packages/x86_64/cuda/11.6.2/lib64/libcudart.so
                   /mpcdf/soft/SLE_15/packages/x86_64/intel_oneapi/2021.3/mkl/latest/lib/intel64/libmkl_intel_lp64.so
                   /mpcdf/soft/SLE_15/packages/x86_64/intel_oneapi/2021.3/mkl/latest/lib/intel64/libmkl_sequential.so
                   /mpcdf/soft/SLE_15/packages/x86_64/intel_oneapi/2021.3/mkl/latest/lib/intel64/libmkl_core.so
                   /mpcdf/soft/SLE_15/packages/x86_64/intel_oneapi/2021.3/mkl/latest/lib/intel64/libmkl_blacs_intelmpi_lp64.so
                   /mpcdf/soft/SLE_15/packages/x86_64/intel_oneapi/2021.3/mkl/latest/lib/intel64/libmkl_scalapack_lp64.so

  Using       18 parallel tasks.
  Task        0 on host adag039 reporting.
  Task        1 on host adag039 reporting.
  Task        2 on host adag039 reporting.
  Task        3 on host adag039 reporting.
  Task        4 on host adag039 reporting.
  Task        5 on host adag039 reporting.
  Task        6 on host adag039 reporting.
  Task        7 on host adag039 reporting.
  Task        8 on host adag039 reporting.
  Task        9 on host adag039 reporting.
  Task       10 on host adag039 reporting.
  Task       11 on host adag039 reporting.
  Task       12 on host adag039 reporting.
  Task       13 on host adag039 reporting.
  Task       14 on host adag039 reporting.
  Task       15 on host adag039 reporting.
  Task       16 on host adag039 reporting.
  Task       17 on host adag039 reporting.

  Obtaining array dimensions for all initial allocations:
  
  -----------------------------------------------------------------------
  Parsing control.in (first pass over file, find array dimensions only).
  The contents of control.in will be repeated verbatim below
  unless switched off by setting 'verbatim_writeout .false.' .
  in the first line of control.in .
  -----------------------------------------------------------------------
  
  #########################################################################################
  #
  #  Volker Blum, 2017 : Test run input file control.in for simple H2O
  #
  #########################################################################################
  #
  #  Physical model
  #
    xc                 pw-lda
    spin               none
    relativistic       none
    charge             0.
  
    use_gpu
  
    DFPT dielectric
    ri_density_restart write
    ri_rho1 write
  #  ri_density_restart read 0
  #  ri_rho1 read
    ri_full_output .true.
    sc_accuracy_rho    1d-6
  #  use_calculate_fock_matrix_old .false.
  #  wave_threshold 1e-8
    k_grid 1 1 1
  #  output cube eigenstate 160
  #  output cube eigenstate 161
    wave_threshold 1e-8
    default_prodbas_acc 1e-6
    default_max_l_prodbas 6
  #
  #  Relaxation
  #
  #  relax_geometry   bfgs 1.e-2
  #
  
  ################################################################################
  
  
  ################################################################################
  #
  #  FHI-aims code project
  #  VB, Fritz-Haber Institut, 2009
  #
  #  Suggested "light" defaults for H atom (to be pasted into control.in file)
  #  Be sure to double-check any results obtained with these settings for post-processing,
  #  e.g., with the "tight" defaults and larger basis sets.
  #
  ################################################################################
    species        H
  #     global species definitions
      nucleus             1
      mass                1.00794
  #
      l_hartree           4
  #
      cut_pot             3.5  1.5  1.0
      basis_dep_cutoff    1e-4
  #
      radial_base         24 5.0
      radial_multiplier   1
      angular_grids       specified
        division   0.2421   50
        division   0.3822  110
        division   0.4799  194
        division   0.5341  302
  #      division   0.5626  434
  #      division   0.5922  590
  #      division   0.6542  770
  #      division   0.6868 1202
  #      outer_grid  770
        outer_grid  302
  ################################################################################
  #
  #  Definition of "minimal" basis
  #
  ################################################################################
  #     valence basis states
      valence      1  s   1.
  #     ion occupancy
      ion_occ      1  s   0.5
  ################################################################################
  #
  #  Suggested additional basis functions. For production calculations,
  #  uncomment them one after another (the most important basis functions are
  #  listed first).
  #
  #  Basis constructed for dimers: 0.5 A, 0.7 A, 1.0 A, 1.5 A, 2.5 A
  #
  ################################################################################
  #  "First tier" - improvements: -1014.90 meV to -62.69 meV
       hydro 2 s 2.1
       hydro 2 p 3.5
  #  "Second tier" - improvements: -12.89 meV to -1.83 meV
  #     hydro 1 s 0.85
  #     hydro 2 p 3.7
  #     hydro 2 s 1.2
  #     hydro 3 d 7
  #  "Third tier" - improvements: -0.25 meV to -0.12 meV
  #     hydro 4 f 11.2
  #     hydro 3 p 4.8
  #     hydro 4 d 9
  #     hydro 3 s 3.2
  ################################################################################
  #
  #  FHI-aims code project
  #  VB, Fritz-Haber Institut, 2009
  #
  #  Suggested "light" defaults for O atom (to be pasted into control.in file)
  #  Be sure to double-check any results obtained with these settings for post-processing,
  #  e.g., with the "tight" defaults and larger basis sets.
  #
  ################################################################################
    species        O
  #     global species definitions
      nucleus             8
      mass                15.9994
  #
      l_hartree           4
  #
      cut_pot             3.5  1.5  1.0
      basis_dep_cutoff    1e-4
  #
      radial_base         36 5.0
      radial_multiplier   1
       angular_grids specified
        division   0.2659   50
        division   0.4451  110
        division   0.6052  194
        division   0.7543  302
  #      division   0.8014  434
  #      division   0.8507  590
  #      division   0.8762  770
  #      division   0.9023  974
  #      division   1.2339 1202
  #      outer_grid 974
        outer_grid 302
  ################################################################################
  #
  #  Definition of "minimal" basis
  #
  ################################################################################
  #     valence basis states
      valence      2  s   2.
      valence      2  p   4.
  #     ion occupancy
      ion_occ      2  s   1.
      ion_occ      2  p   3.
  ################################################################################
  #
  #  Suggested additional basis functions. For production calculations,
  #  uncomment them one after another (the most important basis functions are
  #  listed first).
  #
  #  Constructed for dimers: 1.0 A, 1.208 A, 1.5 A, 2.0 A, 3.0 A
  #
  ################################################################################
  #  "First tier" - improvements: -699.05 meV to -159.38 meV
       hydro 2 p 1.8
       hydro 3 d 7.6
       hydro 3 s 6.4
  #  "Second tier" - improvements: -49.91 meV to -5.39 meV
  #     hydro 4 f 11.6
  #     hydro 3 p 6.2
  #     hydro 3 d 5.6
  #     hydro 5 g 17.6
  #     hydro 1 s 0.75
  #  "Third tier" - improvements: -2.83 meV to -0.50 meV
  #     ionic 2 p auto
  #     hydro 4 f 10.8
  #     hydro 4 d 4.7
  #     hydro 2 s 6.8
  #  "Fourth tier" - improvements: -0.40 meV to -0.12 meV
  #     hydro 3 p 5
  #     hydro 3 s 3.3
  #     hydro 5 g 15.6
  #     hydro 4 f 17.6
  #     hydro 4 d 14
  # Further basis functions - -0.08 meV and below
  #     hydro 3 s 2.1
  #     hydro 4 d 11.6
  #     hydro 3 p 16
  #     hydro 2 s 17.2
  
  -----------------------------------------------------------------------
  Completed first pass over input file control.in .
  -----------------------------------------------------------------------
  
  
  -----------------------------------------------------------------------
  Parsing geometry.in (first pass over file, find array dimensions only).
  The contents of geometry.in will be repeated verbatim below
  unless switched off by setting 'verbatim_writeout .false.' .
  in the first line of geometry.in .
  -----------------------------------------------------------------------
  
  #=======================================================
  # FHI-aims file: /ada/ptmp/mpsd/alewis/bulk_water/qmdata/data/geoms/108.in
  # Created using the Atomic Simulation Environment (ASE)
  # Tue Feb 21 11:23:37 2023
  #=======================================================
  lattice_vector 10.0858100000000004 0.0000000000000000 0.0000000000000000
  lattice_vector 0.0000000000000000 10.0858100000000004 0.0000000000000000
  lattice_vector 0.0000000000000000 0.0000000000000000 10.0858100000000004
  atom 1.9164900000000000 13.1631999999999998 -13.4140999999999995 O
  atom 2.8902199999999998 13.2094000000000005 -13.1768000000000001 H
  atom 1.5487700000000000 14.0196000000000005 -13.4141999999999992 H
  atom -19.9656999999999982 9.0280799999999992 5.4268000000000001 O
  atom -20.8192999999999984 9.0141899999999993 5.6805399999999997 H
  atom -19.6832999999999991 10.1585000000000001 5.0753500000000003 H
  atom -4.3053699999999999 -4.1524000000000001 3.5115200000000000 O
  atom -4.4466999999999999 -4.6505400000000003 2.5641799999999999 H
  atom -4.6267500000000004 -3.3812300000000000 3.2763599999999999 H
  atom -1.2809600000000001 -0.0177770000000000 -0.3908060000000000 O
  atom -0.7133720000000000 0.0772720000000000 -1.1898599999999999 H
  atom -1.0665500000000001 0.7434160000000000 0.0068910000000000 H
  atom -4.6112200000000003 -1.6550600000000000 12.6606000000000005 O
  atom -5.3475000000000001 -0.9539720000000000 12.9560999999999993 H
  atom -4.4390200000000002 -1.7364299999999999 11.6599000000000004 H
  atom -8.4410399999999992 6.9962700000000000 29.8978999999999999 O
  atom -7.5591799999999996 6.6405599999999998 29.7451000000000008 H
  atom -8.6754200000000008 7.3835699999999997 30.7380999999999993 H
  atom 14.7852999999999994 3.6912400000000001 6.9409200000000002 O
  atom 14.8545999999999996 3.7834599999999998 6.0139800000000001 H
  atom 14.6850000000000005 4.3513500000000001 7.6044499999999999 H
  atom -19.9175000000000004 -9.3210400000000000 -2.7696299999999998 O
  atom -19.6909999999999989 -10.3436000000000003 -3.2264800000000000 H
  atom -18.9880999999999993 -8.6695799999999998 -2.6652900000000002 H
  atom 8.7254299999999994 18.2082000000000015 -8.2233599999999996 O
  atom 8.7237700000000000 18.9426999999999985 -8.9500600000000006 H
  atom 8.2955400000000008 18.5916999999999994 -7.4630000000000001 H
  atom 18.4680000000000000 -4.3148700000000000 14.0800000000000001 O
  atom 19.2052000000000014 -3.9308600000000000 13.6364000000000001 H
  atom 17.7890000000000015 -4.2784700000000004 13.4451000000000001 H
  atom 4.2465000000000002 6.4385500000000002 -10.2613000000000003 O
  atom 4.9158200000000001 7.0800900000000002 -10.3126999999999995 H
  atom 4.0678500000000000 6.2018599999999999 -11.1393000000000004 H
  atom 7.4968100000000000 -0.7414600000000000 4.3088300000000004 O
  atom 6.6844900000000003 -0.7266470000000000 3.6750200000000000 H
  atom 7.8407099999999996 0.2625840000000000 4.3776500000000000 H
  atom 9.1949100000000001 11.7545000000000002 -8.0702200000000008 O
  atom 8.5138499999999997 12.0495000000000001 -7.4327500000000004 H
  atom 9.8510399999999994 12.0936000000000003 -7.3537100000000004 H
  atom -8.7078500000000005 -1.4372499999999999 2.0569099999999998 O
  atom -9.7409099999999995 -1.2195300000000000 2.1278100000000002 H
  atom -8.7336100000000005 -2.2745799999999998 2.5055399999999999 H
  atom -4.3328100000000003 7.3765200000000002 -3.5806300000000002 O
  atom -3.9251399999999999 8.1743100000000002 -3.3656700000000002 H
  atom -4.3048599999999997 7.0647300000000000 -4.5507400000000002 H
  atom -1.4380800000000000 13.0196000000000005 5.7702499999999999 O
  atom -1.0583199999999999 13.9544999999999995 6.0836399999999999 H
  atom -0.8176820000000000 12.1950000000000003 6.0538200000000000 H
  atom 8.1501000000000001 -6.1597400000000002 0.4479940000000000 O
  atom 8.7442200000000003 -6.8655999999999997 0.6932630000000000 H
  atom 7.7625599999999997 -6.4725599999999996 -0.4530640000000000 H
  atom -6.6596200000000003 12.6433999999999997 21.4133999999999993 O
  atom -5.9901600000000004 13.2027000000000001 21.4725000000000001 H
  atom -7.0396999999999998 13.0953999999999997 20.6875000000000000 H
  atom 11.1045999999999996 11.3394999999999992 -5.7443700000000000 O
  atom 11.2719000000000005 12.0652000000000008 -5.1623700000000001 H
  atom 11.8762000000000008 11.0585000000000004 -6.0820800000000004 H
  atom -8.5861199999999993 -3.4604900000000001 -5.9763900000000003 O
  atom -9.1815300000000004 -3.2740700000000000 -5.2363400000000002 H
  atom -8.2250800000000002 -4.3160999999999996 -5.7996699999999999 H
  atom 15.4047000000000001 4.2817800000000004 11.3419000000000008 O
  atom 15.1262000000000008 5.0580699999999998 10.7966999999999995 H
  atom 16.2777999999999992 3.9973600000000000 11.0655000000000001 H
  atom -0.3582530000000000 5.2092900000000002 6.1432099999999998 O
  atom -0.8344000000000000 5.8164699999999998 6.7790100000000004 H
  atom -0.9865330000000000 5.6628900000000000 5.5068700000000002 H
  atom 25.3062000000000005 9.0379699999999996 19.8111999999999995 O
  atom 25.0750999999999991 9.9029600000000002 20.3340999999999994 H
  atom 25.7074999999999996 9.6020800000000008 19.0331000000000010 H
  atom -3.4098400000000000 -9.8885000000000005 7.6974600000000004 O
  atom -3.5818699999999999 -8.8993000000000002 7.5192800000000002 H
  atom -2.5393200000000000 -10.0103000000000009 8.1702700000000004 H
  atom 7.0451300000000003 -6.7267500000000000 -1.9411600000000000 O
  atom 7.6842400000000000 -6.9036600000000004 -2.6712500000000001 H
  atom 6.2670800000000000 -6.3892300000000004 -2.3290799999999998 H
  atom -2.0356100000000001 6.2153999999999998 7.8051000000000004 O
  atom -1.7771500000000000 6.5559900000000004 8.6971399999999992 H
  atom -2.8289399999999998 6.5564999999999998 7.3231400000000004 H
  atom 13.4702000000000002 6.3144299999999998 17.4372000000000007 O
  atom 12.6937999999999995 6.8144099999999996 17.3398000000000003 H
  atom 14.2759000000000000 6.6772799999999997 16.8222999999999985 H
  atom 13.8466000000000005 14.1564999999999994 4.1602199999999998 O
  atom 13.4352000000000000 13.6088000000000005 3.5962399999999999 H
  atom 14.7020999999999997 14.5975000000000001 4.0774100000000004 H
  atom 7.2927600000000004 6.6410799999999997 10.2574000000000005 O
  atom 7.3363699999999996 5.6937300000000004 10.2218999999999998 H
  atom 7.5742000000000003 7.0213500000000000 11.0510000000000002 H
  atom 3.1662300000000001 0.1819880000000000 13.2018000000000004 O
  atom 3.3506499999999999 0.9425240000000000 12.5404000000000000 H
  atom 2.5830199999999999 -0.5743360000000000 12.7443000000000008 H
  atom 11.8434000000000008 14.2249999999999996 9.7918900000000004 O
  atom 11.7942999999999998 15.1789000000000005 10.1023999999999994 H
  atom 11.0242000000000004 13.8726000000000003 9.7065800000000007 H
  atom 7.1253399999999996 13.1308000000000007 -6.6234900000000003 O
  atom 7.5037300000000000 13.1275999999999993 -5.8365099999999996 H
  atom 7.5875000000000004 14.0839999999999996 -6.6765800000000004 H
  
  -----------------------------------------------------------------------
  Completed first pass over input file geometry.in .
  -----------------------------------------------------------------------
  

  Basic array size parameters:
  | Number of species                 :        2
  | Number of atoms                   :       96
  | Number of lattice vectors         :        3
  | Max. basis fn. angular momentum   :        2
  | Max. atomic/ionic basis occupied n:        2
  | Max. number of basis fn. types    :        2
  | Max. radial fns per species/type  :        3
  | Max. logarithmic grid size        :     1301
  | Max. radial integration grid size :       36
  | Max. angular integration grid size:      302
  | Max. angular grid division number :        8
  | Radial grid for Hartree potential :     1301
  | Number of spin channels           :        1

------------------------------------------------------------
          Reading file control.in.
------------------------------------------------------------
  XC: Using Perdew-Wang parametrisation of Ceperley-Alder LDA.
  Spin treatment: No spin polarisation.
  Non-relativistic treatment of kinetic energy.
  Charge =   0.000000E+00: Neutral system requested explicitly.
  DFPT calculation will begin after the DFT/HF calculation.
  Convergence accuracy of self-consistent charge density:  0.1000E-05
  Found k-point grid:         1         1         1
  Threshold value for wave function integration:  0.1000E-07
 
  Reading configuration options for species H                   .
  | Found nuclear charge :   1.0000
  | Found atomic mass :    1.00794000000000      amu
  | Found l_max for Hartree potential  :   4
  | Found cutoff potl. onset [A], width [A], scale factor :    3.50000    1.50000    1.00000
  | Threshold for basis-dependent cutoff potential is   0.100000E-03
  | Found data for basic radial integration grid :    24 points, outermost radius =    5.000 A
  | Found multiplier for basic radial grid :   1
  | Found angular grid specification: user-specified.
  | Specified grid contains     5 separate shells.
  | Check grid settings after all constraints further below.
  | Found free-atom valence shell :  1 s   1.000
  | No ionic wave fns used. Skipping ion_occ.
  | Found hydrogenic basis function :  2 s   2.100
  | Found hydrogenic basis function :  2 p   3.500
  Species H                   : Missing cutoff potential type.
  Defaulting to exp(1/x)/(1-x)^2 type cutoff potential.
  Species H : No 'logarithmic' tag. Using default grid for free atom:
  | Default logarithmic grid data [bohr] : 0.1000E-03 0.1000E+03 0.1012E+01
  Species H : On-site basis accuracy parameter (for Gram-Schmidt orthonormalisation) not specified.
  Using default value basis_acc =  0.1000000E-03.
  Species H                   : Using default innermost maximum threshold i_radial=  2 for radial functions.
  Species H                   : Default cutoff onset for free atom density etc. : 0.35000000E+01 AA.
  Species H                   : Basic radial grid will be enhanced according to radial_multiplier =   1, to contain    24 grid points.
 
  Reading configuration options for species O                   .
  | Found nuclear charge :   8.0000
  | Found atomic mass :    15.9994000000000      amu
  | Found l_max for Hartree potential  :   4
  | Found cutoff potl. onset [A], width [A], scale factor :    3.50000    1.50000    1.00000
  | Threshold for basis-dependent cutoff potential is   0.100000E-03
  | Found data for basic radial integration grid :    36 points, outermost radius =    5.000 A
  | Found multiplier for basic radial grid :   1
  | Found angular grid specification: user-specified.
  | Specified grid contains     5 separate shells.
  | Check grid settings after all constraints further below.
  | Found free-atom valence shell :  2 s   2.000
  | Found free-atom valence shell :  2 p   4.000
  | No ionic wave fns used. Skipping ion_occ.
  | No ionic wave fns used. Skipping ion_occ.
  | Found hydrogenic basis function :  2 p   1.800
  | Found hydrogenic basis function :  3 d   7.600
  | Found hydrogenic basis function :  3 s   6.400
  Species O                   : Missing cutoff potential type.
  Defaulting to exp(1/x)/(1-x)^2 type cutoff potential.
  Species O : No 'logarithmic' tag. Using default grid for free atom:
  | Default logarithmic grid data [bohr] : 0.1000E-03 0.1000E+03 0.1012E+01
  Species O : On-site basis accuracy parameter (for Gram-Schmidt orthonormalisation) not specified.
  Using default value basis_acc =  0.1000000E-03.
  Species O                   : Using default innermost maximum threshold i_radial=  2 for radial functions.
  Species O                   : Default cutoff onset for free atom density etc. : 0.35000000E+01 AA.
  Species O                   : Basic radial grid will be enhanced according to radial_multiplier =   1, to contain    36 grid points.
 
  Finished reading input file 'control.in'.
 
------------------------------------------------------------


------------------------------------------------------------
          Reading geometry description geometry.in.
------------------------------------------------------------
  | The smallest distance between any two atoms is         0.86792194 AA.
  | The first atom of this pair is atom number                      7 .
  | The second atom of this pair is atom number                     9 .
  | Wigner-Seitz cell of the first atom image           0     0     0 .
  | (The Wigner-Seitz cell of the second atom is 0 0 0  by definition.)

  Symmetry information by spglib:
  | Precision set to  0.1E-04
  | Number of Operations  : 1
  | Space group           : 1
  | International         : P1
  | Schoenflies           : C1^1
  Input structure read successfully.
  The structure contains       96 atoms,  and a total of        320.000 electrons.

  Input geometry:
  | Unit cell:
  |       10.08581000        0.00000000        0.00000000
  |        0.00000000       10.08581000        0.00000000
  |        0.00000000        0.00000000       10.08581000
  | Atomic structure:
  |       Atom                x [A]            y [A]            z [A]
  |    1: Species O             1.91649000       13.16320000      -13.41410000
  |    2: Species H             2.89022000       13.20940000      -13.17680000
  |    3: Species H             1.54877000       14.01960000      -13.41420000
  |    4: Species O           -19.96570000        9.02808000        5.42680000
  |    5: Species H           -20.81930000        9.01419000        5.68054000
  |    6: Species H           -19.68330000       10.15850000        5.07535000
  |    7: Species O            -4.30537000       -4.15240000        3.51152000
  |    8: Species H            -4.44670000       -4.65054000        2.56418000
  |    9: Species H            -4.62675000       -3.38123000        3.27636000
  |   10: Species O            -1.28096000       -0.01777700       -0.39080600
  |   11: Species H            -0.71337200        0.07727200       -1.18986000
  |   12: Species H            -1.06655000        0.74341600        0.00689100
  |   13: Species O            -4.61122000       -1.65506000       12.66060000
  |   14: Species H            -5.34750000       -0.95397200       12.95610000
  |   15: Species H            -4.43902000       -1.73643000       11.65990000
  |   16: Species O            -8.44104000        6.99627000       29.89790000
  |   17: Species H            -7.55918000        6.64056000       29.74510000
  |   18: Species H            -8.67542000        7.38357000       30.73810000
  |   19: Species O            14.78530000        3.69124000        6.94092000
  |   20: Species H            14.85460000        3.78346000        6.01398000
  |   21: Species H            14.68500000        4.35135000        7.60445000
  |   22: Species O           -19.91750000       -9.32104000       -2.76963000
  |   23: Species H           -19.69100000      -10.34360000       -3.22648000
  |   24: Species H           -18.98810000       -8.66958000       -2.66529000
  |   25: Species O             8.72543000       18.20820000       -8.22336000
  |   26: Species H             8.72377000       18.94270000       -8.95006000
  |   27: Species H             8.29554000       18.59170000       -7.46300000
  |   28: Species O            18.46800000       -4.31487000       14.08000000
  |   29: Species H            19.20520000       -3.93086000       13.63640000
  |   30: Species H            17.78900000       -4.27847000       13.44510000
  |   31: Species O             4.24650000        6.43855000      -10.26130000
  |   32: Species H             4.91582000        7.08009000      -10.31270000
  |   33: Species H             4.06785000        6.20186000      -11.13930000
  |   34: Species O             7.49681000       -0.74146000        4.30883000
  |   35: Species H             6.68449000       -0.72664700        3.67502000
  |   36: Species H             7.84071000        0.26258400        4.37765000
  |   37: Species O             9.19491000       11.75450000       -8.07022000
  |   38: Species H             8.51385000       12.04950000       -7.43275000
  |   39: Species H             9.85104000       12.09360000       -7.35371000
  |   40: Species O            -8.70785000       -1.43725000        2.05691000
  |   41: Species H            -9.74091000       -1.21953000        2.12781000
  |   42: Species H            -8.73361000       -2.27458000        2.50554000
  |   43: Species O            -4.33281000        7.37652000       -3.58063000
  |   44: Species H            -3.92514000        8.17431000       -3.36567000
  |   45: Species H            -4.30486000        7.06473000       -4.55074000
  |   46: Species O            -1.43808000       13.01960000        5.77025000
  |   47: Species H            -1.05832000       13.95450000        6.08364000
  |   48: Species H            -0.81768200       12.19500000        6.05382000
  |   49: Species O             8.15010000       -6.15974000        0.44799400
  |   50: Species H             8.74422000       -6.86560000        0.69326300
  |   51: Species H             7.76256000       -6.47256000       -0.45306400
  |   52: Species O            -6.65962000       12.64340000       21.41340000
  |   53: Species H            -5.99016000       13.20270000       21.47250000
  |   54: Species H            -7.03970000       13.09540000       20.68750000
  |   55: Species O            11.10460000       11.33950000       -5.74437000
  |   56: Species H            11.27190000       12.06520000       -5.16237000
  |   57: Species H            11.87620000       11.05850000       -6.08208000
  |   58: Species O            -8.58612000       -3.46049000       -5.97639000
  |   59: Species H            -9.18153000       -3.27407000       -5.23634000
  |   60: Species H            -8.22508000       -4.31610000       -5.79967000
  |   61: Species O            15.40470000        4.28178000       11.34190000
  |   62: Species H            15.12620000        5.05807000       10.79670000
  |   63: Species H            16.27780000        3.99736000       11.06550000
  |   64: Species O            -0.35825300        5.20929000        6.14321000
  |   65: Species H            -0.83440000        5.81647000        6.77901000
  |   66: Species H            -0.98653300        5.66289000        5.50687000
  |   67: Species O            25.30620000        9.03797000       19.81120000
  |   68: Species H            25.07510000        9.90296000       20.33410000
  |   69: Species H            25.70750000        9.60208000       19.03310000
  |   70: Species O            -3.40984000       -9.88850000        7.69746000
  |   71: Species H            -3.58187000       -8.89930000        7.51928000
  |   72: Species H            -2.53932000      -10.01030000        8.17027000
  |   73: Species O             7.04513000       -6.72675000       -1.94116000
  |   74: Species H             7.68424000       -6.90366000       -2.67125000
  |   75: Species H             6.26708000       -6.38923000       -2.32908000
  |   76: Species O            -2.03561000        6.21540000        7.80510000
  |   77: Species H            -1.77715000        6.55599000        8.69714000
  |   78: Species H            -2.82894000        6.55650000        7.32314000
  |   79: Species O            13.47020000        6.31443000       17.43720000
  |   80: Species H            12.69380000        6.81441000       17.33980000
  |   81: Species H            14.27590000        6.67728000       16.82230000
  |   82: Species O            13.84660000       14.15650000        4.16022000
  |   83: Species H            13.43520000       13.60880000        3.59624000
  |   84: Species H            14.70210000       14.59750000        4.07741000
  |   85: Species O             7.29276000        6.64108000       10.25740000
  |   86: Species H             7.33637000        5.69373000       10.22190000
  |   87: Species H             7.57420000        7.02135000       11.05100000
  |   88: Species O             3.16623000        0.18198800       13.20180000
  |   89: Species H             3.35065000        0.94252400       12.54040000
  |   90: Species H             2.58302000       -0.57433600       12.74430000
  |   91: Species O            11.84340000       14.22500000        9.79189000
  |   92: Species H            11.79430000       15.17890000       10.10240000
  |   93: Species H            11.02420000       13.87260000        9.70658000
  |   94: Species O             7.12534000       13.13080000       -6.62349000
  |   95: Species H             7.50373000       13.12760000       -5.83651000
  |   96: Species H             7.58750000       14.08400000       -6.67658000

  Lattice parameters for 3D lattice (in Angstroms) :    10.085810   10.085810   10.085810
  Angle(s) between unit vectors (in degrees)       :    90.000000   90.000000   90.000000


  Quantities derived from the lattice vectors (in Angstrom^-1):
  | Reciprocal lattice vector 1:  0.622973  0.000000  0.000000
  | Reciprocal lattice vector 2:  0.000000  0.622973  0.000000
  | Reciprocal lattice vector 3:  0.000000  0.000000  0.622973
  | Unit cell volume                               :   0.102596E+04  Angstrom^3

  Fractional coordinates:
                         L1                L2                L3
       atom_frac         0.19001845        1.30512076       -1.32999729  O
       atom_frac         0.28656300        1.30970145       -1.30646919  H
       atom_frac         0.15355931        1.39003213       -1.33000721  H
       atom_frac        -1.97958320        0.89512692        0.53806288  O
       atom_frac        -2.06421695        0.89374973        0.56322100  H
       atom_frac        -1.95158346        1.00720716        0.50321690  H
       atom_frac        -0.42687399       -0.41170714        0.34816440  O
       atom_frac        -0.44088675       -0.46109732        0.25423640  H
       atom_frac        -0.45873856       -0.33524625        0.32484848  H
       atom_frac        -0.12700616       -0.00176258       -0.03874810  O
       atom_frac        -0.07073026        0.00766146       -0.11797367  H
       atom_frac        -0.10574758        0.07370910        0.00068324  H
       atom_frac        -0.45719878       -0.16409788        1.25528837  O
       atom_frac        -0.53020035       -0.09458556        1.28458696  H
       atom_frac        -0.44012528       -0.17216565        1.15606977  H
       atom_frac        -0.83692237        0.69367458        2.96435289  O
       atom_frac        -0.74948666        0.65840622        2.94920289  H
       atom_frac        -0.86016096        0.73207506        3.04765805  H
       atom_frac         1.46595068        0.36598350        0.68818667  O
       atom_frac         1.47282172        0.37512703        0.59628131  H
       atom_frac         1.45600601        0.43143287        0.75397514  H
       atom_frac        -1.97480421       -0.92417367       -0.27460660  O
       atom_frac        -1.95234691       -1.02555967       -0.31990291  H
       atom_frac        -1.88265494       -0.85958193       -0.26426137  H
       atom_frac         0.86511941        1.80532848       -0.81533957  O
       atom_frac         0.86495482        1.87815356       -0.88739130  H
       atom_frac         0.82249616        1.84335219       -0.73995048  H
       atom_frac         1.83108744       -0.42781591        1.39602075  O
       atom_frac         1.90418023       -0.38974163        1.35203816  H
       atom_frac         1.76376513       -0.42420688        1.33307092  H
       atom_frac         0.42103708        0.63837709       -1.01739969  O
       atom_frac         0.48739962        0.70198526       -1.02249596  H
       atom_frac         0.40332408        0.61490946       -1.10445269  H
       atom_frac         0.74330272       -0.07351517        0.42721705  O
       atom_frac         0.66276184       -0.07204647        0.36437530  H
       atom_frac         0.77740013        0.02603499        0.43404050  H
       atom_frac         0.91166798        1.16544928       -0.80015586  O
       atom_frac         0.84414142        1.19469829       -0.73695122  H
       atom_frac         0.97672274        1.19907077       -0.72911447  H
       atom_frac        -0.86337637       -0.14250219        0.20394098  O
       atom_frac        -0.96580344       -0.12091542        0.21097066  H
       atom_frac        -0.86593045       -0.22552279        0.24842229  H
       atom_frac        -0.42959465        0.73137606       -0.35501660  O
       atom_frac        -0.38917449        0.81047630       -0.33370349  H
       atom_frac        -0.42682343        0.70046233       -0.45120223  H
       atom_frac        -0.14258448        1.29088293        0.57211568  O
       atom_frac        -0.10493158        1.38357752        0.60318804  H
       atom_frac        -0.08107252        1.20912450        0.60023141  H
       atom_frac         0.80807590       -0.61073330        0.04441825  O
       atom_frac         0.86698242       -0.68071875        0.06873647  H
       atom_frac         0.76965162       -0.64174915       -0.04492093  H
       atom_frac        -0.66029600        1.25358300        2.12312149  O
       atom_frac        -0.59391958        1.30903715        2.12898121  H
       atom_frac        -0.69798063        1.29839844        2.05114909  H
       atom_frac         1.10101221        1.12430236       -0.56954969  O
       atom_frac         1.11759988        1.19625494       -0.51184486  H
       atom_frac         1.17751574        1.09644144       -0.60303337  H
       atom_frac        -0.85130694       -0.34310482       -0.59255429  O
       atom_frac        -0.91034136       -0.32462142       -0.51917893  H
       atom_frac        -0.81551011       -0.42793787       -0.57503264  H
       atom_frac         1.52736369        0.42453506        1.12454032  O
       atom_frac         1.49975064        0.50150360        1.07048418  H
       atom_frac         1.61393086        0.39633505        1.09713548  H
       atom_frac        -0.03552050        0.51649694        0.60909436  O
       atom_frac        -0.08273009        0.57669835        0.67213342  H
       atom_frac        -0.09781396        0.56147102        0.54600176  H
       atom_frac         2.50908950        0.89610750        1.96426465  O
       atom_frac         2.48617612        0.98187057        2.01610976  H
       atom_frac         2.54887808        0.95203856        1.88711665  H
       atom_frac        -0.33808291       -0.98043687        0.76319701  O
       atom_frac        -0.35513955       -0.88235848        0.74553060  H
       atom_frac        -0.25177155       -0.99251324        0.81007574  H
       atom_frac         0.69851901       -0.66695189       -0.19246446  O
       atom_frac         0.76188625       -0.68449237       -0.26485230  H
       atom_frac         0.62137597       -0.63348705       -0.23092642  H
       atom_frac        -0.20182910        0.61625194        0.77386943  O
       atom_frac        -0.17620300        0.65002117        0.86231448  H
       atom_frac        -0.28048714        0.65007173        0.72608348  H
       atom_frac         1.33555956        0.62607069        1.72888444  O
       atom_frac         1.25858012        0.67564330        1.71922731  H
       atom_frac         1.41544407        0.66204697        1.66791760  H
       atom_frac         1.37287932        1.40360566        0.41248249  O
       atom_frac         1.33208934        1.34930164        0.35656432  H
       atom_frac         1.45770146        1.44733046        0.40427194  H
       atom_frac         0.72307132        0.65845777        1.01701301  O
       atom_frac         0.72739522        0.56452878        1.01349321  H
       atom_frac         0.75097588        0.69616124        1.09569782  H
       atom_frac         0.31392917        0.01804396        1.30894792  O
       atom_frac         0.33221427        0.09345050        1.24337064  H
       atom_frac         0.25610437       -0.05694496        1.26358716  H
       atom_frac         1.17426364        1.41039738        0.97085807  O
       atom_frac         1.16939542        1.50497580        1.00164489  H
       atom_frac         1.09304062        1.37545720        0.96239965  H
       atom_frac         0.70647177        1.30190832       -0.65671374  O
       atom_frac         0.74398883        1.30159105       -0.57868530  H
       atom_frac         0.75229456        1.39641734       -0.66197757  H

 
  Finished reading input file 'geometry.in'.
 

 
  Consistency checks for stacksize environment parameter are next.
 
  | Maximum stacksize for task 0: unlimited
  | Maximum stacksize for task 1: unlimited
  | Maximum stacksize for task 2: unlimited
  | Maximum stacksize for task 3: unlimited
  | Maximum stacksize for task 4: unlimited
  | Maximum stacksize for task 5: unlimited
  | Maximum stacksize for task 6: unlimited
  | Maximum stacksize for task 7: unlimited
  | Maximum stacksize for task 8: unlimited
  | Maximum stacksize for task 9: unlimited
  | Maximum stacksize for task 10: unlimited
  | Maximum stacksize for task 11: unlimited
  | Maximum stacksize for task 12: unlimited
  | Maximum stacksize for task 13: unlimited
  | Maximum stacksize for task 14: unlimited
  | Maximum stacksize for task 15: unlimited
  | Maximum stacksize for task 16: unlimited
  | Maximum stacksize for task 17: unlimited
  | Current stacksize for task 0: unlimited
  | Current stacksize for task 1: unlimited
  | Current stacksize for task 2: unlimited
  | Current stacksize for task 3: unlimited
  | Current stacksize for task 4: unlimited
  | Current stacksize for task 5: unlimited
  | Current stacksize for task 6: unlimited
  | Current stacksize for task 7: unlimited
  | Current stacksize for task 8: unlimited
  | Current stacksize for task 9: unlimited
  | Current stacksize for task 10: unlimited
  | Current stacksize for task 11: unlimited
  | Current stacksize for task 12: unlimited
  | Current stacksize for task 13: unlimited
  | Current stacksize for task 14: unlimited
  | Current stacksize for task 15: unlimited
  | Current stacksize for task 16: unlimited
  | Current stacksize for task 17: unlimited
 
  Consistency checks for the contents of control.in are next.
 
  MPI_IN_PLACE appears to work with this MPI implementation.
  | Keeping use_mpi_in_place .true. (see manual).
  Explicit treatment of the Coulomb operator is needed, but the RI method is not specified.
  Coulomb operator: Defaulting to 'LVL fast' resolution of identity - RI_type = LVL_fast
  Species H: Using default value for prodbas_acc =   1.000000E-06.
  Species H: Using default value max_l_prodbas =     6.
  Species O: Using default value for prodbas_acc =   1.000000E-06.
  Species O: Using default value max_l_prodbas =     6.
  Target number of points in a grid batch is not set.  Since GPU acceleration is enabled, defaulting to  200
  Method for grid partitioning is not set. Defaulting to parallel hash+maxmin partitioning.
  Batch size limit is not set. Defaulting to    200
  By default, will store active basis functions for each batch.
  If in need of memory, prune_basis_once .false. can be used to disable this option.
  communication_type for Hartree potential was not specified.
  Defaulting to calc_hartree .
  Defaulting to Pulay charge density mixer.
  Pulay mixer: Number of relevant iterations not set.
  Defaulting to    8 iterations.
  Pulay mixer: Number of initial linear mixing iterations not set.
  Defaulting to    0 iterations.
  Work space size for distributed Hartree potential not set.
  Defaulting to   0.200000E+03 MB.
  Mixing parameter for charge density mixing has not been set.
  Using default: charge_mix_param =     0.0500.
  The mixing parameter will be adjusted in iteration number     2 of the first full s.c.f. cycle only.
  Algorithm-dependent basis array size parameters:
  | n_max_pulay                         :        8
  Maximum number of self-consistency iterations not provided.
  Presetting  1000 iterations.
  Presetting      1001 iterations before the initial mixing cycle
  is restarted anyway using the sc_init_iter criterion / keyword.
  Presetting a factor      1.000 between actual scf density residual
  and density convergence criterion sc_accuracy_rho below which sc_init_iter
  takes no effect.
  Calculation of forces was not defined in control.in. No forces will be calculated.
  Geometry relaxation not requested: no relaxation will be performed.
  No accuracy limit for integral partition fn. given. Defaulting to  0.1000E-14.
  No occupation type (smearing scheme) given. Defaulting to Gaussian broadening, width =  0.1000E-01 eV.
  The width will be adjusted in iteration number     2 of the first full s.c.f. cycle only.
  S.C.F. convergence parameters will be adjusted in iteration number     2 of the first full s.c.f. cycle only.
  No accuracy for occupation numbers given. Defaulting to  0.1000E-12.
  No threshold value for occupation numbers given. Defaulting to  0.0000E+00.
  No accuracy for fermi level given. Defaulting to  0.1000E-19.
  Maximum # of iterations to find E_F not set. Defaulting to  200.
  Preferred method for the eigenvalue solver ('KS_method') not specified in 'control.in'.
  Calling BLACS routine to test compilation state
  Since ScaLAPACK support is enabled, defaulting to ELPA (via ELSI).
  Will not use alltoall communication since running on < 1024 CPUs.
  Threshold for basis singularities not set.
  Default threshold for basis singularities:  0.1000E-04
  partition_type (choice of integration weights) for integrals was not specified.
  | Using a version of the partition function of Stratmann and coworkers ('stratmann_sparse').
  | At each grid point, the set of atoms used to build the partition table is smoothly restricted to
  | only those atoms whose free-atom density would be non-zero at that grid point.
  Partitioning for Hartree potential was not defined. Using partition_type for integrals.
  | Adjusted default value of keyword multip_moments_threshold to:       0.10000000E-11
  | This value may affect high angular momentum components of the Hartree potential in periodic systems.
  Angular momentum expansion for Kerker preconditioner not set explicitly.
  | Using default value of   0
  No explicit requirement for turning off preconditioner.
  | By default, it will be turned off when the charge convergence reaches
  | sc_accuracy_rho  =   0.100000E-05
  No special mixing parameter while Kerker preconditioner is on.
  Using default: charge_mix_param =     0.0500.
  Threshold for auxiliary basis singularities not set.
  Default threshold for auxiliary basis singularities:  0.1000E-04
  No q(lm)/r^(l+1) cutoff set for long-range Hartree potential.
  | Using default value of  0.100000E-09 .
  | Verify using the multipole_threshold keyword.
  Defaulting to new monopole extrapolation.
  Density update method: automatic selection selected.
  Using density matrix based charge density update.
  Using density matrix based charge density update.
  Using packed matrix style: index .
  Defaulting to use time-reversal symmetry for k-point grid.
  Charge integration errors on the 3D integration grid will be compensated
  by explicit normalization and distribution of residual charges.
  Use the "compensate_multipole_errors" flag to change this behaviour.
  Default to 1D ("use_logsbt") integrations for auxiliary 2-center integrals.
  Default onset of logarithmic r-grid for SBT is -38.000000000000
  Default onset of logarithmic k-grid for SBT is -25.000000000000
  Default range of logarithmic r- and k-grid for SBT is  45.000000000000
  Default number of logarithmic r- and k-grid for SBT is   4096
  Default of use_2d_corr is to use the efficient 2D distribution where possible
 
  Consistency checks for the contents of geometry.in are next.
 

  Range separation radius for Ewald summation (hartree_convergence_parameter):      3.05761342 bohr.
  Number of empty states per atom not set in control.in .
  | Since you are using a method that relies on the unoccupied spectrum
  | (MP2,GW,RPA et al.), will use the full Hamiltonian size (see below)
  | as the max. possible number of states (occupied plus empty).

  Structure-dependent array size parameters: 
  | Maximum number of distinct radial functions  :        9
  | Maximum number of basis functions            :      768
  | Number of Kohn-Sham states (occupied + empty):      768
------------------------------------------------------------

  Performing system and environment tests:
  | Environment variable OMP_NUM_THREADS correctly set to 1.
  | Checking for ScaLAPACK...
  | Testing pdtran()...
  | All pdtran() tests passed.
CUDA runtime version: 11060
CUDA driver version: 11060
  Initializing GPUs...

  Number of GPUs available to MPI task         0 :   1
  Number of GPUs available to MPI task         1 :   1
  Number of GPUs available to MPI task         2 :   1
  Number of GPUs available to MPI task         3 :   1
  Number of GPUs available to MPI task         4 :   1
  Number of GPUs available to MPI task         5 :   1
  Number of GPUs available to MPI task         6 :   1
  Number of GPUs available to MPI task         7 :   1
  Number of GPUs available to MPI task         8 :   1
  Number of GPUs available to MPI task         9 :   1
  Number of GPUs available to MPI task        10 :   1
  Number of GPUs available to MPI task        11 :   1
  Number of GPUs available to MPI task        12 :   1
  Number of GPUs available to MPI task        13 :   1
  Number of GPUs available to MPI task        14 :   1
  Number of GPUs available to MPI task        15 :   1
  Number of GPUs available to MPI task        16 :   1
  Number of GPUs available to MPI task        17 :   1

  | MPI task         0, GPU activated = T, Device Name = NVIDIA A100-SXM4-80GB
  | MPI task         1, GPU activated = T, Device Name = NVIDIA A100-SXM4-80GB
  | MPI task         2, GPU activated = T, Device Name = NVIDIA A100-SXM4-80GB
  | MPI task         3, GPU activated = T, Device Name = NVIDIA A100-SXM4-80GB
  | MPI task         4, GPU activated = T, Device Name = NVIDIA A100-SXM4-80GB
  | MPI task         5, GPU activated = T, Device Name = NVIDIA A100-SXM4-80GB
  | MPI task         6, GPU activated = T, Device Name = NVIDIA A100-SXM4-80GB
  | MPI task         7, GPU activated = T, Device Name = NVIDIA A100-SXM4-80GB
  | MPI task         8, GPU activated = T, Device Name = NVIDIA A100-SXM4-80GB
  | MPI task         9, GPU activated = T, Device Name = NVIDIA A100-SXM4-80GB
  | MPI task        10, GPU activated = T, Device Name = NVIDIA A100-SXM4-80GB
  | MPI task        11, GPU activated = T, Device Name = NVIDIA A100-SXM4-80GB
  | MPI task        12, GPU activated = T, Device Name = NVIDIA A100-SXM4-80GB
  | MPI task        13, GPU activated = T, Device Name = NVIDIA A100-SXM4-80GB
  | MPI task        14, GPU activated = T, Device Name = NVIDIA A100-SXM4-80GB
  | MPI task        15, GPU activated = T, Device Name = NVIDIA A100-SXM4-80GB
  | MPI task        16, GPU activated = T, Device Name = NVIDIA A100-SXM4-80GB
  | MPI task        17, GPU activated = T, Device Name = NVIDIA A100-SXM4-80GB

------------------------------------------------------------
          Preparing all fixed parts of the calculation.
------------------------------------------------------------
  Determining machine precision:
    2.225073858507201E-308
  Setting up grids for atomic and cluster calculations.

  Creating wave function, potential, and density for free atoms.
  Runtime choices for atomic solver:
  | atomic solver xc        : PW-LDA
  | compute density gradient: 0
  | compute kinetic density : F

  Species: H

  List of occupied orbitals and eigenvalues:
    n    l              occ      energy [Ha]    energy [eV]
    1    0           1.0000        -0.232375        -6.3233


  Species: O

  List of occupied orbitals and eigenvalues:
    n    l              occ      energy [Ha]    energy [eV]
    1    0           2.0000       -18.757744      -510.4242
    2    0           2.0000        -0.870917       -23.6989
    2    1           4.0000        -0.337950        -9.1961


  Adding cutoff potential to free-atom effective potential.
  Creating fixed part of basis set: Ionic, confined, hydrogenic.
 
  H                    hydrogenic:
 
  List of hydrogenic basis orbitals: 
    n    l      effective z      eigenvalue [eV]  inner max. [A]     outer max. [A]     outer radius [A]   
    2    0         2.100000       -14.9728           0.193243           1.317208           4.696947
    2    1         3.500000       -41.6669           0.602369           0.602369           3.862494
 
 
  O                    hydrogenic:
 
  List of hydrogenic basis orbitals: 
    n    l      effective z      eigenvalue [eV]  inner max. [A]     outer max. [A]     outer radius [A]   
    2    1         1.800000       -10.9749           1.164242           1.164242           4.691341
    3    2         7.600000       -87.3180           0.624125           0.624125           3.413946
    3    0         6.400000       -61.9207           0.061167           1.081902           4.151495
 
  Creating atomic-like basis functions for current effective potential.

  Species H                   :

  List of atomic basis orbitals and eigenvalues:
    n    l      energy [Ha]    energy [eV]    outer radius [A]
    1    0        -0.232375        -6.3233       4.696947


  Species O                   :

  List of atomic basis orbitals and eigenvalues:
    n    l      energy [Ha]    energy [eV]    outer radius [A]
    1    0       -18.757744      -510.4242       1.830144
    2    0        -0.870917       -23.6989       4.578029
    2    1        -0.337950        -9.1961       4.634338

  Assembling full basis from fixed parts.
  | Species H :   atomic orbital   1 s accepted.
  | Species H :    hydro orbital   2 s accepted.
  | Species H :    hydro orbital   2 p accepted.
  | Species O :   atomic orbital   1 s accepted.
  | Species O :    hydro orbital   3 s accepted.
  | Species O :   atomic orbital   2 s accepted.
  | Species O :   atomic orbital   2 p accepted.
  | Species O :    hydro orbital   2 p accepted.
  | Species O :    hydro orbital   3 d accepted.
 
  Basis size parameters after reduction:
  | Total number of radial functions:        9
  | Total number of basis functions :      768
 
  Per-task memory consumption for arrays in subroutine allocate_ext:
  |           2.268304MB.
  Testing on-site integration grid accuracy.
  |  Species  Function  <phi|h_atom|phi> (log., in eV)  <phi|h_atom|phi> (rad., in eV)
           1        1                 -6.3245358373                 -6.3232436907
           1        2                 14.1326137532                 14.1384481100
           1        3                 25.3627025200                 25.3628451197
           2        4               -510.4241781764               -510.4240769407
           2        5                 14.9072942213                 14.9072945271
           2        6                -21.2004736474                -21.2005650551
           2        7                 -9.1962086505                 -9.1963509834
           2        8                  8.1896755006                  8.1702200081
           2        9                 45.7920584937                 45.7920228520

  Preparing densities etc. for the partition functions (integrals / Hartree potential).

  Preparations completed.
  max(cpu_time)          :      0.068 s.
  Wall clock time (cpu1) :      0.062 s.
------------------------------------------------------------

  Initializing index lists of integration centers etc. from given atomic structure:
  Mapping all atomic coordinates to central unit cell.

  Initializing the k-points
  Using symmetry for reducing the k-points
  | k-points reduced from:        1 to        1
  | Number of k-points                             :         1
  | Consuming          0 KiB for k_phase_exx.
  The eigenvectors in the calculations are REAL.
  | Number of basis functions in the Hamiltonian integrals :      4340
  | Number of basis functions in a single unit cell        :       768
  | Number of centers in hartree potential         :      2563
  | Number of centers in hartree multipole         :      1830
  | Number of centers in electron density summation:      1408
  | Number of centers in basis integrals           :      1490
  | Number of centers in integrals                 :       680
  | Number of centers in hamiltonian               :      1408
  | Consuming          0 KiB for k_phase.
  | Number of super-cells (origin) [n_cells]                     :         125
  | Number of super-cells (after PM_index) [n_cells]             :          28
  | Number of super-cells in hamiltonian [n_cells_in_hamiltonian]:          28
  | Size of matrix packed + index [n_hamiltonian_matrix_size] :      738189
  | Size of matrix packed + index (no_symmetry):     1475609

------------------------------------------------------------
          Begin self-consistency loop: Initialization.

          Date     :  20230221, Time     :  160314.081
------------------------------------------------------------
  | Estimated reciprocal-space cutoff momentum G_max:         3.08822080 bohr^-1 .
  | Reciprocal lattice points for long-range Hartree potential:    3406
  Using simple linear distribution as default method for k-point parallelism.
  * Using 18 tasks for Scalapack Eigenvalue solver.
  Detailed listing of tasks and assigned k-points:
   Task     0 k-point     1 on adag039
   Task     1 k-point     1 on adag039
   Task     2 k-point     1 on adag039
   Task     3 k-point     1 on adag039
   Task     4 k-point     1 on adag039
   Task     5 k-point     1 on adag039
   Task     6 k-point     1 on adag039
   Task     7 k-point     1 on adag039
   Task     8 k-point     1 on adag039
   Task     9 k-point     1 on adag039
   Task    10 k-point     1 on adag039
   Task    11 k-point     1 on adag039
   Task    12 k-point     1 on adag039
   Task    13 k-point     1 on adag039
   Task    14 k-point     1 on adag039
   Task    15 k-point     1 on adag039
   Task    16 k-point     1 on adag039
   Task    17 k-point     1 on adag039
  K-point:     1 Tasks:    18 split into      6 X      3 BLACS grid
  Calculating block size based on n_basis =          768  max_nprow =            6  max_npcol =            3
  ScaLAPACK block size set to:           16
  Allocating        0.250 MB for ovlp
  Allocating        0.250 MB for ham
  Allocating        0.250 MB for eigenvec
  Required Scalapack workspace - INTEGER:            1  REAL:             1
  Partitioning the integration grid into batches with parallel hashing+maxmin method.
  | Number of batches:     3968
  | Maximal batch size:     197
  | Minimal batch size:      99
  | Average batch size:     128.419
  | Standard deviation of batch sizes:      23.041

  Integration load balanced across    18 MPI tasks.
  Work distribution over tasks is as follows:
  Task     0 has      28324 integration points.
  Task     1 has      28314 integration points.
  Task     2 has      28256 integration points.
  Task     3 has      28271 integration points.
  Task     4 has      28345 integration points.
  Task     5 has      28326 integration points.
  Task     6 has      28327 integration points.
  Task     7 has      28396 integration points.
  Task     8 has      28307 integration points.
  Task     9 has      28276 integration points.
  Task    10 has      28268 integration points.
  Task    11 has      28245 integration points.
  Task    12 has      28321 integration points.
  Task    13 has      28433 integration points.
  Task    14 has      28307 integration points.
  Task    15 has      28260 integration points.
  Task    16 has      28317 integration points.
  Task    17 has      28275 integration points.
  Initializing partition tables, free-atom densities, potentials, etc. across the integration grid (initialize_grid_storage).
  | initialize_grid_storage: Actual outermost partition radius vs. multipole_radius_free
  | (-- VB: in principle, multipole_radius_free should be larger, hence this output)
  | Species        1: Confinement radius =              4.999999999999999 AA, multipole_radius_free =              5.054417573612229 AA.
  | Species        1: outer_partition_radius set to              5.054417573612229 AA .
  | Species        2: Confinement radius =              4.999999999999999 AA, multipole_radius_free =              5.048384829883283 AA.
  | Species        2: outer_partition_radius set to              5.048384829883283 AA .
  | The sparse table of interatomic distances needs       4644.44 kbyte instead of     17760.80 kbyte of memory.
  | Net number of integration points:   509568
  | of which are non-zero points    :   408644
  | Numerical average free-atom electrostatic potential    :     -5.07945691 eV
  Renormalizing the initial density to the exact electron count on the 3D integration grid.
  | Initial density: Formal number of electrons (from input files) :     320.0000000000
  | Integrated number of electrons on 3D grid     :     320.0012145456
  | Charge integration error                      :       0.0012145456
  | Normalization factor for density and gradient :       0.9999962046
  Renormalizing the free-atom superposition density to the exact electron count on the 3D integration grid.
  | Formal number of electrons (from input files) :     320.0000000000
  | Integrated number of electrons on 3D grid     :     320.0012145456
  | Charge integration error                      :       0.0012145456
  | Normalization factor for density and gradient :       0.9999962046
  Obtaining max. number of non-zero basis functions in each batch (get_n_compute_maxes).
  | Maximal number of non-zero basis functions:      427 in task     0
  | Maximal number of non-zero basis functions:      429 in task     1
  | Maximal number of non-zero basis functions:      403 in task     2
  | Maximal number of non-zero basis functions:      397 in task     3
  | Maximal number of non-zero basis functions:      389 in task     4
  | Maximal number of non-zero basis functions:      399 in task     5
  | Maximal number of non-zero basis functions:      424 in task     6
  | Maximal number of non-zero basis functions:      418 in task     7
  | Maximal number of non-zero basis functions:      413 in task     8
  | Maximal number of non-zero basis functions:      394 in task     9
  | Maximal number of non-zero basis functions:      399 in task    10
  | Maximal number of non-zero basis functions:      408 in task    11
  | Maximal number of non-zero basis functions:      430 in task    12
  | Maximal number of non-zero basis functions:      409 in task    13
  | Maximal number of non-zero basis functions:      430 in task    14
  | Maximal number of non-zero basis functions:      398 in task    15
  | Maximal number of non-zero basis functions:      411 in task    16
  | Maximal number of non-zero basis functions:      407 in task    17
  Integrating Hamiltonian matrix: batch-based integration.
  GPU acceleration will be used when integrating the Hamiltonian matrix.
  Reporting GPU memory usage by myid 0.  Note that it is likely not the only MPI task binding to its GPU!
  Allocating        1.459 MB on GPU for hamiltonian_shell
  Allocating        0.673 MB on GPU for wave
  Allocating        0.002 MB on GPU for partition
  Allocating        0.673 MB on GPU for h_times_psi
  Time summed over all CPUs for integration: real work       11.112 s, elapsed       11.477 s
  Deallocating memory used on GPU for Hamiltonian integration.
  Integrating overlap matrix.
  Time summed over all CPUs for integration: real work        9.216 s, elapsed        9.631 s
  Deallocating overlap matrix.

  Updating Kohn-Sham eigenvalues and eigenvectors using ELSI and the ELPA eigensolver.
  Singularity check in k-point 1 (analysis for other k-points may follow below):
  Overlap matrix is not singular
  | Lowest and highest eigenvalues :  0.2282E-02,  0.7298E+01
  Finished singularity check of overlap matrix
  | Time :     0.142 s
  Starting ELPA eigensolver (GPU)
  Finished Cholesky decomposition
  | Time :     0.007 s
  Finished transformation to standard eigenproblem
  | Time :     0.027 s
  Finished solving standard eigenproblem
  | Time :     0.195 s
  Finished back-transformation of eigenvectors
  | Time :     0.017 s

  Obtaining occupation numbers and electronic chemical potential using ELSI.
  | Note that, for insulating systems, the printed 'chemical potential' value is not uniquely defined.
  | It can be anywhere in the energy gap, as long as it correctly separates occupied and unoccupied states.
  | In systems with a gap, the physically relevant chemical potential is the VBM or HOMO.

  | Chemical potential (Fermi level):    -6.03133985 eV
  Writing Kohn-Sham eigenvalues.

  State    Occupation    Eigenvalue [Ha]    Eigenvalue [eV]
      1       2.00000         -18.904749         -514.42439
      2       2.00000         -18.902680         -514.36809
      3       2.00000         -18.894891         -514.15614
      4       2.00000         -18.891662         -514.06828
      5       2.00000         -18.890630         -514.04019
      6       2.00000         -18.890604         -514.03949
      7       2.00000         -18.889272         -514.00324
      8       2.00000         -18.887519         -513.95553
      9       2.00000         -18.882931         -513.83068
     10       2.00000         -18.881543         -513.79293
     11       2.00000         -18.880113         -513.75401
     12       2.00000         -18.879940         -513.74931
     13       2.00000         -18.877207         -513.67493
     14       2.00000         -18.876900         -513.66657
     15       2.00000         -18.876396         -513.65288
     16       2.00000         -18.876166         -513.64662
     17       2.00000         -18.874017         -513.58814
     18       2.00000         -18.867880         -513.42115
     19       2.00000         -18.866650         -513.38766
     20       2.00000         -18.866503         -513.38366
     21       2.00000         -18.865794         -513.36437
     22       2.00000         -18.864908         -513.34027
     23       2.00000         -18.864466         -513.32823
     24       2.00000         -18.860997         -513.23385
     25       2.00000         -18.858741         -513.17244
     26       2.00000         -18.857810         -513.14711
     27       2.00000         -18.849716         -512.92688
     28       2.00000         -18.848423         -512.89168
     29       2.00000         -18.847104         -512.85580
     30       2.00000         -18.843838         -512.76693
     31       2.00000         -18.841518         -512.70380
     32       2.00000         -18.820953         -512.14419
     33       2.00000          -1.164338          -31.68324
     34       2.00000          -1.152097          -31.35016
     35       2.00000          -1.142762          -31.09613
     36       2.00000          -1.138719          -30.98611
     37       2.00000          -1.137238          -30.94583
     38       2.00000          -1.131783          -30.79739
     39       2.00000          -1.126397          -30.65083
     40       2.00000          -1.124465          -30.59826
     41       2.00000          -1.123837          -30.58115
     42       2.00000          -1.117740          -30.41525
     43       2.00000          -1.116188          -30.37302
     44       2.00000          -1.111584          -30.24774
     45       2.00000          -1.109030          -30.17823
     46       2.00000          -1.108328          -30.15913
     47       2.00000          -1.104385          -30.05185
     48       2.00000          -1.103278          -30.02172
     49       2.00000          -1.101341          -29.96902
     50       2.00000          -1.099663          -29.92336
     51       2.00000          -1.096156          -29.82792
     52       2.00000          -1.092148          -29.71886
     53       2.00000          -1.088096          -29.60859
     54       2.00000          -1.086902          -29.57610
     55       2.00000          -1.085587          -29.54033
     56       2.00000          -1.083178          -29.47478
     57       2.00000          -1.080441          -29.40029
     58       2.00000          -1.075288          -29.26008
     59       2.00000          -1.063386          -28.93619
     60       2.00000          -1.059374          -28.82703
     61       2.00000          -1.054974          -28.70730
     62       2.00000          -1.047947          -28.51608
     63       2.00000          -1.043665          -28.39956
     64       2.00000          -1.006678          -27.39310
     65       2.00000          -0.717840          -19.53343
     66       2.00000          -0.706460          -19.22376
     67       2.00000          -0.699814          -19.04290
     68       2.00000          -0.698385          -19.00402
     69       2.00000          -0.695150          -18.91598
     70       2.00000          -0.680751          -18.52419
     71       2.00000          -0.674956          -18.36648
     72       2.00000          -0.672321          -18.29480
     73       2.00000          -0.670955          -18.25762
     74       2.00000          -0.663658          -18.05906
     75       2.00000          -0.661625          -18.00374
     76       2.00000          -0.661235          -17.99313
     77       2.00000          -0.661002          -17.98678
     78       2.00000          -0.659877          -17.95617
     79       2.00000          -0.654661          -17.81424
     80       2.00000          -0.651387          -17.72515
     81       2.00000          -0.640959          -17.44138
     82       2.00000          -0.639440          -17.40004
     83       2.00000          -0.637119          -17.33688
     84       2.00000          -0.636597          -17.32267
     85       2.00000          -0.630947          -17.16895
     86       2.00000          -0.626543          -17.04911
     87       2.00000          -0.625775          -17.02821
     88       2.00000          -0.624014          -16.98027
     89       2.00000          -0.622647          -16.94309
     90       2.00000          -0.615922          -16.76008
     91       2.00000          -0.607932          -16.54267
     92       2.00000          -0.601749          -16.37443
     93       2.00000          -0.599398          -16.31045
     94       2.00000          -0.586090          -15.94832
     95       2.00000          -0.580955          -15.80858
     96       2.00000          -0.578154          -15.73238
     97       2.00000          -0.576873          -15.69752
     98       2.00000          -0.575254          -15.65345
     99       2.00000          -0.562507          -15.30659
    100       2.00000          -0.557359          -15.16652
    101       2.00000          -0.556588          -15.14554
    102       2.00000          -0.554190          -15.08028
    103       2.00000          -0.552776          -15.04180
    104       2.00000          -0.547179          -14.88950
    105       2.00000          -0.546253          -14.86430
    106       2.00000          -0.544857          -14.82632
    107       2.00000          -0.533578          -14.51940
    108       2.00000          -0.531205          -14.45482
    109       2.00000          -0.529718          -14.41435
    110       2.00000          -0.528447          -14.37978
    111       2.00000          -0.527646          -14.35798
    112       2.00000          -0.525698          -14.30498
    113       2.00000          -0.524204          -14.26433
    114       2.00000          -0.523168          -14.23612
    115       2.00000          -0.515967          -14.04018
    116       2.00000          -0.511280          -13.91264
    117       2.00000          -0.508962          -13.84957
    118       2.00000          -0.508303          -13.83162
    119       2.00000          -0.507012          -13.79651
    120       2.00000          -0.506131          -13.77252
    121       2.00000          -0.502393          -13.67080
    122       2.00000          -0.501179          -13.63777
    123       2.00000          -0.498552          -13.56628
    124       2.00000          -0.496754          -13.51737
    125       2.00000          -0.493965          -13.44146
    126       2.00000          -0.489737          -13.32643
    127       2.00000          -0.486892          -13.24899
    128       2.00000          -0.479289          -13.04211
    129       2.00000          -0.476780          -12.97385
    130       2.00000          -0.476418          -12.96398
    131       2.00000          -0.474942          -12.92382
    132       2.00000          -0.473158          -12.87528
    133       2.00000          -0.472620          -12.86065
    134       2.00000          -0.470600          -12.80567
    135       2.00000          -0.470076          -12.79141
    136       2.00000          -0.469202          -12.76764
    137       2.00000          -0.466837          -12.70327
    138       2.00000          -0.464202          -12.63158
    139       2.00000          -0.463845          -12.62188
    140       2.00000          -0.461965          -12.57070
    141       2.00000          -0.461589          -12.56047
    142       2.00000          -0.459527          -12.50438
    143       2.00000          -0.459243          -12.49663
    144       2.00000          -0.457440          -12.44756
    145       2.00000          -0.456015          -12.40879
    146       2.00000          -0.453110          -12.32974
    147       2.00000          -0.451822          -12.29469
    148       2.00000          -0.451117          -12.27553
    149       2.00000          -0.450764          -12.26590
    150       2.00000          -0.448103          -12.19350
    151       2.00000          -0.446243          -12.14288
    152       2.00000          -0.445433          -12.12085
    153       2.00000          -0.443472          -12.06748
    154       2.00000          -0.442802          -12.04927
    155       2.00000          -0.441445          -12.01232
    156       2.00000          -0.438459          -11.93108
    157       2.00000          -0.434205          -11.81533
    158       2.00000          -0.433392          -11.79321
    159       2.00000          -0.431168          -11.73268
    160       2.00000          -0.415822          -11.31508
    161       0.00000          -0.173091           -4.71004
    162       0.00000          -0.120731           -3.28526
    163       0.00000          -0.115770           -3.15025
    164       0.00000          -0.107931           -2.93697
    165       0.00000          -0.106110           -2.88740
    166       0.00000          -0.105356           -2.86688
    167       0.00000          -0.100616           -2.73791
    168       0.00000          -0.075914           -2.06573
    169       0.00000          -0.070552           -1.91983
    170       0.00000          -0.068821           -1.87270
    171       0.00000          -0.066437           -1.80785
    172       0.00000          -0.059455           -1.61787
    173       0.00000          -0.055389           -1.50721
    174       0.00000          -0.052525           -1.42927
    175       0.00000          -0.048355           -1.31580
    176       0.00000          -0.046806           -1.27366
    177       0.00000          -0.042154           -1.14706
    178       0.00000          -0.037363           -1.01670
    179       0.00000          -0.029424           -0.80068
    180       0.00000          -0.025126           -0.68373
    181       0.00000          -0.016338           -0.44458
    182       0.00000          -0.014866           -0.40452
    183       0.00000          -0.010032           -0.27297
    184       0.00000          -0.000741           -0.02015
    185       0.00000           0.002192            0.05966
    186       0.00000           0.006684            0.18189
    187       0.00000           0.015399            0.41903
    188       0.00000           0.018002            0.48986
    189       0.00000           0.020525            0.55852
    190       0.00000           0.024545            0.66790
    191       0.00000           0.031091            0.84603
    192       0.00000           0.035740            0.97252
    193       0.00000           0.038198            1.03941
    194       0.00000           0.042216            1.14876
    195       0.00000           0.044375            1.20751
    196       0.00000           0.046862            1.27517
    197       0.00000           0.048260            1.31323
    198       0.00000           0.053215            1.44806
    199       0.00000           0.055601            1.51297
    200       0.00000           0.056372            1.53395
    201       0.00000           0.058207            1.58391
    202       0.00000           0.062102            1.68988
    203       0.00000           0.065443            1.78080
    204       0.00000           0.069121            1.88087
    205       0.00000           0.071995            1.95908
    206       0.00000           0.075830            2.06343
    207       0.00000           0.077910            2.12004
    208       0.00000           0.081401            2.21504
    209       0.00000           0.082394            2.24207
    210       0.00000           0.084746            2.30604
    211       0.00000           0.085885            2.33705
    212       0.00000           0.088792            2.41617
    213       0.00000           0.092602            2.51983
    214       0.00000           0.097649            2.65717
    215       0.00000           0.097903            2.66409
    216       0.00000           0.100648            2.73876
    217       0.00000           0.101260            2.75543
    218       0.00000           0.109175            2.97079
    219       0.00000           0.114244            3.10873
    220       0.00000           0.117973            3.21021
    221       0.00000           0.121438            3.30449
    222       0.00000           0.125164            3.40589
    223       0.00000           0.135233            3.67989
    224       0.00000           0.143318            3.89988
    225       0.00000           0.145373            3.95581
    226       0.00000           0.149918            4.07948
    227       0.00000           0.154600            4.20688
    228       0.00000           0.161259            4.38807
    229       0.00000           0.166770            4.53805
    230       0.00000           0.170828            4.64848
    231       0.00000           0.177808            4.83839
    232       0.00000           0.181515            4.93928
    233       0.00000           0.182174            4.95721
    234       0.00000           0.191733            5.21731
    235       0.00000           0.195235            5.31261
    236       0.00000           0.206153            5.60972
    237       0.00000           0.212736            5.78885
    238       0.00000           0.214136            5.82695
    239       0.00000           0.220364            5.99642
    240       0.00000           0.223061            6.06981
    241       0.00000           0.228953            6.23013
    242       0.00000           0.230696            6.27756
    243       0.00000           0.237284            6.45682
    244       0.00000           0.248704            6.76758
    245       0.00000           0.253427            6.89611
    246       0.00000           0.259141            7.05159
    247       0.00000           0.260552            7.08999
    248       0.00000           0.263249            7.16337
    249       0.00000           0.271079            7.37643
    250       0.00000           0.274145            7.45985
    251       0.00000           0.280701            7.63825
    252       0.00000           0.286628            7.79955
    253       0.00000           0.293927            7.99816
    254       0.00000           0.306974            8.35320
    255       0.00000           0.310766            8.45637
    256       0.00000           0.315596            8.58781
    257       0.00000           0.320000            8.70763
    258       0.00000           0.323221            8.79530
    259       0.00000           0.324635            8.83376
    260       0.00000           0.332035            9.03514
[...]
  |    H      0     4.527807 A      4.527807 A        1.268855E-16 a.u.
  |    H      0     4.527807 A      4.583499 A       -4.900954E-17 a.u.
  |    H      0     4.527807 A      4.583499 A        4.713786E-16 a.u.
  |    H      2     3.678162 A  2.180220E+05 A            0.556529 a.u.
  |    H      1     3.958095 A  1.721251E+08 A            0.841931 a.u.
  |    H      0     4.527807 A  3.866455E+16 A            0.581436 a.u.
  |    O      0     2.043000 A      2.043000 A       -1.436841E-16 a.u.
  |    O      3     3.498446 A      3.498446 A        3.043453E-17 a.u.
  |    O      3     3.498446 A      3.498446 A        1.541443E-16 a.u.
  |    O      0     3.905335 A      3.905335 A        2.173090E-16 a.u.
  |    O      0     3.905335 A      3.905335 A        7.213445E-17 a.u.
  |    O      0     4.101052 A      4.101052 A        2.361718E-16 a.u.
  |    O      1     4.101052 A      4.101052 A        3.235185E-17 a.u.
  |    O      0     4.359549 A      4.359549 A       -5.329475E-17 a.u.
  |    O      1     4.413171 A      4.413171 A        3.261883E-17 a.u.
  |    O      1     4.522403 A      4.522403 A        6.417997E-16 a.u.
  |    O      1     4.522403 A      4.522403 A        4.224783E-16 a.u.
  |    O      2     4.522403 A      4.522403 A       -4.387647E-16 a.u.
  |    O      0     4.522403 A      4.578029 A        2.602039E-16 a.u.
  |    O      0     4.578029 A      4.578029 A        1.226235E-16 a.u.
  |    O      1     4.578029 A      4.578029 A       -6.107316E-16 a.u.
  |    O      1     4.578029 A      4.578029 A       -2.224438E-16 a.u.
  |    O      2     4.578029 A      4.578029 A       -7.020279E-16 a.u.
  |    O      2     4.522403 A      4.578029 A        1.323470E-15 a.u.
  |    O      2     4.578029 A      4.578029 A        7.923696E-16 a.u.
  |    O      2     4.522403 A      4.578029 A       -9.951815E-16 a.u.
  |    O      0     4.578029 A      4.634338 A       -8.813582E-18 a.u.
  |    O      1     4.578029 A      4.634338 A       -3.325386E-17 a.u.
  |    O      1     4.634338 A      4.634338 A        9.588032E-16 a.u.
  |    O      2     4.578029 A      4.634338 A        1.064715E-17 a.u.
  |    O      2     4.578029 A      4.634338 A       -3.770343E-15 a.u.
  |    O      4     3.251020 A  1.511584E+03 A            1.513372 a.u.
  |    O      3     3.541477 A  1.434166E+04 A            4.293220 a.u.
  |    O      2     4.634338 A  5.584435E+05 A            9.352428 a.u.
  |    O      1     4.634338 A  2.821283E+08 A            2.261940 a.u.
  |    O      0     4.578029 A  4.264100E+16 A            0.641234 a.u.

  | Shrink_full_auxil_basis : there are       38  radial auxiliary wave functions
                            accepted and       5 rejected.
  | Shrink_full_auxil_basis : there are totally                4544 partial auxiliary wave functions.
 
  | Maximal number of product basis functions per thread :   256   256
 
  | Minimal total memory requirement for three-center overlap :      10.450 Gbs
  | Number of local auxiliary basis functions on task:      0   256
  | Number of local auxiliary basis functions on task:      1   256
  | Number of local auxiliary basis functions on task:      2   256
  | Number of local auxiliary basis functions on task:      3   256
  | Number of local auxiliary basis functions on task:      4   256
  | Number of local auxiliary basis functions on task:      5   256
  | Number of local auxiliary basis functions on task:      6   256
  | Number of local auxiliary basis functions on task:      7   256
  | Number of local auxiliary basis functions on task:      8   256
  | Number of local auxiliary basis functions on task:      9   256
  | Number of local auxiliary basis functions on task:     10   256
  | Number of local auxiliary basis functions on task:     11   256
  | Number of local auxiliary basis functions on task:     12   256
  | Number of local auxiliary basis functions on task:     13   256
  | Number of local auxiliary basis functions on task:     14   240
  | Number of local auxiliary basis functions on task:     15   240
  | Number of local auxiliary basis functions on task:     16   240
  | Number of local auxiliary basis functions on task:     17   240
  | 2D aux task distribution:      3 X      6
  | 2D block size (nb_aux_2d):     64
 
  Basis pair condensation :    295296  -->     214034
 
 --------------------------------------------
  Constructing auxiliary basis (full product) ...
 
  Product basis:
  | charge radius: extent of product basis function
  | field radius: extent of its Coulomb potential
  | Species   l  charge radius    field radius  multipol momen
  |    H      1     3.910002 A      3.910002 A       -2.487223E-16 a.u.
  |    H      1     3.958095 A      3.958095 A       -2.441841E-16 a.u.
  |    H      0     4.527807 A      4.527807 A        1.268855E-16 a.u.
  |    H      0     4.527807 A      4.583499 A       -4.900954E-17 a.u.
  |    H      0     4.527807 A      4.583499 A        4.713786E-16 a.u.
  |    H      2     3.678162 A  2.180220E+05 A            0.556529 a.u.
  |    H      1     3.958095 A  1.721251E+08 A            0.841931 a.u.
  |    H      0     4.527807 A  3.866455E+16 A            0.581436 a.u.
  |    O      0     2.043000 A      2.043000 A       -1.436841E-16 a.u.
  |    O      3     3.498446 A      3.498446 A        3.043453E-17 a.u.
  |    O      3     3.498446 A      3.498446 A        1.541443E-16 a.u.
  |    O      0     3.905335 A      3.905335 A        2.173090E-16 a.u.
  |    O      0     3.905335 A      3.905335 A        7.213445E-17 a.u.
  |    O      0     4.101052 A      4.101052 A        2.361718E-16 a.u.
  |    O      1     4.101052 A      4.101052 A        3.235185E-17 a.u.
  |    O      0     4.359549 A      4.359549 A       -5.329475E-17 a.u.
  |    O      1     4.413171 A      4.413171 A        3.261883E-17 a.u.
  |    O      1     4.522403 A      4.522403 A        6.417997E-16 a.u.
  |    O      1     4.522403 A      4.522403 A        4.224783E-16 a.u.
  |    O      2     4.522403 A      4.522403 A       -4.387647E-16 a.u.
  |    O      0     4.522403 A      4.578029 A        2.602039E-16 a.u.
  |    O      0     4.578029 A      4.578029 A        1.226235E-16 a.u.
  |    O      1     4.578029 A      4.578029 A       -6.107316E-16 a.u.
  |    O      1     4.578029 A      4.578029 A       -2.224438E-16 a.u.
  |    O      2     4.578029 A      4.578029 A       -7.020279E-16 a.u.
  |    O      2     4.522403 A      4.578029 A        1.323470E-15 a.u.
  |    O      2     4.578029 A      4.578029 A        7.923696E-16 a.u.
  |    O      2     4.522403 A      4.578029 A       -9.951815E-16 a.u.
  |    O      0     4.578029 A      4.634338 A       -8.813582E-18 a.u.
  |    O      1     4.578029 A      4.634338 A       -3.325386E-17 a.u.
  |    O      1     4.634338 A      4.634338 A        9.588032E-16 a.u.
  |    O      2     4.578029 A      4.634338 A        1.064715E-17 a.u.
  |    O      2     4.578029 A      4.634338 A       -3.770343E-15 a.u.
  |    O      4     3.251020 A  1.511584E+03 A            1.513372 a.u.
  |    O      3     3.541477 A  1.434166E+04 A            4.293220 a.u.
  |    O      2     4.634338 A  5.584435E+05 A            9.352428 a.u.
  |    O      1     4.634338 A  2.821283E+08 A            2.261940 a.u.
  |    O      0     4.578029 A  4.264100E+16 A            0.641234 a.u.

  | Shrink_full_auxil_basis : there are       38  radial auxiliary wave functions
                            accepted and       5 rejected.
  | Shrink_full_auxil_basis : there are totally                4544 partial auxiliary wave functions.
 
  | Maximal number of product basis functions per thread :   256   256
 
  | Minimal total memory requirement for three-center overlap :      10.450 Gbs
  | Number of local auxiliary basis functions on task:      0   256
  | Number of local auxiliary basis functions on task:      1   256
  | Number of local auxiliary basis functions on task:      2   256
  | Number of local auxiliary basis functions on task:      3   256
  | Number of local auxiliary basis functions on task:      4   256
  | Number of local auxiliary basis functions on task:      5   256
  | Number of local auxiliary basis functions on task:      6   256
  | Number of local auxiliary basis functions on task:      7   256
  | Number of local auxiliary basis functions on task:      8   256
  | Number of local auxiliary basis functions on task:      9   256
  | Number of local auxiliary basis functions on task:     10   256
  | Number of local auxiliary basis functions on task:     11   256
  | Number of local auxiliary basis functions on task:     12   256
  | Number of local auxiliary basis functions on task:     13   256
  | Number of local auxiliary basis functions on task:     14   240
  | Number of local auxiliary basis functions on task:     15   240
  | Number of local auxiliary basis functions on task:     16   240
  | Number of local auxiliary basis functions on task:     17   240
  | 2D aux task distribution:      3 X      6
  | 2D block size (nb_aux_2d):     64
 
  Basis pair condensation :    295296  -->     214034
dP_dE (Bohr^3) at every cycle:--->
 (346.580810384916,0.000000000000000E+000) (7.35678654433852,0.000000000000000E+000) (1.44692796962974,0.000000000000000E+000)
 (7.33976142666855,0.000000000000000E+000) (359.340630471851,0.000000000000000E+000) (6.81553735531368,0.000000000000000E+000)
 (1.45958730730616,0.000000000000000E+000) (6.83073163865195,0.000000000000000E+000) (356.392673179027,0.000000000000000E+000)
DFPT polarizability (Bohr^3)        xx        yy        zz        xy        xz        yz
  | Polarizability:--->                       346.580810385                  359.340630472                  356.392673179                    7.356786544                    1.446927970                    6.815537355

DFPT for dielectric_constant:--->  # PARSE DFPT_dielectric_tensor
               1.629050375623589             0.013352699285223             0.002626200168974
               0.013321798391854             1.652209677518179             0.012370322317255
               0.002649177093494             0.012397900213534             1.646859082254945

                                               :  max(cpu_time)    wall_clock(cpu1)
  | Time for  dielectric calculation            :        0.000 s           0.000 s
===========================================================================

------------------------------------------------------------------------------
  Final output of selected total energy values:

  The following output summarizes some interesting total energy values
  at the end of a run (AFTER all relaxation, molecular dynamics, etc.).

  | Total energy of the DFT / Hartree-Fock s.c.f. calculation      :         -66109.116865684 eV
  | Final zero-broadening corrected energy (caution - metals only) :         -66109.116865684 eV
  | For reference only, the value of 1 Hartree used in FHI-aims is :             27.211384500 eV
  | For reference only, the overall average (free atom contribution
  | + realspace contribution) of the electrostatic potential after
  | s.c.f. convergence is                                          :             -4.685443409 eV

  Before relying on these values, please be sure to understand exactly which
  total energy value is referred to by a given number. Different objects may
  all carry the same name 'total energy'. Definitions:

  Total energy of the DFT / Hartree-Fock s.c.f. calculation:
  | Note that this energy does not include ANY quantities calculated after the
  | s.c.f. cycle, in particular not ANY RPA, MP2, etc. many-body perturbation terms.

  Final zero-broadening corrected energy:
  | For metallic systems only, a broadening of the occupation numbers at the Fermi
  | level can be extrapolated back to zero broadening by an electron-gas inspired
  | formula. For all systems that are not real metals, this value can be
  | meaningless and should be avoided.

------------------------------------------------------------------------------
  Methods described in the following list of references were used in this FHI-aims run.
  If you publish the results, please make sure to cite these reference if they apply.
  FHI-aims is an academic code, and for our developers (often, Ph.D. students
  and postdocs), scientific credit in the community is essential.
  Thank you for helping us!

  For any use of FHI-aims, please cite:

    Volker Blum, Ralf Gehrke, Felix Hanke, Paula Havu, Ville Havu,
    Xinguo Ren, Karsten Reuter, and Matthias Scheffler
    'Ab initio molecular simulations with numeric atom-centered orbitals'
    Computer Physics Communications 180, 2175-2196 (2009)
    http://doi.org/10.1016/j.cpc.2009.06.022


  For Hartree-Fock, hybrid functionals, or many-body perturbation theory used in your run, please cite:

    Xinguo Ren, Patrick Rinke, Volker Blum, Juergen Wieferink, Alex Tkatchenko,
    Andrea Sanfilippo, Karsten Reuter, and Matthias Scheffler,
    'Resolution-of-identity approach to Hartree-Fock, hybrid density functionals,
    RPA, MP2, and GW with numeric atom-centered orbital basis functions'
    New Journal of Physics 14, 053020 (2012).
    http://doi.org/10.1088/1367-2630/14/5/053020


  The provided symmetry information was generated with SPGlib:

    Atsushi Togo, Yusuke Seto, Dimitar Pashov
    SPGlib 1.7.3 obtained from http://spglib.sourceforge.net
    Copyright (C) 2008 Atsushi Togo


  The DFPT (perturbation by an electric field) part of the code was used.
  Here is the corresponding reference:

    Honghui Shang, Nathaniel Raimbault, Mariana Rossi,
    Christian Carbogno, Patrick Rinke and Matthias Scheffler,
    'All-Electron, Real-Space Perturbation Theory for Homogeneous
    Electric Fields: Theory, Implementation, and Application within dft'
    New Journal of Physics, 20(7):073040, 2018


  The ELSI infrastructure was used in your run to solve the Kohn-Sham electronic structure.
  Please check out http://elsi-interchange.org to learn more.
  If scalability is important for your project, please acknowledge ELSI by citing:

    V. W-z. Yu, F. Corsetti, A. Garcia, W. P. Huhn, M. Jacquelin, W. Jia,
    B. Lange, L. Lin, J. Lu, W. Mi, A. Seifitokaldani, A. Vazquez-Mayagoitia,
    C. Yang, H. Yang, and V. Blum
    'ELSI: A unified software interface for Kohn-Sham electronic structure solvers'
    Computer Physics Communications 222, 267-285 (2018).
    http://doi.org/10.1016/j.cpc.2017.09.007


  For the real-space grid partitioning and parallelization used in this calculation, please cite:

    Ville Havu, Volker Blum, Paula Havu, and Matthias Scheffler,
    'Efficient O(N) integration for all-electron electronic structure calculation'
    'using numerically tabulated basis functions'
    Journal of Computational Physics 228, 8367-8379 (2009).
    http://doi.org/10.1016/j.jcp.2009.08.008


  The high-level electronic structure method used in your calculation
  employed our efficient localized resolution of identity for the Coulomb operator.
  Some calculations, especially large-scale hybrid density functional theory,
  are only possible thanks to this development. For this feature, please cite:

    Arvid Ihrig, Juergen Wieferink, Igor Ying Zhang, Matti Ropo, Xinguo Ren,
    Patrick Rinke, Matthias Scheffler, and Volker Blum,
    'Accurate localized resolution of identity approach for linear-scaling
    hybrid density functionals and for many-body perturbation theory'
    New Journal of Physics 117, 093020 (2015).
    http://doi.org/10.1088/1367-2630/17/9/093020

  Of course, there are many other important community references, e.g., those cited in the
  above references. Our list is limited to references that describe implementations in the
  FHI-aims code. The reason is purely practical (length of this list) - please credit others as well.

------------------------------------------------------------
          Leaving FHI-aims.
          Date     :  20230221, Time     :  161030.828

          Computational steps:
          | Number of self-consistency cycles          :           45
          | Number of SCF (re)initializations          :            1
          | Number of coupled perturbed self-consistency cycles          :            0
          | Number of CPSCF (re)initializations          :            0

          Detailed time accounting                     :  max(cpu_time)    wall_clock(cpu1)
          | Total time                                  :      436.791 s         447.931 s
          | GPU initialization                          :        2.114 s           9.629 s
          | Preparation time                            :        0.068 s           0.062 s
          | Boundary condition initalization            :        1.390 s           1.390 s
          | Grid partitioning                           :        0.420 s           0.420 s
          | Preloading free-atom quantities on grid     :        2.239 s           2.240 s
          | Free-atom superposition energy              :        0.298 s           0.298 s
          | Total time for integrations                 :       11.583 s          11.768 s
          | Product basis setup: Total time             :        0.000 s           0.000 s
          | Product basis: | 2-center integrations     :(       0.000 s)  (       0.000 s)
          | Product basis: | LVL 3-center & coefficient:(       0.000 s)  (       0.000 s)
          | Total time for solution of K.-S. equations  :        2.273 s           4.650 s
          | Total time for density update               :        7.961 s           8.240 s
          | Total time for mixing & preconditioning     :        8.088 s           8.095 s
          | Total time for Hartree multipole update     :        0.101 s           0.100 s
          | Total time for Hartree multipole sum        :       35.551 s          35.563 s
          | Total time for total energy evaluation      :        0.006 s           0.010 s
          | Total time for DFPT                         :      364.186 s         364.319 s
          | Total time first_order_DM                   :        0.299 s           0.303 s
          | Total time first_order_density              :       76.947 s          76.943 s
          | Total time first_order_potential            :       53.394 s          53.414 s
          | Total time first_order_H                    :      149.612 s         149.665 s
          | Total time solving of Sternheimer equations :        0.186 s           0.182 s
          | Total time for dielectric constant          :        0.000 s           0.000 s
          | Total time momentum matrix                  :        0.000 s           0.000 s

          GPU acceleration has been used for charge density update.
          GPU acceleration has been used for real-space Hamiltonian integration.
          Due to GPU usage, wall_clock(cpu1) will give a more reliable estimate for timings.

          Partial memory accounting:
          | Residual value for overall tracked memory usage across tasks:     0.000000 MB (should be 0.000000 MB)
          | Peak values for overall tracked memory usage:
          |   Minimum:      110.575 MB (on task  0 after allocating DFPT_pulay_mixing::pulay_mix::alphas)
          |   Maximum:      110.575 MB (on task  0 after allocating DFPT_pulay_mixing::pulay_mix::alphas)
          |   Average:      110.575 MB
          | Largest tracked array allocation:
          |   Minimum:       39.424 MB (DFPT_pulay_mixing::initialize_pulay_mixing::X_in_diffs on task  0)
          |   Maximum:       39.424 MB (DFPT_pulay_mixing::initialize_pulay_mixing::X_in_diffs on task  0)
          |   Average:       39.424 MB
          Note:  These values currently only include a subset of arrays which are explicitly tracked.
          The "true" memory usage will be greater.

          Have a nice day.
------------------------------------------------------------
