------------------------------------------------------------
          Invoking FHI-aims ...

          When using FHI-aims, please cite the following reference:

            Volker Blum, Ralf Gehrke, Felix Hanke, Paula Havu,
            Ville Havu, Xinguo Ren, Karsten Reuter, and Matthias Scheffler,
            'Ab Initio Molecular Simulations with Numeric Atom-Centered Orbitals',
            Computer Physics Communications 180, 2175-2196 (2009)

          In addition, many other developments in FHI-aims are likely important for
          your particular application. A partial list of references is given at the end of
          this file. Thank you for giving credit to the authors of these developments.

          For any questions about FHI-aims, please visit our slack channel at

            https://fhi-aims.slack.com

          and our main development and support site at

            https://aims-git.rz-berlin.mpg.de .

          The latter site, in particular, has a wiki to collect information, as well
          as an issue tracker to log discussions, suggest improvements, and report issues
          or bugs. https://aims-git.rz-berlin.mpg.de is also the main development site
          of the project and all new and updated code versions can be obtained there.
          Please send an email to aims-coordinators@fhi-berlin.mpg.de and we will add
          you to these sites. They are for you and everyone is welcome there.

------------------------------------------------------------



  Date     :  20230221, Time     :  143531.002
  Time zero on CPU 1             :   0.426256000000000E+00  s.
  Internal wall clock time zero  :           446222131.002  s.

  FHI-aims created a unique identifier for this run for later identification
  aims_uuid : B7263875-E7C2-4AE0-A054-C0FD8647C90E

  Build configuration of the current instance of FHI-aims
  -------------------------------------------------------
  FHI-aims version      : 221103
  Commit number         : 42523251a
  CMake host system     : Linux-5.3.18-150300.59.68-default
  CMake version         : 3.17.0
  Fortran compiler      : /mpcdf/soft/SLE_15/packages/x86_64/intel_oneapi/2021.3/mpi/2021.3.0/bin/mpiifort (Intel) version 20.2.3.20210609
  Fortran compiler flags: -O3 -ip -fp-model precise
  C compiler            : /mpcdf/soft/SLE_15/packages/x86_64/intel/2021.3.0/bin/icc (Intel) version 20.2.3.20210609
  C compiler flags      : -O3 -ip -fp-model precise -std=gnu99
  CUDA compiler         : /mpcdf/soft/SLE_15/packages/x86_64/cuda/11.6.2/bin/nvcc
  CUDA compiler flags   : -O3 -DAdd_ -lcublas
  HIP compiler          :
  HIP compiler flags    :
  HIP GPU arch          :
  ELPA2 kernel          : AVX512
  Using MPI
  Using ScaLAPACK
  Using LibXC
  Using CUDA
  Using i-PI
  Using RLSY
  Linking against: /mpcdf/soft/SLE_15/packages/x86_64/cuda/11.6.2/lib64/libcublas.so
                   /mpcdf/soft/SLE_15/packages/x86_64/cuda/11.6.2/lib64/libcudart.so
                   /mpcdf/soft/SLE_15/packages/x86_64/intel_oneapi/2021.3/mkl/latest/lib/intel64/libmkl_intel_lp64.so
                   /mpcdf/soft/SLE_15/packages/x86_64/intel_oneapi/2021.3/mkl/latest/lib/intel64/libmkl_sequential.so
                   /mpcdf/soft/SLE_15/packages/x86_64/intel_oneapi/2021.3/mkl/latest/lib/intel64/libmkl_core.so
                   /mpcdf/soft/SLE_15/packages/x86_64/intel_oneapi/2021.3/mkl/latest/lib/intel64/libmkl_blacs_intelmpi_lp64.so
                   /mpcdf/soft/SLE_15/packages/x86_64/intel_oneapi/2021.3/mkl/latest/lib/intel64/libmkl_scalapack_lp64.so

  Using       18 parallel tasks.
  Task        0 on host adag039 reporting.
  Task        1 on host adag039 reporting.
  Task        2 on host adag039 reporting.
  Task        3 on host adag039 reporting.
  Task        4 on host adag039 reporting.
  Task        5 on host adag039 reporting.
  Task        6 on host adag039 reporting.
  Task        7 on host adag039 reporting.
  Task        8 on host adag039 reporting.
  Task        9 on host adag039 reporting.
  Task       10 on host adag039 reporting.
  Task       11 on host adag039 reporting.
  Task       12 on host adag039 reporting.
  Task       13 on host adag039 reporting.
  Task       14 on host adag039 reporting.
  Task       15 on host adag039 reporting.
  Task       16 on host adag039 reporting.
  Task       17 on host adag039 reporting.

  Obtaining array dimensions for all initial allocations:
  
  -----------------------------------------------------------------------
  Parsing control.in (first pass over file, find array dimensions only).
  The contents of control.in will be repeated verbatim below
  unless switched off by setting 'verbatim_writeout .false.' .
  in the first line of control.in .
  -----------------------------------------------------------------------
  
  #########################################################################################
  #
  #  Volker Blum, 2017 : Test run input file control.in for simple H2O
  #
  #########################################################################################
  #
  #  Physical model
  #
    xc                 pw-lda
    spin               none
    relativistic       none
    charge             0.
  
    use_gpu
  
    DFPT dielectric
    ri_density_restart write
    ri_rho1 write
  #  ri_density_restart read 0
  #  ri_rho1 read
    ri_full_output .true.
    sc_accuracy_rho    1d-6
  #  use_calculate_fock_matrix_old .false.
  #  wave_threshold 1e-8
    k_grid 1 1 1
  #  output cube eigenstate 160
  #  output cube eigenstate 161
    wave_threshold 1e-8
    default_prodbas_acc 1e-6
    default_max_l_prodbas 6
  #
  #  Relaxation
  #
  #  relax_geometry   bfgs 1.e-2
  #
  
  ################################################################################
  
  
  ################################################################################
  #
  #  FHI-aims code project
  #  VB, Fritz-Haber Institut, 2009
  #
  #  Suggested "light" defaults for H atom (to be pasted into control.in file)
  #  Be sure to double-check any results obtained with these settings for post-processing,
  #  e.g., with the "tight" defaults and larger basis sets.
  #
  ################################################################################
    species        H
  #     global species definitions
      nucleus             1
      mass                1.00794
  #
      l_hartree           4
  #
      cut_pot             3.5  1.5  1.0
      basis_dep_cutoff    1e-4
  #
      radial_base         24 5.0
      radial_multiplier   1
      angular_grids       specified
        division   0.2421   50
        division   0.3822  110
        division   0.4799  194
        division   0.5341  302
  #      division   0.5626  434
  #      division   0.5922  590
  #      division   0.6542  770
  #      division   0.6868 1202
  #      outer_grid  770
        outer_grid  302
  ################################################################################
  #
  #  Definition of "minimal" basis
  #
  ################################################################################
  #     valence basis states
      valence      1  s   1.
  #     ion occupancy
      ion_occ      1  s   0.5
  ################################################################################
  #
  #  Suggested additional basis functions. For production calculations,
  #  uncomment them one after another (the most important basis functions are
  #  listed first).
  #
  #  Basis constructed for dimers: 0.5 A, 0.7 A, 1.0 A, 1.5 A, 2.5 A
  #
  ################################################################################
  #  "First tier" - improvements: -1014.90 meV to -62.69 meV
       hydro 2 s 2.1
       hydro 2 p 3.5
  #  "Second tier" - improvements: -12.89 meV to -1.83 meV
  #     hydro 1 s 0.85
  #     hydro 2 p 3.7
  #     hydro 2 s 1.2
  #     hydro 3 d 7
  #  "Third tier" - improvements: -0.25 meV to -0.12 meV
  #     hydro 4 f 11.2
  #     hydro 3 p 4.8
  #     hydro 4 d 9
  #     hydro 3 s 3.2
  ################################################################################
  #
  #  FHI-aims code project
  #  VB, Fritz-Haber Institut, 2009
  #
  #  Suggested "light" defaults for O atom (to be pasted into control.in file)
  #  Be sure to double-check any results obtained with these settings for post-processing,
  #  e.g., with the "tight" defaults and larger basis sets.
  #
  ################################################################################
    species        O
  #     global species definitions
      nucleus             8
      mass                15.9994
  #
      l_hartree           4
  #
      cut_pot             3.5  1.5  1.0
      basis_dep_cutoff    1e-4
  #
      radial_base         36 5.0
      radial_multiplier   1
       angular_grids specified
        division   0.2659   50
        division   0.4451  110
        division   0.6052  194
        division   0.7543  302
  #      division   0.8014  434
  #      division   0.8507  590
  #      division   0.8762  770
  #      division   0.9023  974
  #      division   1.2339 1202
  #      outer_grid 974
        outer_grid 302
  ################################################################################
  #
  #  Definition of "minimal" basis
  #
  ################################################################################
  #     valence basis states
      valence      2  s   2.
      valence      2  p   4.
  #     ion occupancy
      ion_occ      2  s   1.
      ion_occ      2  p   3.
  ################################################################################
  #
  #  Suggested additional basis functions. For production calculations,
  #  uncomment them one after another (the most important basis functions are
  #  listed first).
  #
  #  Constructed for dimers: 1.0 A, 1.208 A, 1.5 A, 2.0 A, 3.0 A
  #
  ################################################################################
  #  "First tier" - improvements: -699.05 meV to -159.38 meV
       hydro 2 p 1.8
       hydro 3 d 7.6
       hydro 3 s 6.4
  #  "Second tier" - improvements: -49.91 meV to -5.39 meV
  #     hydro 4 f 11.6
  #     hydro 3 p 6.2
  #     hydro 3 d 5.6
  #     hydro 5 g 17.6
  #     hydro 1 s 0.75
  #  "Third tier" - improvements: -2.83 meV to -0.50 meV
  #     ionic 2 p auto
  #     hydro 4 f 10.8
  #     hydro 4 d 4.7
  #     hydro 2 s 6.8
  #  "Fourth tier" - improvements: -0.40 meV to -0.12 meV
  #     hydro 3 p 5
  #     hydro 3 s 3.3
  #     hydro 5 g 15.6
  #     hydro 4 f 17.6
  #     hydro 4 d 14
  # Further basis functions - -0.08 meV and below
  #     hydro 3 s 2.1
  #     hydro 4 d 11.6
  #     hydro 3 p 16
  #     hydro 2 s 17.2
  
  -----------------------------------------------------------------------
  Completed first pass over input file control.in .
  -----------------------------------------------------------------------
  
  
  -----------------------------------------------------------------------
  Parsing geometry.in (first pass over file, find array dimensions only).
  The contents of geometry.in will be repeated verbatim below
  unless switched off by setting 'verbatim_writeout .false.' .
  in the first line of geometry.in .
  -----------------------------------------------------------------------
  
  #=======================================================
  # FHI-aims file: /ada/ptmp/mpsd/alewis/bulk_water/qmdata/data/geoms/132.in
  # Created using the Atomic Simulation Environment (ASE)
  # Tue Feb 21 11:23:37 2023
  #=======================================================
  lattice_vector 9.8151899999999994 0.0000000000000000 0.0000000000000000
  lattice_vector 0.0000000000000000 9.8151899999999994 0.0000000000000000
  lattice_vector 0.0000000000000000 0.0000000000000000 9.8151899999999994
  atom 3.3995299999999999 12.7193000000000005 -15.2423000000000002 O
  atom 4.0486000000000004 12.6053999999999995 -14.5259999999999998 H
  atom 2.7225199999999998 12.3773999999999997 -14.9174000000000007 H
  atom -14.1225000000000005 10.3826000000000001 8.3470800000000001 O
  atom -13.8270000000000000 9.8722200000000004 7.6641700000000004 H
  atom -14.3361999999999998 11.0992999999999995 7.8311200000000003 H
  atom -3.9682900000000001 -4.6717899999999997 6.4484399999999997 O
  atom -2.9862899999999999 -4.8651400000000002 6.5116600000000000 H
  atom -3.9942199999999999 -4.5551100000000000 5.4650100000000004 H
  atom -0.4514130000000000 0.6377710000000000 0.1036900000000000 O
  atom -0.7265450000000000 1.4231100000000001 -0.4738640000000000 H
  atom -1.0990800000000001 -0.0747330000000000 0.0386940000000000 H
  atom -3.8555000000000001 -1.3063499999999999 14.1059000000000001 O
  atom -3.1400000000000001 -1.1896000000000000 14.8712000000000000 H
  atom -3.4090699999999998 -0.9083390000000000 13.4433000000000007 H
  atom -10.4291000000000000 6.6199800000000000 31.8379000000000012 O
  atom -9.9166299999999996 7.3140099999999997 32.5024000000000015 H
  atom -10.5042000000000009 5.6804500000000004 32.1180000000000021 H
  atom 15.3050999999999995 2.3901200000000000 6.1280700000000001 O
  atom 16.0515000000000008 2.0679599999999998 5.7490899999999998 H
  atom 15.3872000000000000 3.4118300000000001 5.9758800000000001 H
  atom -22.0013000000000005 -10.8193000000000001 2.0382699999999998 O
  atom -22.4821999999999989 -11.1676000000000002 1.2023600000000001 H
  atom -21.4217000000000013 -11.4172999999999991 2.2771699999999999 H
  atom 8.3612400000000004 12.3093000000000004 -11.2323000000000004 O
  atom 7.6755100000000001 11.7949000000000002 -11.4441000000000006 H
  atom 8.3230900000000005 12.9217999999999993 -10.4567999999999994 H
  atom 18.3499000000000017 4.0430299999999999 10.6601999999999997 O
  atom 18.1654000000000018 3.3070499999999998 11.2901000000000007 H
  atom 17.6970999999999989 4.5989899999999997 10.8491999999999997 H
  atom 4.4199599999999997 5.5500800000000003 -10.7317000000000000 O
  atom 3.7645599999999999 4.8700799999999997 -10.5968999999999998 H
  atom 4.8120700000000003 5.4881799999999998 -11.7026000000000003 H
  atom 6.5199499999999997 -3.7050500000000000 10.4539000000000009 O
  atom 7.2338399999999998 -2.9858699999999998 10.0388000000000002 H
  atom 5.7590000000000003 -3.7530899999999998 9.8492899999999999 H
  atom 7.1857100000000003 7.9626900000000003 -13.0151000000000003 O
  atom 7.9589200000000000 7.5898899999999996 -13.1533999999999995 H
  atom 6.4827199999999996 7.2906000000000004 -12.7753999999999994 H
  atom -13.3300000000000001 5.0177699999999996 3.6126499999999999 O
  atom -12.4544999999999995 5.0438200000000002 3.9877300000000000 H
  atom -13.1694999999999993 5.6861300000000004 3.0276299999999998 H
  atom -6.6864100000000004 10.7345000000000006 0.0999430000000000 O
  atom -7.1485000000000003 11.5673999999999992 0.1165060000000000 H
  atom -5.6704800000000004 10.6290999999999993 -0.3456360000000000 H
  atom 1.1610100000000001 11.4997000000000007 5.6560400000000000 O
  atom 1.1691000000000000 10.6734000000000009 6.2189600000000000 H
  atom 1.1692800000000001 11.1125000000000007 4.8548799999999996 H
  atom 7.0535500000000004 -7.9608499999999998 -7.4462599999999997 O
  atom 7.3625100000000003 -8.8097100000000008 -7.5643300000000000 H
  atom 6.1075400000000002 -7.9149399999999996 -7.2988200000000001 H
  atom -9.4824999999999999 16.5303000000000004 19.3115999999999985 O
  atom -8.6110699999999998 16.8475999999999999 19.3191999999999986 H
  atom -9.7039000000000009 16.6496999999999993 20.1651999999999987 H
  atom 12.1402000000000001 13.4314000000000000 -9.6489300000000000 O
  atom 12.6943000000000001 13.8533000000000008 -8.8688000000000002 H
  atom 11.4109999999999996 14.0898000000000003 -9.3913399999999996 H
  atom -6.4401599999999997 -3.0282399999999998 -5.7938599999999996 O
  atom -6.1697400000000000 -3.7164999999999999 -6.3808999999999996 H
  atom -5.4909699999999999 -2.6213400000000000 -5.5799799999999999 H
  atom 13.5436999999999994 4.8282600000000002 11.9481000000000002 O
  atom 13.3367000000000004 3.9109200000000000 12.5213000000000001 H
  atom 14.4486000000000008 4.7925300000000002 11.8674999999999997 H
  atom 0.3056480000000000 7.2810400000000000 6.2427200000000003 O
  atom 0.8550640000000000 6.2269300000000003 6.5020100000000003 H
  atom 0.6902670000000000 7.9088799999999999 7.0707599999999999 H
  atom 30.4935000000000009 10.8633000000000006 22.5401999999999987 O
  atom 29.8979999999999997 10.7836999999999996 21.8264999999999993 H
  atom 30.6165999999999983 9.8683700000000005 22.8101999999999983 H
  atom -7.0369299999999999 -11.4655000000000005 9.6225699999999996 O
  atom -6.5978700000000003 -10.6148000000000007 9.8248700000000007 H
  atom -6.2714999999999996 -12.0852000000000004 9.6789500000000004 H
  atom 4.3621100000000004 -8.5390400000000000 -7.2144599999999999 O
  atom 3.7886899999999999 -8.1144300000000005 -6.5863500000000004 H
  atom 3.6517499999999998 -8.8485700000000005 -8.0495500000000000 H
  atom 1.0474100000000000 8.1916700000000002 3.8169499999999998 O
  atom 1.9420700000000000 7.7151100000000001 3.7181400000000000 H
  atom 0.9263190000000000 7.9727699999999997 4.6908500000000002 H
  atom 11.9609000000000005 5.1667300000000003 16.0734999999999992 O
  atom 11.6980000000000004 4.1162799999999997 15.8558000000000003 H
  atom 12.3443000000000005 5.7408799999999998 15.4870000000000001 H
  atom 18.6814000000000000 14.2385000000000002 4.6089200000000003 O
  atom 18.4893999999999998 13.1899999999999995 4.7967599999999999 H
  atom 18.7591000000000001 14.5114999999999998 5.3938300000000003 H
  atom 7.8988300000000002 1.3649800000000001 14.9433000000000007 O
  atom 7.6184599999999998 1.0536600000000000 13.9398999999999997 H
  atom 8.5528700000000004 0.7574660000000000 15.0767000000000007 H
  atom -1.9613900000000000 -1.7742100000000001 9.2482000000000006 O
  atom -1.0692699999999999 -2.0854699999999999 9.1938200000000005 H
  atom -2.2501099999999998 -1.6567300000000000 8.2732899999999994 H
  atom 8.6277000000000008 14.8050999999999995 7.3651900000000001 O
  atom 9.0577500000000004 15.3734999999999999 7.9366700000000003 H
  atom 8.7269600000000001 13.9373000000000005 7.6395099999999996 H
  atom 10.9621999999999993 9.2251399999999997 -2.0481699999999998 O
  atom 10.5280000000000005 9.9625500000000002 -1.6438200000000001 H
  atom 11.4046000000000003 8.6943599999999996 -1.3064000000000000 H
  
  -----------------------------------------------------------------------
  Completed first pass over input file geometry.in .
  -----------------------------------------------------------------------
  

  Basic array size parameters:
  | Number of species                 :        2
  | Number of atoms                   :       96
  | Number of lattice vectors         :        3
  | Max. basis fn. angular momentum   :        2
  | Max. atomic/ionic basis occupied n:        2
  | Max. number of basis fn. types    :        2
  | Max. radial fns per species/type  :        3
  | Max. logarithmic grid size        :     1301
  | Max. radial integration grid size :       36
  | Max. angular integration grid size:      302
  | Max. angular grid division number :        8
  | Radial grid for Hartree potential :     1301
  | Number of spin channels           :        1

------------------------------------------------------------
          Reading file control.in.
------------------------------------------------------------
  XC: Using Perdew-Wang parametrisation of Ceperley-Alder LDA.
  Spin treatment: No spin polarisation.
  Non-relativistic treatment of kinetic energy.
  Charge =   0.000000E+00: Neutral system requested explicitly.
  DFPT calculation will begin after the DFT/HF calculation.
  Convergence accuracy of self-consistent charge density:  0.1000E-05
  Found k-point grid:         1         1         1
  Threshold value for wave function integration:  0.1000E-07
 
  Reading configuration options for species H                   .
  | Found nuclear charge :   1.0000
  | Found atomic mass :    1.00794000000000      amu
  | Found l_max for Hartree potential  :   4
  | Found cutoff potl. onset [A], width [A], scale factor :    3.50000    1.50000    1.00000
  | Threshold for basis-dependent cutoff potential is   0.100000E-03
  | Found data for basic radial integration grid :    24 points, outermost radius =    5.000 A
  | Found multiplier for basic radial grid :   1
  | Found angular grid specification: user-specified.
  | Specified grid contains     5 separate shells.
  | Check grid settings after all constraints further below.
  | Found free-atom valence shell :  1 s   1.000
  | No ionic wave fns used. Skipping ion_occ.
  | Found hydrogenic basis function :  2 s   2.100
  | Found hydrogenic basis function :  2 p   3.500
  Species H                   : Missing cutoff potential type.
  Defaulting to exp(1/x)/(1-x)^2 type cutoff potential.
  Species H : No 'logarithmic' tag. Using default grid for free atom:
  | Default logarithmic grid data [bohr] : 0.1000E-03 0.1000E+03 0.1012E+01
  Species H : On-site basis accuracy parameter (for Gram-Schmidt orthonormalisation) not specified.
  Using default value basis_acc =  0.1000000E-03.
  Species H                   : Using default innermost maximum threshold i_radial=  2 for radial functions.
  Species H                   : Default cutoff onset for free atom density etc. : 0.35000000E+01 AA.
  Species H                   : Basic radial grid will be enhanced according to radial_multiplier =   1, to contain    24 grid points.
 
  Reading configuration options for species O                   .
  | Found nuclear charge :   8.0000
  | Found atomic mass :    15.9994000000000      amu
  | Found l_max for Hartree potential  :   4
  | Found cutoff potl. onset [A], width [A], scale factor :    3.50000    1.50000    1.00000
  | Threshold for basis-dependent cutoff potential is   0.100000E-03
  | Found data for basic radial integration grid :    36 points, outermost radius =    5.000 A
  | Found multiplier for basic radial grid :   1
  | Found angular grid specification: user-specified.
  | Specified grid contains     5 separate shells.
  | Check grid settings after all constraints further below.
  | Found free-atom valence shell :  2 s   2.000
  | Found free-atom valence shell :  2 p   4.000
  | No ionic wave fns used. Skipping ion_occ.
  | No ionic wave fns used. Skipping ion_occ.
  | Found hydrogenic basis function :  2 p   1.800
  | Found hydrogenic basis function :  3 d   7.600
  | Found hydrogenic basis function :  3 s   6.400
  Species O                   : Missing cutoff potential type.
  Defaulting to exp(1/x)/(1-x)^2 type cutoff potential.
  Species O : No 'logarithmic' tag. Using default grid for free atom:
  | Default logarithmic grid data [bohr] : 0.1000E-03 0.1000E+03 0.1012E+01
  Species O : On-site basis accuracy parameter (for Gram-Schmidt orthonormalisation) not specified.
  Using default value basis_acc =  0.1000000E-03.
  Species O                   : Using default innermost maximum threshold i_radial=  2 for radial functions.
  Species O                   : Default cutoff onset for free atom density etc. : 0.35000000E+01 AA.
  Species O                   : Basic radial grid will be enhanced according to radial_multiplier =   1, to contain    36 grid points.
 
  Finished reading input file 'control.in'.
 
------------------------------------------------------------


------------------------------------------------------------
          Reading geometry description geometry.in.
------------------------------------------------------------
  | The smallest distance between any two atoms is         0.82510494 AA.
  | The first atom of this pair is atom number                      1 .
  | The second atom of this pair is atom number                     3 .
  | Wigner-Seitz cell of the first atom image           0     0     0 .
  | (The Wigner-Seitz cell of the second atom is 0 0 0  by definition.)

  Symmetry information by spglib:
  | Precision set to  0.1E-04
  | Number of Operations  : 1
  | Space group           : 1
  | International         : P1
  | Schoenflies           : C1^1
  Input structure read successfully.
  The structure contains       96 atoms,  and a total of        320.000 electrons.

  Input geometry:
  | Unit cell:
  |        9.81519000        0.00000000        0.00000000
  |        0.00000000        9.81519000        0.00000000
  |        0.00000000        0.00000000        9.81519000
  | Atomic structure:
  |       Atom                x [A]            y [A]            z [A]
  |    1: Species O             3.39953000       12.71930000      -15.24230000
  |    2: Species H             4.04860000       12.60540000      -14.52600000
  |    3: Species H             2.72252000       12.37740000      -14.91740000
  |    4: Species O           -14.12250000       10.38260000        8.34708000
  |    5: Species H           -13.82700000        9.87222000        7.66417000
  |    6: Species H           -14.33620000       11.09930000        7.83112000
  |    7: Species O            -3.96829000       -4.67179000        6.44844000
  |    8: Species H            -2.98629000       -4.86514000        6.51166000
  |    9: Species H            -3.99422000       -4.55511000        5.46501000
  |   10: Species O            -0.45141300        0.63777100        0.10369000
  |   11: Species H            -0.72654500        1.42311000       -0.47386400
  |   12: Species H            -1.09908000       -0.07473300        0.03869400
  |   13: Species O            -3.85550000       -1.30635000       14.10590000
  |   14: Species H            -3.14000000       -1.18960000       14.87120000
  |   15: Species H            -3.40907000       -0.90833900       13.44330000
  |   16: Species O           -10.42910000        6.61998000       31.83790000
  |   17: Species H            -9.91663000        7.31401000       32.50240000
  |   18: Species H           -10.50420000        5.68045000       32.11800000
  |   19: Species O            15.30510000        2.39012000        6.12807000
  |   20: Species H            16.05150000        2.06796000        5.74909000
  |   21: Species H            15.38720000        3.41183000        5.97588000
  |   22: Species O           -22.00130000      -10.81930000        2.03827000
  |   23: Species H           -22.48220000      -11.16760000        1.20236000
  |   24: Species H           -21.42170000      -11.41730000        2.27717000
  |   25: Species O             8.36124000       12.30930000      -11.23230000
  |   26: Species H             7.67551000       11.79490000      -11.44410000
  |   27: Species H             8.32309000       12.92180000      -10.45680000
  |   28: Species O            18.34990000        4.04303000       10.66020000
  |   29: Species H            18.16540000        3.30705000       11.29010000
  |   30: Species H            17.69710000        4.59899000       10.84920000
  |   31: Species O             4.41996000        5.55008000      -10.73170000
  |   32: Species H             3.76456000        4.87008000      -10.59690000
  |   33: Species H             4.81207000        5.48818000      -11.70260000
  |   34: Species O             6.51995000       -3.70505000       10.45390000
  |   35: Species H             7.23384000       -2.98587000       10.03880000
  |   36: Species H             5.75900000       -3.75309000        9.84929000
  |   37: Species O             7.18571000        7.96269000      -13.01510000
  |   38: Species H             7.95892000        7.58989000      -13.15340000
  |   39: Species H             6.48272000        7.29060000      -12.77540000
  |   40: Species O           -13.33000000        5.01777000        3.61265000
  |   41: Species H           -12.45450000        5.04382000        3.98773000
  |   42: Species H           -13.16950000        5.68613000        3.02763000
  |   43: Species O            -6.68641000       10.73450000        0.09994300
  |   44: Species H            -7.14850000       11.56740000        0.11650600
  |   45: Species H            -5.67048000       10.62910000       -0.34563600
  |   46: Species O             1.16101000       11.49970000        5.65604000
  |   47: Species H             1.16910000       10.67340000        6.21896000
  |   48: Species H             1.16928000       11.11250000        4.85488000
  |   49: Species O             7.05355000       -7.96085000       -7.44626000
  |   50: Species H             7.36251000       -8.80971000       -7.56433000
  |   51: Species H             6.10754000       -7.91494000       -7.29882000
  |   52: Species O            -9.48250000       16.53030000       19.31160000
  |   53: Species H            -8.61107000       16.84760000       19.31920000
  |   54: Species H            -9.70390000       16.64970000       20.16520000
  |   55: Species O            12.14020000       13.43140000       -9.64893000
  |   56: Species H            12.69430000       13.85330000       -8.86880000
  |   57: Species H            11.41100000       14.08980000       -9.39134000
  |   58: Species O            -6.44016000       -3.02824000       -5.79386000
  |   59: Species H            -6.16974000       -3.71650000       -6.38090000
  |   60: Species H            -5.49097000       -2.62134000       -5.57998000
  |   61: Species O            13.54370000        4.82826000       11.94810000
  |   62: Species H            13.33670000        3.91092000       12.52130000
  |   63: Species H            14.44860000        4.79253000       11.86750000
  |   64: Species O             0.30564800        7.28104000        6.24272000
  |   65: Species H             0.85506400        6.22693000        6.50201000
  |   66: Species H             0.69026700        7.90888000        7.07076000
  |   67: Species O            30.49350000       10.86330000       22.54020000
  |   68: Species H            29.89800000       10.78370000       21.82650000
  |   69: Species H            30.61660000        9.86837000       22.81020000
  |   70: Species O            -7.03693000      -11.46550000        9.62257000
  |   71: Species H            -6.59787000      -10.61480000        9.82487000
  |   72: Species H            -6.27150000      -12.08520000        9.67895000
  |   73: Species O             4.36211000       -8.53904000       -7.21446000
  |   74: Species H             3.78869000       -8.11443000       -6.58635000
  |   75: Species H             3.65175000       -8.84857000       -8.04955000
  |   76: Species O             1.04741000        8.19167000        3.81695000
  |   77: Species H             1.94207000        7.71511000        3.71814000
  |   78: Species H             0.92631900        7.97277000        4.69085000
  |   79: Species O            11.96090000        5.16673000       16.07350000
  |   80: Species H            11.69800000        4.11628000       15.85580000
  |   81: Species H            12.34430000        5.74088000       15.48700000
  |   82: Species O            18.68140000       14.23850000        4.60892000
  |   83: Species H            18.48940000       13.19000000        4.79676000
  |   84: Species H            18.75910000       14.51150000        5.39383000
  |   85: Species O             7.89883000        1.36498000       14.94330000
  |   86: Species H             7.61846000        1.05366000       13.93990000
  |   87: Species H             8.55287000        0.75746600       15.07670000
  |   88: Species O            -1.96139000       -1.77421000        9.24820000
  |   89: Species H            -1.06927000       -2.08547000        9.19382000
  |   90: Species H            -2.25011000       -1.65673000        8.27329000
  |   91: Species O             8.62770000       14.80510000        7.36519000
  |   92: Species H             9.05775000       15.37350000        7.93667000
  |   93: Species H             8.72696000       13.93730000        7.63951000
  |   94: Species O            10.96220000        9.22514000       -2.04817000
  |   95: Species H            10.52800000        9.96255000       -1.64382000
  |   96: Species H            11.40460000        8.69436000       -1.30640000

  Lattice parameters for 3D lattice (in Angstroms) :     9.815190    9.815190    9.815190
  Angle(s) between unit vectors (in degrees)       :    90.000000   90.000000   90.000000


  Quantities derived from the lattice vectors (in Angstrom^-1):
  | Reciprocal lattice vector 1:  0.640149  0.000000  0.000000
  | Reciprocal lattice vector 2:  0.000000  0.640149  0.000000
  | Reciprocal lattice vector 3:  0.000000  0.000000  0.640149
  | Unit cell volume                               :   0.945575E+03  Angstrom^3

  Fractional coordinates:
                         L1                L2                L3
       atom_frac         0.34635397        1.29587914       -1.55292969  O
       atom_frac         0.41248310        1.28427468       -1.47995097  H
       atom_frac         0.27737823        1.26104538       -1.51982794  H
       atom_frac        -1.43884122        1.05780938        0.85042470  O
       atom_frac        -1.40873483        1.00581038        0.78084785  H
       atom_frac        -1.46061360        1.13082885        0.79785720  H
       atom_frac        -0.40430088       -0.47597550        0.65698575  O
       atom_frac        -0.30425188       -0.49567456        0.66342679  H
       atom_frac        -0.40694271       -0.46408781        0.55679106  H
       atom_frac        -0.04599126        0.06497796        0.01056424  O
       atom_frac        -0.07402251        0.14499057       -0.04827864  H
       atom_frac        -0.11197746       -0.00761401        0.00394226  H
       atom_frac        -0.39280951       -0.13309472        1.43714997  O
       atom_frac        -0.31991230       -0.12119990        1.51512095  H
       atom_frac        -0.34732593       -0.09254421        1.36964236  H
       atom_frac        -1.06254693        0.67446275        3.24373751  O
       atom_frac        -1.01033500        0.74517253        3.31143870  H
       atom_frac        -1.07019834        0.57874071        3.27227491  H
       atom_frac         1.55932794        0.24351235        0.62434553  O
       atom_frac         1.63537333        0.21068976        0.58573395  H
       atom_frac         1.56769253        0.34760713        0.60883997  H
       atom_frac        -2.24155620       -1.10230164        0.20766485  O
       atom_frac        -2.29055169       -1.13778745        0.12249992  H
       atom_frac        -2.18250487       -1.16322761        0.23200468  H
       atom_frac         0.85186736        1.25410715       -1.14437927  O
       atom_frac         0.78200320        1.20169859       -1.16595807  H
       atom_frac         0.84798053        1.31651043       -1.06536909  H
       atom_frac         1.86954099        0.41191561        1.08609207  O
       atom_frac         1.85074359        0.33693184        1.15026810  H
       atom_frac         1.80303183        0.46855843        1.10534794  H
       atom_frac         0.45031833        0.56545823       -1.09337669  O
       atom_frac         0.38354428        0.49617786       -1.07964288  H
       atom_frac         0.49026764        0.55915168       -1.19229480  H
       atom_frac         0.66427140       -0.37748123        1.06507363  O
       atom_frac         0.73700458       -0.30420909        1.02278203  H
       atom_frac         0.58674361       -0.38237569        1.00347421  H
       atom_frac         0.73210096        0.81126193       -1.32601610  O
       atom_frac         0.81087783        0.77327999       -1.34010651  H
       atom_frac         0.66047830        0.74278745       -1.30159477  H
       atom_frac        -1.35809903        0.51122495        0.36806725  O
       atom_frac        -1.26890055        0.51387900        0.40628149  H
       atom_frac        -1.34174682        0.57931940        0.30846372  H
       atom_frac        -0.68123083        1.09366197        0.01018248  O
       atom_frac        -0.72830990        1.17852023        0.01186997  H
       atom_frac        -0.57772493        1.08292351       -0.03521440  H
       atom_frac         0.11828706        1.17162276        0.57625375  O
       atom_frac         0.11911130        1.08743692        0.63360567  H
       atom_frac         0.11912963        1.13217370        0.49462924  H
       atom_frac         0.71863611       -0.81107447       -0.75864655  O
       atom_frac         0.75011385       -0.89755878       -0.77067586  H
       atom_frac         0.62225387       -0.80639702       -0.74362493  H
       atom_frac        -0.96610458        1.68415487        1.96752177  O
       atom_frac        -0.87732077        1.71648231        1.96829608  H
       atom_frac        -0.98866145        1.69631968        2.05448901  H
       atom_frac         1.23687876        1.36842995       -0.98306095  O
       atom_frac         1.29333207        1.41141435       -0.90357904  H
       atom_frac         1.16258575        1.43550965       -0.95681693  H
       atom_frac        -0.65614216       -0.30852587       -0.59029525  O
       atom_frac        -0.62859099       -0.37864779       -0.65010458  H
       atom_frac        -0.55943594       -0.26706972       -0.56850453  H
       atom_frac         1.37987140        0.49191712        1.21730705  O
       atom_frac         1.35878164        0.39845586        1.27570633  H
       atom_frac         1.47206524        0.48827684        1.20909529  H
       atom_frac         0.03114030        0.74181345        0.63602640  O
       atom_frac         0.08711640        0.63441767        0.66244362  H
       atom_frac         0.07032640        0.80577961        0.72038952  H
       atom_frac         3.10676615        1.10678448        2.29646089  O
       atom_frac         3.04609488        1.09867461        2.22374707  H
       atom_frac         3.11930793        1.00541813        2.32396928  H
       atom_frac        -0.71694282       -1.16813837        0.98037532  O
       atom_frac        -0.67221012       -1.08146658        1.00098623  H
       atom_frac        -0.63895859       -1.23127520        0.98611947  H
       atom_frac         0.44442441       -0.86998214       -0.73503009  O
       atom_frac         0.38600272       -0.82672164       -0.67103642  H
       atom_frac         0.37205087       -0.90151795       -0.82011148  H
       atom_frac         0.10671317        0.83459108        0.38888193  O
       atom_frac         0.19786372        0.78603776        0.37881488  H
       atom_frac         0.09437606        0.81228891        0.47791739  H
       atom_frac         1.21861115        0.52640142        1.63761476  O
       atom_frac         1.19182614        0.41937853        1.61543485  H
       atom_frac         1.25767306        0.58489749        1.57786044  H
       atom_frac         1.90331517        1.45065964        0.46957013  O
       atom_frac         1.88375365        1.34383542        0.48870781  H
       atom_frac         1.91123147        1.47847367        0.54953903  H
       atom_frac         0.80475569        0.13906812        1.52246671  O
       atom_frac         0.77619078        0.10734993        1.42023741  H
       atom_frac         0.87139118        0.07717283        1.53605789  H
       atom_frac        -0.19983210       -0.18076166        0.94223342  O
       atom_frac        -0.10894033       -0.21247373        0.93669302  H
       atom_frac        -0.22924773       -0.16879245        0.84290676  H
       atom_frac         0.87901508        1.50838649        0.75038690  O
       atom_frac         0.92282982        1.56629673        0.80861094  H
       atom_frac         0.88912797        1.41997251        0.77833542  H
       atom_frac         1.11686070        0.93988400       -0.20867349  O
       atom_frac         1.07262315        1.01501346       -0.16747715  H
       atom_frac         1.16193370        0.88580659       -0.13309982  H

 
  Finished reading input file 'geometry.in'.
 

 
  Consistency checks for stacksize environment parameter are next.
 
  | Maximum stacksize for task 0: unlimited
  | Maximum stacksize for task 1: unlimited
  | Maximum stacksize for task 2: unlimited
  | Maximum stacksize for task 3: unlimited
  | Maximum stacksize for task 4: unlimited
  | Maximum stacksize for task 5: unlimited
  | Maximum stacksize for task 6: unlimited
  | Maximum stacksize for task 7: unlimited
  | Maximum stacksize for task 8: unlimited
  | Maximum stacksize for task 9: unlimited
  | Maximum stacksize for task 10: unlimited
  | Maximum stacksize for task 11: unlimited
  | Maximum stacksize for task 12: unlimited
  | Maximum stacksize for task 13: unlimited
  | Maximum stacksize for task 14: unlimited
  | Maximum stacksize for task 15: unlimited
  | Maximum stacksize for task 16: unlimited
  | Maximum stacksize for task 17: unlimited
  | Current stacksize for task 0: unlimited
  | Current stacksize for task 1: unlimited
  | Current stacksize for task 2: unlimited
  | Current stacksize for task 3: unlimited
  | Current stacksize for task 4: unlimited
  | Current stacksize for task 5: unlimited
  | Current stacksize for task 6: unlimited
  | Current stacksize for task 7: unlimited
  | Current stacksize for task 8: unlimited
  | Current stacksize for task 9: unlimited
  | Current stacksize for task 10: unlimited
  | Current stacksize for task 11: unlimited
  | Current stacksize for task 12: unlimited
  | Current stacksize for task 13: unlimited
  | Current stacksize for task 14: unlimited
  | Current stacksize for task 15: unlimited
  | Current stacksize for task 16: unlimited
  | Current stacksize for task 17: unlimited
 
  Consistency checks for the contents of control.in are next.
 
  MPI_IN_PLACE appears to work with this MPI implementation.
  | Keeping use_mpi_in_place .true. (see manual).
  Explicit treatment of the Coulomb operator is needed, but the RI method is not specified.
  Coulomb operator: Defaulting to 'LVL fast' resolution of identity - RI_type = LVL_fast
  Species H: Using default value for prodbas_acc =   1.000000E-06.
  Species H: Using default value max_l_prodbas =     6.
  Species O: Using default value for prodbas_acc =   1.000000E-06.
  Species O: Using default value max_l_prodbas =     6.
  Target number of points in a grid batch is not set.  Since GPU acceleration is enabled, defaulting to  200
  Method for grid partitioning is not set. Defaulting to parallel hash+maxmin partitioning.
  Batch size limit is not set. Defaulting to    200
  By default, will store active basis functions for each batch.
  If in need of memory, prune_basis_once .false. can be used to disable this option.
  communication_type for Hartree potential was not specified.
  Defaulting to calc_hartree .
  Defaulting to Pulay charge density mixer.
  Pulay mixer: Number of relevant iterations not set.
  Defaulting to    8 iterations.
  Pulay mixer: Number of initial linear mixing iterations not set.
  Defaulting to    0 iterations.
  Work space size for distributed Hartree potential not set.
  Defaulting to   0.200000E+03 MB.
  Mixing parameter for charge density mixing has not been set.
  Using default: charge_mix_param =     0.0500.
  The mixing parameter will be adjusted in iteration number     2 of the first full s.c.f. cycle only.
  Algorithm-dependent basis array size parameters:
  | n_max_pulay                         :        8
  Maximum number of self-consistency iterations not provided.
  Presetting  1000 iterations.
  Presetting      1001 iterations before the initial mixing cycle
  is restarted anyway using the sc_init_iter criterion / keyword.
  Presetting a factor      1.000 between actual scf density residual
  and density convergence criterion sc_accuracy_rho below which sc_init_iter
  takes no effect.
  Calculation of forces was not defined in control.in. No forces will be calculated.
  Geometry relaxation not requested: no relaxation will be performed.
  No accuracy limit for integral partition fn. given. Defaulting to  0.1000E-14.
  No occupation type (smearing scheme) given. Defaulting to Gaussian broadening, width =  0.1000E-01 eV.
  The width will be adjusted in iteration number     2 of the first full s.c.f. cycle only.
  S.C.F. convergence parameters will be adjusted in iteration number     2 of the first full s.c.f. cycle only.
  No accuracy for occupation numbers given. Defaulting to  0.1000E-12.
  No threshold value for occupation numbers given. Defaulting to  0.0000E+00.
  No accuracy for fermi level given. Defaulting to  0.1000E-19.
  Maximum # of iterations to find E_F not set. Defaulting to  200.
  Preferred method for the eigenvalue solver ('KS_method') not specified in 'control.in'.
  Calling BLACS routine to test compilation state
  Since ScaLAPACK support is enabled, defaulting to ELPA (via ELSI).
  Will not use alltoall communication since running on < 1024 CPUs.
  Threshold for basis singularities not set.
  Default threshold for basis singularities:  0.1000E-04
  partition_type (choice of integration weights) for integrals was not specified.
  | Using a version of the partition function of Stratmann and coworkers ('stratmann_sparse').
  | At each grid point, the set of atoms used to build the partition table is smoothly restricted to
  | only those atoms whose free-atom density would be non-zero at that grid point.
  Partitioning for Hartree potential was not defined. Using partition_type for integrals.
  | Adjusted default value of keyword multip_moments_threshold to:       0.10000000E-11
  | This value may affect high angular momentum components of the Hartree potential in periodic systems.
  Angular momentum expansion for Kerker preconditioner not set explicitly.
  | Using default value of   0
  No explicit requirement for turning off preconditioner.
  | By default, it will be turned off when the charge convergence reaches
  | sc_accuracy_rho  =   0.100000E-05
  No special mixing parameter while Kerker preconditioner is on.
  Using default: charge_mix_param =     0.0500.
  Threshold for auxiliary basis singularities not set.
  Default threshold for auxiliary basis singularities:  0.1000E-04
  No q(lm)/r^(l+1) cutoff set for long-range Hartree potential.
  | Using default value of  0.100000E-09 .
  | Verify using the multipole_threshold keyword.
  Defaulting to new monopole extrapolation.
  Density update method: automatic selection selected.
  Using density matrix based charge density update.
  Using density matrix based charge density update.
  Using packed matrix style: index .
  Defaulting to use time-reversal symmetry for k-point grid.
  Charge integration errors on the 3D integration grid will be compensated
  by explicit normalization and distribution of residual charges.
  Use the "compensate_multipole_errors" flag to change this behaviour.
  Default to 1D ("use_logsbt") integrations for auxiliary 2-center integrals.
  Default onset of logarithmic r-grid for SBT is -38.000000000000
  Default onset of logarithmic k-grid for SBT is -25.000000000000
  Default range of logarithmic r- and k-grid for SBT is  45.000000000000
  Default number of logarithmic r- and k-grid for SBT is   4096
  Default of use_2d_corr is to use the efficient 2D distribution where possible
 
  Consistency checks for the contents of geometry.in are next.
 

  Range separation radius for Ewald summation (hartree_convergence_parameter):      2.95771174 bohr.
  Number of empty states per atom not set in control.in .
  | Since you are using a method that relies on the unoccupied spectrum
  | (MP2,GW,RPA et al.), will use the full Hamiltonian size (see below)
  | as the max. possible number of states (occupied plus empty).

  Structure-dependent array size parameters: 
  | Maximum number of distinct radial functions  :        9
  | Maximum number of basis functions            :      768
  | Number of Kohn-Sham states (occupied + empty):      768
------------------------------------------------------------

  Performing system and environment tests:
  | Environment variable OMP_NUM_THREADS correctly set to 1.
  | Checking for ScaLAPACK...
  | Testing pdtran()...
  | All pdtran() tests passed.
CUDA runtime version: 11060
CUDA driver version: 11060
  Initializing GPUs...

  Number of GPUs available to MPI task         0 :   1
  Number of GPUs available to MPI task         1 :   1
  Number of GPUs available to MPI task         2 :   1
  Number of GPUs available to MPI task         3 :   1
  Number of GPUs available to MPI task         4 :   1
  Number of GPUs available to MPI task         5 :   1
  Number of GPUs available to MPI task         6 :   1
  Number of GPUs available to MPI task         7 :   1
  Number of GPUs available to MPI task         8 :   1
  Number of GPUs available to MPI task         9 :   1
  Number of GPUs available to MPI task        10 :   1
  Number of GPUs available to MPI task        11 :   1
  Number of GPUs available to MPI task        12 :   1
  Number of GPUs available to MPI task        13 :   1
  Number of GPUs available to MPI task        14 :   1
  Number of GPUs available to MPI task        15 :   1
  Number of GPUs available to MPI task        16 :   1
  Number of GPUs available to MPI task        17 :   1

  | MPI task         0, GPU activated = T, Device Name = NVIDIA A100-SXM4-80GB
  | MPI task         1, GPU activated = T, Device Name = NVIDIA A100-SXM4-80GB
  | MPI task         2, GPU activated = T, Device Name = NVIDIA A100-SXM4-80GB
  | MPI task         3, GPU activated = T, Device Name = NVIDIA A100-SXM4-80GB
  | MPI task         4, GPU activated = T, Device Name = NVIDIA A100-SXM4-80GB
  | MPI task         5, GPU activated = T, Device Name = NVIDIA A100-SXM4-80GB
  | MPI task         6, GPU activated = T, Device Name = NVIDIA A100-SXM4-80GB
  | MPI task         7, GPU activated = T, Device Name = NVIDIA A100-SXM4-80GB
  | MPI task         8, GPU activated = T, Device Name = NVIDIA A100-SXM4-80GB
  | MPI task         9, GPU activated = T, Device Name = NVIDIA A100-SXM4-80GB
  | MPI task        10, GPU activated = T, Device Name = NVIDIA A100-SXM4-80GB
  | MPI task        11, GPU activated = T, Device Name = NVIDIA A100-SXM4-80GB
  | MPI task        12, GPU activated = T, Device Name = NVIDIA A100-SXM4-80GB
  | MPI task        13, GPU activated = T, Device Name = NVIDIA A100-SXM4-80GB
  | MPI task        14, GPU activated = T, Device Name = NVIDIA A100-SXM4-80GB
  | MPI task        15, GPU activated = T, Device Name = NVIDIA A100-SXM4-80GB
  | MPI task        16, GPU activated = T, Device Name = NVIDIA A100-SXM4-80GB
  | MPI task        17, GPU activated = T, Device Name = NVIDIA A100-SXM4-80GB

------------------------------------------------------------
          Preparing all fixed parts of the calculation.
------------------------------------------------------------
  Determining machine precision:
    2.225073858507201E-308
  Setting up grids for atomic and cluster calculations.

  Creating wave function, potential, and density for free atoms.
  Runtime choices for atomic solver:
  | atomic solver xc        : PW-LDA
  | compute density gradient: 0
  | compute kinetic density : F

  Species: H

  List of occupied orbitals and eigenvalues:
    n    l              occ      energy [Ha]    energy [eV]
    1    0           1.0000        -0.232375        -6.3233


  Species: O

  List of occupied orbitals and eigenvalues:
    n    l              occ      energy [Ha]    energy [eV]
    1    0           2.0000       -18.757744      -510.4242
    2    0           2.0000        -0.870917       -23.6989
    2    1           4.0000        -0.337950        -9.1961


  Adding cutoff potential to free-atom effective potential.
  Creating fixed part of basis set: Ionic, confined, hydrogenic.
 
  H                    hydrogenic:
 
  List of hydrogenic basis orbitals: 
    n    l      effective z      eigenvalue [eV]  inner max. [A]     outer max. [A]     outer radius [A]   
    2    0         2.100000       -14.9728           0.193243           1.317208           4.696947
    2    1         3.500000       -41.6669           0.602369           0.602369           3.862494
 
 
  O                    hydrogenic:
 
  List of hydrogenic basis orbitals: 
    n    l      effective z      eigenvalue [eV]  inner max. [A]     outer max. [A]     outer radius [A]   
    2    1         1.800000       -10.9749           1.164242           1.164242           4.691341
    3    2         7.600000       -87.3180           0.624125           0.624125           3.413946
    3    0         6.400000       -61.9207           0.061167           1.081902           4.151495
 
  Creating atomic-like basis functions for current effective potential.

  Species H                   :

  List of atomic basis orbitals and eigenvalues:
    n    l      energy [Ha]    energy [eV]    outer radius [A]
    1    0        -0.232375        -6.3233       4.696947


  Species O                   :

  List of atomic basis orbitals and eigenvalues:
    n    l      energy [Ha]    energy [eV]    outer radius [A]
    1    0       -18.757744      -510.4242       1.830144
    2    0        -0.870917       -23.6989       4.578029
    2    1        -0.337950        -9.1961       4.634338

  Assembling full basis from fixed parts.
  | Species H :   atomic orbital   1 s accepted.
  | Species H :    hydro orbital   2 s accepted.
  | Species H :    hydro orbital   2 p accepted.
  | Species O :   atomic orbital   1 s accepted.
  | Species O :    hydro orbital   3 s accepted.
  | Species O :   atomic orbital   2 s accepted.
  | Species O :   atomic orbital   2 p accepted.
  | Species O :    hydro orbital   2 p accepted.
  | Species O :    hydro orbital   3 d accepted.
 
  Basis size parameters after reduction:
  | Total number of radial functions:        9
  | Total number of basis functions :      768
 
  Per-task memory consumption for arrays in subroutine allocate_ext:
  |           2.268304MB.
  Testing on-site integration grid accuracy.
  |  Species  Function  <phi|h_atom|phi> (log., in eV)  <phi|h_atom|phi> (rad., in eV)
           1        1                 -6.3245358373                 -6.3232436907
           1        2                 14.1326137532                 14.1384481100
           1        3                 25.3627025200                 25.3628451197
           2        4               -510.4241781764               -510.4240769407
           2        5                 14.9072942213                 14.9072945271
           2        6                -21.2004736474                -21.2005650551
           2        7                 -9.1962086505                 -9.1963509834
           2        8                  8.1896755006                  8.1702200081
           2        9                 45.7920584937                 45.7920228520

  Preparing densities etc. for the partition functions (integrals / Hartree potential).

  Preparations completed.
  max(cpu_time)          :      0.071 s.
  Wall clock time (cpu1) :      0.065 s.
------------------------------------------------------------

  Initializing index lists of integration centers etc. from given atomic structure:
  Mapping all atomic coordinates to central unit cell.

  Initializing the k-points
  Using symmetry for reducing the k-points
  | k-points reduced from:        1 to        1
  | Number of k-points                             :         1
  | Consuming          0 KiB for k_phase_exx.
  The eigenvectors in the calculations are REAL.
  | Number of basis functions in the Hamiltonian integrals :      4428
  | Number of basis functions in a single unit cell        :       768
  | Number of centers in hartree potential         :      2622
  | Number of centers in hartree multipole         :      1975
  | Number of centers in electron density summation:      1515
  | Number of centers in basis integrals           :      1632
  | Number of centers in integrals                 :       699
  | Number of centers in hamiltonian               :      1516
  | Consuming          0 KiB for k_phase.
  | Number of super-cells (origin) [n_cells]                     :         125
  | Number of super-cells (after PM_index) [n_cells]             :          28
  | Number of super-cells in hamiltonian [n_cells_in_hamiltonian]:          28
  | Size of matrix packed + index [n_hamiltonian_matrix_size] :      799799
  | Size of matrix packed + index (no_symmetry):     1598829

------------------------------------------------------------
          Begin self-consistency loop: Initialization.

          Date     :  20230221, Time     :  143542.914
------------------------------------------------------------
  | Estimated reciprocal-space cutoff momentum G_max:         3.19750755 bohr^-1 .
  | Reciprocal lattice points for long-range Hartree potential:    3574
  Using simple linear distribution as default method for k-point parallelism.
  * Using 18 tasks for Scalapack Eigenvalue solver.
  Detailed listing of tasks and assigned k-points:
   Task     0 k-point     1 on adag039
   Task     1 k-point     1 on adag039
   Task     2 k-point     1 on adag039
   Task     3 k-point     1 on adag039
   Task     4 k-point     1 on adag039
   Task     5 k-point     1 on adag039
   Task     6 k-point     1 on adag039
   Task     7 k-point     1 on adag039
   Task     8 k-point     1 on adag039
   Task     9 k-point     1 on adag039
   Task    10 k-point     1 on adag039
   Task    11 k-point     1 on adag039
   Task    12 k-point     1 on adag039
   Task    13 k-point     1 on adag039
   Task    14 k-point     1 on adag039
   Task    15 k-point     1 on adag039
   Task    16 k-point     1 on adag039
   Task    17 k-point     1 on adag039
  K-point:     1 Tasks:    18 split into      6 X      3 BLACS grid
  Calculating block size based on n_basis =          768  max_nprow =            6  max_npcol =            3
  ScaLAPACK block size set to:           16
  Allocating        0.250 MB for ovlp
  Allocating        0.250 MB for ham
  Allocating        0.250 MB for eigenvec
  Required Scalapack workspace - INTEGER:            1  REAL:             1
  Partitioning the integration grid into batches with parallel hashing+maxmin method.
  | Number of batches:     4224
  | Maximal batch size:     193
  | Minimal batch size:     100
  | Average batch size:     120.636
  | Standard deviation of batch sizes:      19.989

  Integration load balanced across    18 MPI tasks.
  Work distribution over tasks is as follows:
  Task     0 has      28287 integration points.
  Task     1 has      28311 integration points.
  Task     2 has      28340 integration points.
  Task     3 has      28300 integration points.
  Task     4 has      28332 integration points.
  Task     5 has      28271 integration points.
  Task     6 has      28357 integration points.
  Task     7 has      28339 integration points.
  Task     8 has      28274 integration points.
  Task     9 has      28301 integration points.
  Task    10 has      28248 integration points.
  Task    11 has      28284 integration points.
  Task    12 has      28316 integration points.
  Task    13 has      28325 integration points.
  Task    14 has      28330 integration points.
  Task    15 has      28323 integration points.
  Task    16 has      28311 integration points.
  Task    17 has      28319 integration points.
  Initializing partition tables, free-atom densities, potentials, etc. across the integration grid (initialize_grid_storage).
  | initialize_grid_storage: Actual outermost partition radius vs. multipole_radius_free
  | (-- VB: in principle, multipole_radius_free should be larger, hence this output)
  | Species        1: Confinement radius =              4.999999999999999 AA, multipole_radius_free =              5.054417573612229 AA.
  | Species        1: outer_partition_radius set to              5.054417573612229 AA .
  | Species        2: Confinement radius =              4.999999999999999 AA, multipole_radius_free =              5.048384829883283 AA.
  | Species        2: outer_partition_radius set to              5.048384829883283 AA .
  | The sparse table of interatomic distances needs       5519.33 kbyte instead of     21307.39 kbyte of memory.
  | Net number of integration points:   509568
  | of which are non-zero points    :   405732
  | Numerical average free-atom electrostatic potential    :     -5.51128401 eV
  Renormalizing the initial density to the exact electron count on the 3D integration grid.
  | Initial density: Formal number of electrons (from input files) :     320.0000000000
  | Integrated number of electrons on 3D grid     :     320.0008073695
  | Charge integration error                      :       0.0008073695
  | Normalization factor for density and gradient :       0.9999974770
  Renormalizing the free-atom superposition density to the exact electron count on the 3D integration grid.
  | Formal number of electrons (from input files) :     320.0000000000
  | Integrated number of electrons on 3D grid     :     320.0008073695
  | Charge integration error                      :       0.0008073695
  | Normalization factor for density and gradient :       0.9999974770
  Obtaining max. number of non-zero basis functions in each batch (get_n_compute_maxes).
  | Maximal number of non-zero basis functions:      424 in task     0
  | Maximal number of non-zero basis functions:      423 in task     1
  | Maximal number of non-zero basis functions:      421 in task     2
  | Maximal number of non-zero basis functions:      418 in task     3
  | Maximal number of non-zero basis functions:      418 in task     4
  | Maximal number of non-zero basis functions:      438 in task     5
  | Maximal number of non-zero basis functions:      417 in task     6
  | Maximal number of non-zero basis functions:      427 in task     7
  | Maximal number of non-zero basis functions:      424 in task     8
  | Maximal number of non-zero basis functions:      423 in task     9
  | Maximal number of non-zero basis functions:      427 in task    10
  | Maximal number of non-zero basis functions:      418 in task    11
  | Maximal number of non-zero basis functions:      411 in task    12
  | Maximal number of non-zero basis functions:      414 in task    13
  | Maximal number of non-zero basis functions:      414 in task    14
  | Maximal number of non-zero basis functions:      416 in task    15
  | Maximal number of non-zero basis functions:      438 in task    16
  | Maximal number of non-zero basis functions:      426 in task    17
  Integrating Hamiltonian matrix: batch-based integration.
  GPU acceleration will be used when integrating the Hamiltonian matrix.
  Reporting GPU memory usage by myid 0.  Note that it is likely not the only MPI task binding to its GPU!
  Allocating        1.438 MB on GPU for hamiltonian_shell
  Allocating        0.655 MB on GPU for wave
  Allocating        0.002 MB on GPU for partition
  Allocating        0.655 MB on GPU for h_times_psi
  Time summed over all CPUs for integration: real work       11.726 s, elapsed       12.027 s
  Deallocating memory used on GPU for Hamiltonian integration.
  Integrating overlap matrix.
  Time summed over all CPUs for integration: real work        9.181 s, elapsed        9.372 s
  Deallocating overlap matrix.

  Updating Kohn-Sham eigenvalues and eigenvectors using ELSI and the ELPA eigensolver.
  Singularity check in k-point 1 (analysis for other k-points may follow below):
  Overlap matrix is not singular
  | Lowest and highest eigenvalues :  0.1937E-02,  0.7583E+01
  Finished singularity check of overlap matrix
  | Time :     0.159 s
  Starting ELPA eigensolver (GPU)
  Finished Cholesky decomposition
  | Time :     0.008 s
  Finished transformation to standard eigenproblem
  | Time :     0.028 s
  Finished solving standard eigenproblem
  | Time :     0.238 s
  Finished back-transformation of eigenvectors
  | Time :     0.031 s

  Obtaining occupation numbers and electronic chemical potential using ELSI.
  | Note that, for insulating systems, the printed 'chemical potential' value is not uniquely defined.
  | It can be anywhere in the energy gap, as long as it correctly separates occupied and unoccupied states.
  | In systems with a gap, the physically relevant chemical potential is the VBM or HOMO.

  | Chemical potential (Fermi level):    -5.67598169 eV
  Writing Kohn-Sham eigenvalues.

  State    Occupation    Eigenvalue [Ha]    Eigenvalue [eV]
      1       2.00000         -18.915296         -514.71139
      2       2.00000         -18.903128         -514.38028
      3       2.00000         -18.903043         -514.37797
      4       2.00000         -18.898438         -514.25267
      5       2.00000         -18.896400         -514.19719
      6       2.00000         -18.895858         -514.18246
      7       2.00000         -18.892769         -514.09841
      8       2.00000         -18.891705         -514.06945
      9       2.00000         -18.890226         -514.02921
     10       2.00000         -18.889555         -514.01094
     11       2.00000         -18.887951         -513.96729
     12       2.00000         -18.884874         -513.88358
     13       2.00000         -18.883051         -513.83396
     14       2.00000         -18.879247         -513.73046
     15       2.00000         -18.874583         -513.60353
     16       2.00000         -18.874527         -513.60201
     17       2.00000         -18.874410         -513.59883
     18       2.00000         -18.870508         -513.49264
     19       2.00000         -18.870210         -513.48455
     20       2.00000         -18.868891         -513.44866
     21       2.00000         -18.867283         -513.40489
     22       2.00000         -18.867195         -513.40249
     23       2.00000         -18.865142         -513.34663
     24       2.00000         -18.865011         -513.34306
     25       2.00000         -18.864052         -513.31697
     26       2.00000         -18.863372         -513.29846
     27       2.00000         -18.857995         -513.15215
     28       2.00000         -18.850749         -512.95499
     29       2.00000         -18.850454         -512.94695
     30       2.00000         -18.850439         -512.94653
     31       2.00000         -18.850411         -512.94578
     32       2.00000         -18.818514         -512.07781
     33       2.00000          -1.176246          -32.00730
     34       2.00000          -1.159732          -31.55792
     35       2.00000          -1.157920          -31.50860
     36       2.00000          -1.147349          -31.22095
     37       2.00000          -1.143922          -31.12770
     38       2.00000          -1.140931          -31.04632
     39       2.00000          -1.139716          -31.01324
     40       2.00000          -1.134147          -30.86171
     41       2.00000          -1.132842          -30.82619
     42       2.00000          -1.129531          -30.73611
     43       2.00000          -1.128813          -30.71657
     44       2.00000          -1.126854          -30.66325
     45       2.00000          -1.123081          -30.56059
     46       2.00000          -1.117042          -30.39625
     47       2.00000          -1.109759          -30.19809
     48       2.00000          -1.108765          -30.17102
     49       2.00000          -1.105147          -30.07258
     50       2.00000          -1.104488          -30.05466
     51       2.00000          -1.098548          -29.89301
     52       2.00000          -1.096740          -29.84381
     53       2.00000          -1.094168          -29.77383
     54       2.00000          -1.093741          -29.76220
     55       2.00000          -1.090136          -29.66412
     56       2.00000          -1.085712          -29.54373
     57       2.00000          -1.083607          -29.48646
     58       2.00000          -1.082926          -29.46792
     59       2.00000          -1.075295          -29.26026
     60       2.00000          -1.068595          -29.07794
     61       2.00000          -1.061646          -28.88887
     62       2.00000          -1.060297          -28.85215
     63       2.00000          -1.058193          -28.79489
     64       2.00000          -1.005152          -27.35157
     65       2.00000          -0.713111          -19.40475
     66       2.00000          -0.700899          -19.07245
     67       2.00000          -0.693714          -18.87691
     68       2.00000          -0.690676          -18.79424
     69       2.00000          -0.687303          -18.70247
     70       2.00000          -0.686692          -18.68584
     71       2.00000          -0.674244          -18.34711
     72       2.00000          -0.672456          -18.29847
     73       2.00000          -0.665891          -18.11982
     74       2.00000          -0.664262          -18.07548
     75       2.00000          -0.661304          -17.99501
     76       2.00000          -0.657267          -17.88514
     77       2.00000          -0.654448          -17.80844
     78       2.00000          -0.653461          -17.78157
     79       2.00000          -0.651440          -17.72659
     80       2.00000          -0.648524          -17.64723
     81       2.00000          -0.647282          -17.61344
     82       2.00000          -0.645226          -17.55750
     83       2.00000          -0.644532          -17.53862
     84       2.00000          -0.641420          -17.45393
     85       2.00000          -0.637515          -17.34765
     86       2.00000          -0.635019          -17.27974
     87       2.00000          -0.632340          -17.20685
     88       2.00000          -0.627678          -17.07998
     89       2.00000          -0.624622          -16.99684
     90       2.00000          -0.623169          -16.95730
     91       2.00000          -0.620611          -16.88769
     92       2.00000          -0.619178          -16.84869
     93       2.00000          -0.618336          -16.82579
     94       2.00000          -0.613770          -16.70153
     95       2.00000          -0.580528          -15.79697
     96       2.00000          -0.578339          -15.73740
     97       2.00000          -0.571247          -15.54443
     98       2.00000          -0.570468          -15.52323
     99       2.00000          -0.567640          -15.44626
    100       2.00000          -0.565842          -15.39733
    101       2.00000          -0.562238          -15.29928
    102       2.00000          -0.558058          -15.18554
    103       2.00000          -0.554676          -15.09351
    104       2.00000          -0.549393          -14.94974
    105       2.00000          -0.549053          -14.94050
    106       2.00000          -0.545089          -14.83264
    107       2.00000          -0.543934          -14.80120
    108       2.00000          -0.541145          -14.72531
    109       2.00000          -0.538863          -14.66321
    110       2.00000          -0.538716          -14.65921
    111       2.00000          -0.536382          -14.59569
    112       2.00000          -0.533094          -14.50622
    113       2.00000          -0.531670          -14.46749
    114       2.00000          -0.529115          -14.39795
    115       2.00000          -0.527440          -14.35237
    116       2.00000          -0.523381          -14.24193
    117       2.00000          -0.520430          -14.16163
    118       2.00000          -0.519771          -14.14369
    119       2.00000          -0.519449          -14.13491
    120       2.00000          -0.517864          -14.09180
    121       2.00000          -0.514376          -13.99689
    122       2.00000          -0.511885          -13.92910
    123       2.00000          -0.508333          -13.83244
    124       2.00000          -0.498884          -13.57534
    125       2.00000          -0.497429          -13.53572
    126       2.00000          -0.495364          -13.47955
    127       2.00000          -0.490357          -13.34330
    128       2.00000          -0.485982          -13.22424
    129       2.00000          -0.482162          -13.12030
    130       2.00000          -0.481416          -13.10001
    131       2.00000          -0.479108          -13.03720
    132       2.00000          -0.476952          -12.97853
    133       2.00000          -0.474819          -12.92049
    134       2.00000          -0.474278          -12.90575
    135       2.00000          -0.471743          -12.83678
    136       2.00000          -0.470523          -12.80357
    137       2.00000          -0.469631          -12.77931
    138       2.00000          -0.468254          -12.74184
    139       2.00000          -0.467085          -12.71004
    140       2.00000          -0.465682          -12.67186
    141       2.00000          -0.465356          -12.66299
    142       2.00000          -0.462793          -12.59323
    143       2.00000          -0.460521          -12.53142
    144       2.00000          -0.458537          -12.47743
    145       2.00000          -0.457813          -12.45772
    146       2.00000          -0.455040          -12.38226
    147       2.00000          -0.453917          -12.35171
    148       2.00000          -0.452405          -12.31057
    149       2.00000          -0.450471          -12.25793
    150       2.00000          -0.449573          -12.23351
    151       2.00000          -0.449185          -12.22295
    152       2.00000          -0.448495          -12.20416
    153       2.00000          -0.447580          -12.17928
    154       2.00000          -0.445212          -12.11482
    155       2.00000          -0.443930          -12.07996
    156       2.00000          -0.440603          -11.98941
    157       2.00000          -0.439575          -11.96145
    158       2.00000          -0.435856          -11.86025
    159       2.00000          -0.433978          -11.80915
    160       2.00000          -0.416500          -11.33355
    161       0.00000          -0.175090           -4.76445
    162       0.00000          -0.116551           -3.17151
    163       0.00000          -0.114540           -3.11678
    164       0.00000          -0.111534           -3.03499
    165       0.00000          -0.106859           -2.90779
    166       0.00000          -0.103566           -2.81817
    167       0.00000          -0.095967           -2.61140
    168       0.00000          -0.070534           -1.91932
    169       0.00000          -0.067716           -1.84264
    170       0.00000          -0.066306           -1.80429
    171       0.00000          -0.062524           -1.70138
    172       0.00000          -0.057619           -1.56789
    173       0.00000          -0.056710           -1.54315
    174       0.00000          -0.053846           -1.46522
    175       0.00000          -0.047797           -1.30063
    176       0.00000          -0.041127           -1.11912
    177       0.00000          -0.038289           -1.04190
    178       0.00000          -0.033683           -0.91656
    179       0.00000          -0.031119           -0.84680
    180       0.00000          -0.018062           -0.49148
    181       0.00000          -0.009941           -0.27050
    182       0.00000          -0.008191           -0.22290
    183       0.00000          -0.008062           -0.21938
    184       0.00000           0.003881            0.10560
    185       0.00000           0.006301            0.17146
    186       0.00000           0.011423            0.31084
    187       0.00000           0.012495            0.34001
    188       0.00000           0.021968            0.59778
    189       0.00000           0.025960            0.70640
    190       0.00000           0.028850            0.78505
    191       0.00000           0.038817            1.05626
    192       0.00000           0.040407            1.09952
    193       0.00000           0.047258            1.28595
    194       0.00000           0.047914            1.30380
    195       0.00000           0.051249            1.39457
    196       0.00000           0.052501            1.42863
    197       0.00000           0.056074            1.52584
    198       0.00000           0.058440            1.59023
    199       0.00000           0.061424            1.67144
    200       0.00000           0.064819            1.76382
    201       0.00000           0.066302            1.80418
    202       0.00000           0.069146            1.88157
    203       0.00000           0.072169            1.96381
    204       0.00000           0.074522            2.02786
    205       0.00000           0.075026            2.04155
    206       0.00000           0.078886            2.14659
    207       0.00000           0.083438            2.27046
    208       0.00000           0.085018            2.31345
    209       0.00000           0.086366            2.35015
    210       0.00000           0.090603            2.46543
    211       0.00000           0.093988            2.55754
    212       0.00000           0.096089            2.61472
    213       0.00000           0.098491            2.68009
    214       0.00000           0.099828            2.71646
    215       0.00000           0.105973            2.88367
    216       0.00000           0.108173            2.94354
    217       0.00000           0.108898            2.96327
    218       0.00000           0.113604            3.09133
    219       0.00000           0.116516            3.17055
    220       0.00000           0.120890            3.28959
    221       0.00000           0.121983            3.31933
    222       0.00000           0.123198            3.35239
    223       0.00000           0.126063            3.43036
    224       0.00000           0.135554            3.68861
    225       0.00000           0.147185            4.00510
    226       0.00000           0.151596            4.12514
    227       0.00000           0.158148            4.30343
    228       0.00000           0.162829            4.43081
    229       0.00000           0.169723            4.61839
    230       0.00000           0.174418            4.74616
    231       0.00000           0.178591            4.85972
    232       0.00000           0.182352            4.96205
    233       0.00000           0.191639            5.21475
    234       0.00000           0.194636            5.29631
    235       0.00000           0.196580            5.34921
    236       0.00000           0.203044            5.52510
    237       0.00000           0.208008            5.66020
    238       0.00000           0.213572            5.81159
    239       0.00000           0.227489            6.19029
    240       0.00000           0.229424            6.24296
    241       0.00000           0.232963            6.33924
    242       0.00000           0.235244            6.40132
    243       0.00000           0.240055            6.53224
    244       0.00000           0.244585            6.65549
    245       0.00000           0.253737            6.90454
    246       0.00000           0.261592            7.11829
    247       0.00000           0.268995            7.31972
    248       0.00000           0.272171            7.40615
    249       0.00000           0.281975            7.67292
    250       0.00000           0.290547            7.90618
    251       0.00000           0.294497            8.01366
    252       0.00000           0.301932            8.21600
    253       0.00000           0.307449            8.36613
    254       0.00000           0.315196            8.57693
    255       0.00000           0.320209            8.71334
    256       0.00000           0.332277            9.04171
    257       0.00000           0.335358            9.12555
    258       0.00000           0.337509            9.18408
    259       0.00000           0.345640            9.40535
    260       0.00000           0.349594            9.51292
[...]
  |    H      0     4.527807 A      4.527807 A        1.268855E-16 a.u.
  |    H      0     4.527807 A      4.583499 A       -4.900954E-17 a.u.
  |    H      0     4.527807 A      4.583499 A        4.713786E-16 a.u.
  |    H      2     3.678162 A  2.180220E+05 A            0.556529 a.u.
  |    H      1     3.958095 A  1.721251E+08 A            0.841931 a.u.
  |    H      0     4.527807 A  3.866455E+16 A            0.581436 a.u.
  |    O      0     2.043000 A      2.043000 A       -1.436841E-16 a.u.
  |    O      3     3.498446 A      3.498446 A        3.043453E-17 a.u.
  |    O      3     3.498446 A      3.498446 A        1.541443E-16 a.u.
  |    O      0     3.905335 A      3.905335 A        2.173090E-16 a.u.
  |    O      0     3.905335 A      3.905335 A        7.213445E-17 a.u.
  |    O      0     4.101052 A      4.101052 A        2.361718E-16 a.u.
  |    O      1     4.101052 A      4.101052 A        3.235185E-17 a.u.
  |    O      0     4.359549 A      4.359549 A       -5.329475E-17 a.u.
  |    O      1     4.413171 A      4.413171 A        3.261883E-17 a.u.
  |    O      1     4.522403 A      4.522403 A        6.417997E-16 a.u.
  |    O      1     4.522403 A      4.522403 A        4.224783E-16 a.u.
  |    O      2     4.522403 A      4.522403 A       -4.387647E-16 a.u.
  |    O      0     4.522403 A      4.578029 A        2.602039E-16 a.u.
  |    O      0     4.578029 A      4.578029 A        1.226235E-16 a.u.
  |    O      1     4.578029 A      4.578029 A       -6.107316E-16 a.u.
  |    O      1     4.578029 A      4.578029 A       -2.224438E-16 a.u.
  |    O      2     4.578029 A      4.578029 A       -7.020279E-16 a.u.
  |    O      2     4.522403 A      4.578029 A        1.323470E-15 a.u.
  |    O      2     4.578029 A      4.578029 A        7.923696E-16 a.u.
  |    O      2     4.522403 A      4.578029 A       -9.951815E-16 a.u.
  |    O      0     4.578029 A      4.634338 A       -8.813582E-18 a.u.
  |    O      1     4.578029 A      4.634338 A       -3.325386E-17 a.u.
  |    O      1     4.634338 A      4.634338 A        9.588032E-16 a.u.
  |    O      2     4.578029 A      4.634338 A        1.064715E-17 a.u.
  |    O      2     4.578029 A      4.634338 A       -3.770343E-15 a.u.
  |    O      4     3.251020 A  1.511584E+03 A            1.513372 a.u.
  |    O      3     3.541477 A  1.434166E+04 A            4.293220 a.u.
  |    O      2     4.634338 A  5.584435E+05 A            9.352428 a.u.
  |    O      1     4.634338 A  2.821283E+08 A            2.261940 a.u.
  |    O      0     4.578029 A  4.264100E+16 A            0.641234 a.u.

  | Shrink_full_auxil_basis : there are       38  radial auxiliary wave functions
                            accepted and       5 rejected.
  | Shrink_full_auxil_basis : there are totally                4544 partial auxiliary wave functions.
 
  | Maximal number of product basis functions per thread :   256   256
 
  | Minimal total memory requirement for three-center overlap :      10.450 Gbs
  | Number of local auxiliary basis functions on task:      0   256
  | Number of local auxiliary basis functions on task:      1   256
  | Number of local auxiliary basis functions on task:      2   256
  | Number of local auxiliary basis functions on task:      3   256
  | Number of local auxiliary basis functions on task:      4   256
  | Number of local auxiliary basis functions on task:      5   256
  | Number of local auxiliary basis functions on task:      6   256
  | Number of local auxiliary basis functions on task:      7   256
  | Number of local auxiliary basis functions on task:      8   256
  | Number of local auxiliary basis functions on task:      9   256
  | Number of local auxiliary basis functions on task:     10   256
  | Number of local auxiliary basis functions on task:     11   256
  | Number of local auxiliary basis functions on task:     12   256
  | Number of local auxiliary basis functions on task:     13   256
  | Number of local auxiliary basis functions on task:     14   240
  | Number of local auxiliary basis functions on task:     15   240
  | Number of local auxiliary basis functions on task:     16   240
  | Number of local auxiliary basis functions on task:     17   240
  | 2D aux task distribution:      3 X      6
  | 2D block size (nb_aux_2d):     64
 
  Basis pair condensation :    295296  -->     225083
 
 --------------------------------------------
  Constructing auxiliary basis (full product) ...
 
  Product basis:
  | charge radius: extent of product basis function
  | field radius: extent of its Coulomb potential
  | Species   l  charge radius    field radius  multipol momen
  |    H      1     3.910002 A      3.910002 A       -2.487223E-16 a.u.
  |    H      1     3.958095 A      3.958095 A       -2.441841E-16 a.u.
  |    H      0     4.527807 A      4.527807 A        1.268855E-16 a.u.
  |    H      0     4.527807 A      4.583499 A       -4.900954E-17 a.u.
  |    H      0     4.527807 A      4.583499 A        4.713786E-16 a.u.
  |    H      2     3.678162 A  2.180220E+05 A            0.556529 a.u.
  |    H      1     3.958095 A  1.721251E+08 A            0.841931 a.u.
  |    H      0     4.527807 A  3.866455E+16 A            0.581436 a.u.
  |    O      0     2.043000 A      2.043000 A       -1.436841E-16 a.u.
  |    O      3     3.498446 A      3.498446 A        3.043453E-17 a.u.
  |    O      3     3.498446 A      3.498446 A        1.541443E-16 a.u.
  |    O      0     3.905335 A      3.905335 A        2.173090E-16 a.u.
  |    O      0     3.905335 A      3.905335 A        7.213445E-17 a.u.
  |    O      0     4.101052 A      4.101052 A        2.361718E-16 a.u.
  |    O      1     4.101052 A      4.101052 A        3.235185E-17 a.u.
  |    O      0     4.359549 A      4.359549 A       -5.329475E-17 a.u.
  |    O      1     4.413171 A      4.413171 A        3.261883E-17 a.u.
  |    O      1     4.522403 A      4.522403 A        6.417997E-16 a.u.
  |    O      1     4.522403 A      4.522403 A        4.224783E-16 a.u.
  |    O      2     4.522403 A      4.522403 A       -4.387647E-16 a.u.
  |    O      0     4.522403 A      4.578029 A        2.602039E-16 a.u.
  |    O      0     4.578029 A      4.578029 A        1.226235E-16 a.u.
  |    O      1     4.578029 A      4.578029 A       -6.107316E-16 a.u.
  |    O      1     4.578029 A      4.578029 A       -2.224438E-16 a.u.
  |    O      2     4.578029 A      4.578029 A       -7.020279E-16 a.u.
  |    O      2     4.522403 A      4.578029 A        1.323470E-15 a.u.
  |    O      2     4.578029 A      4.578029 A        7.923696E-16 a.u.
  |    O      2     4.522403 A      4.578029 A       -9.951815E-16 a.u.
  |    O      0     4.578029 A      4.634338 A       -8.813582E-18 a.u.
  |    O      1     4.578029 A      4.634338 A       -3.325386E-17 a.u.
  |    O      1     4.634338 A      4.634338 A        9.588032E-16 a.u.
  |    O      2     4.578029 A      4.634338 A        1.064715E-17 a.u.
  |    O      2     4.578029 A      4.634338 A       -3.770343E-15 a.u.
  |    O      4     3.251020 A  1.511584E+03 A            1.513372 a.u.
  |    O      3     3.541477 A  1.434166E+04 A            4.293220 a.u.
  |    O      2     4.634338 A  5.584435E+05 A            9.352428 a.u.
  |    O      1     4.634338 A  2.821283E+08 A            2.261940 a.u.
  |    O      0     4.578029 A  4.264100E+16 A            0.641234 a.u.

  | Shrink_full_auxil_basis : there are       38  radial auxiliary wave functions
                            accepted and       5 rejected.
  | Shrink_full_auxil_basis : there are totally                4544 partial auxiliary wave functions.
 
  | Maximal number of product basis functions per thread :   256   256
 
  | Minimal total memory requirement for three-center overlap :      10.450 Gbs
  | Number of local auxiliary basis functions on task:      0   256
  | Number of local auxiliary basis functions on task:      1   256
  | Number of local auxiliary basis functions on task:      2   256
  | Number of local auxiliary basis functions on task:      3   256
  | Number of local auxiliary basis functions on task:      4   256
  | Number of local auxiliary basis functions on task:      5   256
  | Number of local auxiliary basis functions on task:      6   256
  | Number of local auxiliary basis functions on task:      7   256
  | Number of local auxiliary basis functions on task:      8   256
  | Number of local auxiliary basis functions on task:      9   256
  | Number of local auxiliary basis functions on task:     10   256
  | Number of local auxiliary basis functions on task:     11   256
  | Number of local auxiliary basis functions on task:     12   256
  | Number of local auxiliary basis functions on task:     13   256
  | Number of local auxiliary basis functions on task:     14   240
  | Number of local auxiliary basis functions on task:     15   240
  | Number of local auxiliary basis functions on task:     16   240
  | Number of local auxiliary basis functions on task:     17   240
  | 2D aux task distribution:      3 X      6
  | 2D block size (nb_aux_2d):     64
 
  Basis pair condensation :    295296  -->     225083
dP_dE (Bohr^3) at every cycle:--->
 (341.053629509758,0.000000000000000E+000) (7.34130333500831,0.000000000000000E+000) (7.87649759638117,0.000000000000000E+000)
 (7.34657636674997,0.000000000000000E+000) (366.055611176903,0.000000000000000E+000) (1.56766002956670,0.000000000000000E+000)
 (7.86888403449646,0.000000000000000E+000) (1.57707907366485,0.000000000000000E+000) (362.465732073226,0.000000000000000E+000)
DFPT polarizability (Bohr^3)        xx        yy        zz        xy        xz        yz
  | Polarizability:--->                       341.053629510                  366.055611177                  362.465732073                    7.341303335                    7.876497596                    1.567660030

DFPT for dielectric_constant:--->  # PARSE DFPT_dielectric_tensor
               1.671645026875486             0.014457403320499             0.015511374112659
               0.014467787627363             1.720882024214903             0.003087230193690
               0.015496380544099             0.003105779341328             1.713812389886322

                                               :  max(cpu_time)    wall_clock(cpu1)
  | Time for  dielectric calculation            :        0.000 s           0.001 s
===========================================================================

------------------------------------------------------------------------------
  Final output of selected total energy values:

  The following output summarizes some interesting total energy values
  at the end of a run (AFTER all relaxation, molecular dynamics, etc.).

  | Total energy of the DFT / Hartree-Fock s.c.f. calculation      :         -66108.448544662 eV
  | Final zero-broadening corrected energy (caution - metals only) :         -66108.448544662 eV
  | For reference only, the value of 1 Hartree used in FHI-aims is :             27.211384500 eV
  | For reference only, the overall average (free atom contribution
  | + realspace contribution) of the electrostatic potential after
  | s.c.f. convergence is                                          :             -5.072707732 eV

  Before relying on these values, please be sure to understand exactly which
  total energy value is referred to by a given number. Different objects may
  all carry the same name 'total energy'. Definitions:

  Total energy of the DFT / Hartree-Fock s.c.f. calculation:
  | Note that this energy does not include ANY quantities calculated after the
  | s.c.f. cycle, in particular not ANY RPA, MP2, etc. many-body perturbation terms.

  Final zero-broadening corrected energy:
  | For metallic systems only, a broadening of the occupation numbers at the Fermi
  | level can be extrapolated back to zero broadening by an electron-gas inspired
  | formula. For all systems that are not real metals, this value can be
  | meaningless and should be avoided.

------------------------------------------------------------------------------
  Methods described in the following list of references were used in this FHI-aims run.
  If you publish the results, please make sure to cite these reference if they apply.
  FHI-aims is an academic code, and for our developers (often, Ph.D. students
  and postdocs), scientific credit in the community is essential.
  Thank you for helping us!

  For any use of FHI-aims, please cite:

    Volker Blum, Ralf Gehrke, Felix Hanke, Paula Havu, Ville Havu,
    Xinguo Ren, Karsten Reuter, and Matthias Scheffler
    'Ab initio molecular simulations with numeric atom-centered orbitals'
    Computer Physics Communications 180, 2175-2196 (2009)
    http://doi.org/10.1016/j.cpc.2009.06.022


  For Hartree-Fock, hybrid functionals, or many-body perturbation theory used in your run, please cite:

    Xinguo Ren, Patrick Rinke, Volker Blum, Juergen Wieferink, Alex Tkatchenko,
    Andrea Sanfilippo, Karsten Reuter, and Matthias Scheffler,
    'Resolution-of-identity approach to Hartree-Fock, hybrid density functionals,
    RPA, MP2, and GW with numeric atom-centered orbital basis functions'
    New Journal of Physics 14, 053020 (2012).
    http://doi.org/10.1088/1367-2630/14/5/053020


  The provided symmetry information was generated with SPGlib:

    Atsushi Togo, Yusuke Seto, Dimitar Pashov
    SPGlib 1.7.3 obtained from http://spglib.sourceforge.net
    Copyright (C) 2008 Atsushi Togo


  The DFPT (perturbation by an electric field) part of the code was used.
  Here is the corresponding reference:

    Honghui Shang, Nathaniel Raimbault, Mariana Rossi,
    Christian Carbogno, Patrick Rinke and Matthias Scheffler,
    'All-Electron, Real-Space Perturbation Theory for Homogeneous
    Electric Fields: Theory, Implementation, and Application within dft'
    New Journal of Physics, 20(7):073040, 2018


  The ELSI infrastructure was used in your run to solve the Kohn-Sham electronic structure.
  Please check out http://elsi-interchange.org to learn more.
  If scalability is important for your project, please acknowledge ELSI by citing:

    V. W-z. Yu, F. Corsetti, A. Garcia, W. P. Huhn, M. Jacquelin, W. Jia,
    B. Lange, L. Lin, J. Lu, W. Mi, A. Seifitokaldani, A. Vazquez-Mayagoitia,
    C. Yang, H. Yang, and V. Blum
    'ELSI: A unified software interface for Kohn-Sham electronic structure solvers'
    Computer Physics Communications 222, 267-285 (2018).
    http://doi.org/10.1016/j.cpc.2017.09.007


  For the real-space grid partitioning and parallelization used in this calculation, please cite:

    Ville Havu, Volker Blum, Paula Havu, and Matthias Scheffler,
    'Efficient O(N) integration for all-electron electronic structure calculation'
    'using numerically tabulated basis functions'
    Journal of Computational Physics 228, 8367-8379 (2009).
    http://doi.org/10.1016/j.jcp.2009.08.008


  The high-level electronic structure method used in your calculation
  employed our efficient localized resolution of identity for the Coulomb operator.
  Some calculations, especially large-scale hybrid density functional theory,
  are only possible thanks to this development. For this feature, please cite:

    Arvid Ihrig, Juergen Wieferink, Igor Ying Zhang, Matti Ropo, Xinguo Ren,
    Patrick Rinke, Matthias Scheffler, and Volker Blum,
    'Accurate localized resolution of identity approach for linear-scaling
    hybrid density functionals and for many-body perturbation theory'
    New Journal of Physics 117, 093020 (2015).
    http://doi.org/10.1088/1367-2630/17/9/093020

  Of course, there are many other important community references, e.g., those cited in the
  above references. Our list is limited to references that describe implementations in the
  FHI-aims code. The reason is purely practical (length of this list) - please credit others as well.

------------------------------------------------------------
          Leaving FHI-aims.
          Date     :  20230221, Time     :  144428.164

          Computational steps:
          | Number of self-consistency cycles          :           45
          | Number of SCF (re)initializations          :            1
          | Number of coupled perturbed self-consistency cycles          :            0
          | Number of CPSCF (re)initializations          :            0

          Detailed time accounting                     :  max(cpu_time)    wall_clock(cpu1)
          | Total time                                  :      524.838 s         537.162 s
          | GPU initialization                          :        1.767 s          10.474 s
          | Preparation time                            :        0.071 s           0.065 s
          | Boundary condition initalization            :        1.276 s           1.276 s
          | Grid partitioning                           :        0.419 s           0.419 s
          | Preloading free-atom quantities on grid     :        2.328 s           2.327 s
          | Free-atom superposition energy              :        0.264 s           0.265 s
          | Total time for integrations                 :       12.613 s          12.818 s
          | Product basis setup: Total time             :        0.000 s           0.000 s
          | Product basis: | 2-center integrations     :(       0.000 s)  (       0.000 s)
          | Product basis: | LVL 3-center & coefficient:(       0.000 s)  (       0.000 s)
          | Total time for solution of K.-S. equations  :        2.417 s           5.013 s
          | Total time for density update               :        8.857 s           9.161 s
          | Total time for mixing & preconditioning     :        8.725 s           8.729 s
          | Total time for Hartree multipole update     :        0.101 s           0.100 s
          | Total time for Hartree multipole sum        :       38.330 s          38.345 s
          | Total time for total energy evaluation      :        0.004 s           0.007 s
          | Total time for DFPT                         :      446.875 s         447.056 s
          | Total time first_order_DM                   :        0.295 s           0.294 s
          | Total time first_order_density              :       93.332 s          93.359 s
          | Total time first_order_potential            :       53.430 s          53.448 s
          | Total time first_order_H                    :      187.923 s         187.989 s
          | Total time solving of Sternheimer equations :        0.188 s           0.188 s
          | Total time for dielectric constant          :        0.000 s           0.001 s
          | Total time momentum matrix                  :        0.000 s           0.000 s

          GPU acceleration has been used for charge density update.
          GPU acceleration has been used for real-space Hamiltonian integration.
          Due to GPU usage, wall_clock(cpu1) will give a more reliable estimate for timings.

          Partial memory accounting:
          | Residual value for overall tracked memory usage across tasks:     0.000000 MB (should be 0.000000 MB)
          | Peak values for overall tracked memory usage:
          |   Minimum:      119.741 MB (on task  0 after allocating DFPT_pulay_mixing::pulay_mix::alphas)
          |   Maximum:      119.741 MB (on task  0 after allocating DFPT_pulay_mixing::pulay_mix::alphas)
          |   Average:      119.741 MB
          | Largest tracked array allocation:
          |   Minimum:       42.714 MB (DFPT_pulay_mixing::initialize_pulay_mixing::X_in_diffs on task  0)
          |   Maximum:       42.714 MB (DFPT_pulay_mixing::initialize_pulay_mixing::X_in_diffs on task  0)
          |   Average:       42.714 MB
          Note:  These values currently only include a subset of arrays which are explicitly tracked.
          The "true" memory usage will be greater.

          Have a nice day.
------------------------------------------------------------
