------------------------------------------------------------
          Invoking FHI-aims ...

          When using FHI-aims, please cite the following reference:

            Volker Blum, Ralf Gehrke, Felix Hanke, Paula Havu,
            Ville Havu, Xinguo Ren, Karsten Reuter, and Matthias Scheffler,
            'Ab Initio Molecular Simulations with Numeric Atom-Centered Orbitals',
            Computer Physics Communications 180, 2175-2196 (2009)

          In addition, many other developments in FHI-aims are likely important for
          your particular application. A partial list of references is given at the end of
          this file. Thank you for giving credit to the authors of these developments.

          For any questions about FHI-aims, please visit our slack channel at

            https://fhi-aims.slack.com

          and our main development and support site at

            https://aims-git.rz-berlin.mpg.de .

          The latter site, in particular, has a wiki to collect information, as well
          as an issue tracker to log discussions, suggest improvements, and report issues
          or bugs. https://aims-git.rz-berlin.mpg.de is also the main development site
          of the project and all new and updated code versions can be obtained there.
          Please send an email to aims-coordinators@fhi-berlin.mpg.de and we will add
          you to these sites. They are for you and everyone is welcome there.

------------------------------------------------------------



  Date     :  20230221, Time     :  141641.280
  Time zero on CPU 1             :   0.472843000000000E+00  s.
  Internal wall clock time zero  :           446221001.280  s.

  FHI-aims created a unique identifier for this run for later identification
  aims_uuid : 8C6AFD6D-C292-473E-A18D-5F01F1D832D9

  Build configuration of the current instance of FHI-aims
  -------------------------------------------------------
  FHI-aims version      : 221103
  Commit number         : 42523251a
  CMake host system     : Linux-5.3.18-150300.59.68-default
  CMake version         : 3.17.0
  Fortran compiler      : /mpcdf/soft/SLE_15/packages/x86_64/intel_oneapi/2021.3/mpi/2021.3.0/bin/mpiifort (Intel) version 20.2.3.20210609
  Fortran compiler flags: -O3 -ip -fp-model precise
  C compiler            : /mpcdf/soft/SLE_15/packages/x86_64/intel/2021.3.0/bin/icc (Intel) version 20.2.3.20210609
  C compiler flags      : -O3 -ip -fp-model precise -std=gnu99
  CUDA compiler         : /mpcdf/soft/SLE_15/packages/x86_64/cuda/11.6.2/bin/nvcc
  CUDA compiler flags   : -O3 -DAdd_ -lcublas
  HIP compiler          :
  HIP compiler flags    :
  HIP GPU arch          :
  ELPA2 kernel          : AVX512
  Using MPI
  Using ScaLAPACK
  Using LibXC
  Using CUDA
  Using i-PI
  Using RLSY
  Linking against: /mpcdf/soft/SLE_15/packages/x86_64/cuda/11.6.2/lib64/libcublas.so
                   /mpcdf/soft/SLE_15/packages/x86_64/cuda/11.6.2/lib64/libcudart.so
                   /mpcdf/soft/SLE_15/packages/x86_64/intel_oneapi/2021.3/mkl/latest/lib/intel64/libmkl_intel_lp64.so
                   /mpcdf/soft/SLE_15/packages/x86_64/intel_oneapi/2021.3/mkl/latest/lib/intel64/libmkl_sequential.so
                   /mpcdf/soft/SLE_15/packages/x86_64/intel_oneapi/2021.3/mkl/latest/lib/intel64/libmkl_core.so
                   /mpcdf/soft/SLE_15/packages/x86_64/intel_oneapi/2021.3/mkl/latest/lib/intel64/libmkl_blacs_intelmpi_lp64.so
                   /mpcdf/soft/SLE_15/packages/x86_64/intel_oneapi/2021.3/mkl/latest/lib/intel64/libmkl_scalapack_lp64.so

  Using       18 parallel tasks.
  Task        0 on host adag038 reporting.
  Task        1 on host adag038 reporting.
  Task        2 on host adag038 reporting.
  Task        3 on host adag038 reporting.
  Task        4 on host adag038 reporting.
  Task        5 on host adag038 reporting.
  Task        6 on host adag038 reporting.
  Task        7 on host adag038 reporting.
  Task        8 on host adag038 reporting.
  Task        9 on host adag038 reporting.
  Task       10 on host adag038 reporting.
  Task       11 on host adag038 reporting.
  Task       12 on host adag038 reporting.
  Task       13 on host adag038 reporting.
  Task       14 on host adag038 reporting.
  Task       15 on host adag038 reporting.
  Task       16 on host adag038 reporting.
  Task       17 on host adag038 reporting.

  Obtaining array dimensions for all initial allocations:
  
  -----------------------------------------------------------------------
  Parsing control.in (first pass over file, find array dimensions only).
  The contents of control.in will be repeated verbatim below
  unless switched off by setting 'verbatim_writeout .false.' .
  in the first line of control.in .
  -----------------------------------------------------------------------
  
  #########################################################################################
  #
  #  Volker Blum, 2017 : Test run input file control.in for simple H2O
  #
  #########################################################################################
  #
  #  Physical model
  #
    xc                 pw-lda
    spin               none
    relativistic       none
    charge             0.
  
    use_gpu
  
    DFPT dielectric
    ri_density_restart write
    ri_rho1 write
  #  ri_density_restart read 0
  #  ri_rho1 read
    ri_full_output .true.
    sc_accuracy_rho    1d-6
  #  use_calculate_fock_matrix_old .false.
  #  wave_threshold 1e-8
    k_grid 1 1 1
  #  output cube eigenstate 160
  #  output cube eigenstate 161
    wave_threshold 1e-8
    default_prodbas_acc 1e-6
    default_max_l_prodbas 6
  #
  #  Relaxation
  #
  #  relax_geometry   bfgs 1.e-2
  #
  
  ################################################################################
  
  
  ################################################################################
  #
  #  FHI-aims code project
  #  VB, Fritz-Haber Institut, 2009
  #
  #  Suggested "light" defaults for H atom (to be pasted into control.in file)
  #  Be sure to double-check any results obtained with these settings for post-processing,
  #  e.g., with the "tight" defaults and larger basis sets.
  #
  ################################################################################
    species        H
  #     global species definitions
      nucleus             1
      mass                1.00794
  #
      l_hartree           4
  #
      cut_pot             3.5  1.5  1.0
      basis_dep_cutoff    1e-4
  #
      radial_base         24 5.0
      radial_multiplier   1
      angular_grids       specified
        division   0.2421   50
        division   0.3822  110
        division   0.4799  194
        division   0.5341  302
  #      division   0.5626  434
  #      division   0.5922  590
  #      division   0.6542  770
  #      division   0.6868 1202
  #      outer_grid  770
        outer_grid  302
  ################################################################################
  #
  #  Definition of "minimal" basis
  #
  ################################################################################
  #     valence basis states
      valence      1  s   1.
  #     ion occupancy
      ion_occ      1  s   0.5
  ################################################################################
  #
  #  Suggested additional basis functions. For production calculations,
  #  uncomment them one after another (the most important basis functions are
  #  listed first).
  #
  #  Basis constructed for dimers: 0.5 A, 0.7 A, 1.0 A, 1.5 A, 2.5 A
  #
  ################################################################################
  #  "First tier" - improvements: -1014.90 meV to -62.69 meV
       hydro 2 s 2.1
       hydro 2 p 3.5
  #  "Second tier" - improvements: -12.89 meV to -1.83 meV
  #     hydro 1 s 0.85
  #     hydro 2 p 3.7
  #     hydro 2 s 1.2
  #     hydro 3 d 7
  #  "Third tier" - improvements: -0.25 meV to -0.12 meV
  #     hydro 4 f 11.2
  #     hydro 3 p 4.8
  #     hydro 4 d 9
  #     hydro 3 s 3.2
  ################################################################################
  #
  #  FHI-aims code project
  #  VB, Fritz-Haber Institut, 2009
  #
  #  Suggested "light" defaults for O atom (to be pasted into control.in file)
  #  Be sure to double-check any results obtained with these settings for post-processing,
  #  e.g., with the "tight" defaults and larger basis sets.
  #
  ################################################################################
    species        O
  #     global species definitions
      nucleus             8
      mass                15.9994
  #
      l_hartree           4
  #
      cut_pot             3.5  1.5  1.0
      basis_dep_cutoff    1e-4
  #
      radial_base         36 5.0
      radial_multiplier   1
       angular_grids specified
        division   0.2659   50
        division   0.4451  110
        division   0.6052  194
        division   0.7543  302
  #      division   0.8014  434
  #      division   0.8507  590
  #      division   0.8762  770
  #      division   0.9023  974
  #      division   1.2339 1202
  #      outer_grid 974
        outer_grid 302
  ################################################################################
  #
  #  Definition of "minimal" basis
  #
  ################################################################################
  #     valence basis states
      valence      2  s   2.
      valence      2  p   4.
  #     ion occupancy
      ion_occ      2  s   1.
      ion_occ      2  p   3.
  ################################################################################
  #
  #  Suggested additional basis functions. For production calculations,
  #  uncomment them one after another (the most important basis functions are
  #  listed first).
  #
  #  Constructed for dimers: 1.0 A, 1.208 A, 1.5 A, 2.0 A, 3.0 A
  #
  ################################################################################
  #  "First tier" - improvements: -699.05 meV to -159.38 meV
       hydro 2 p 1.8
       hydro 3 d 7.6
       hydro 3 s 6.4
  #  "Second tier" - improvements: -49.91 meV to -5.39 meV
  #     hydro 4 f 11.6
  #     hydro 3 p 6.2
  #     hydro 3 d 5.6
  #     hydro 5 g 17.6
  #     hydro 1 s 0.75
  #  "Third tier" - improvements: -2.83 meV to -0.50 meV
  #     ionic 2 p auto
  #     hydro 4 f 10.8
  #     hydro 4 d 4.7
  #     hydro 2 s 6.8
  #  "Fourth tier" - improvements: -0.40 meV to -0.12 meV
  #     hydro 3 p 5
  #     hydro 3 s 3.3
  #     hydro 5 g 15.6
  #     hydro 4 f 17.6
  #     hydro 4 d 14
  # Further basis functions - -0.08 meV and below
  #     hydro 3 s 2.1
  #     hydro 4 d 11.6
  #     hydro 3 p 16
  #     hydro 2 s 17.2
  
  -----------------------------------------------------------------------
  Completed first pass over input file control.in .
  -----------------------------------------------------------------------
  
  
  -----------------------------------------------------------------------
  Parsing geometry.in (first pass over file, find array dimensions only).
  The contents of geometry.in will be repeated verbatim below
  unless switched off by setting 'verbatim_writeout .false.' .
  in the first line of geometry.in .
  -----------------------------------------------------------------------
  
  #=======================================================
  # FHI-aims file: /ada/ptmp/mpsd/alewis/bulk_water/qmdata/data/geoms/137.in
  # Created using the Atomic Simulation Environment (ASE)
  # Tue Feb 21 11:23:37 2023
  #=======================================================
  lattice_vector 9.9005500000000008 0.0000000000000000 0.0000000000000000
  lattice_vector 0.0000000000000000 9.9005500000000008 0.0000000000000000
  lattice_vector 0.0000000000000000 0.0000000000000000 9.9005500000000008
  atom -5.5821199999999997 18.7264000000000017 -1.2980400000000001 O
  atom -6.1042500000000004 18.4776999999999987 -0.4586880000000000 H
  atom -6.2315300000000002 18.4069000000000003 -2.0438299999999998 H
  atom 4.5878600000000000 4.4134599999999997 -16.0725000000000016 O
  atom 3.7261299999999999 4.0247900000000003 -16.1655000000000015 H
  atom 4.8277299999999999 4.8527500000000003 -14.9716000000000005 H
  atom 2.9967500000000000 -1.2735099999999999 -8.7185600000000001 O
  atom 3.8776199999999998 -1.1034500000000000 -8.3154199999999996 H
  atom 2.7527900000000001 -0.2756490000000000 -8.9545499999999993 H
  atom 2.1955800000000001 2.9306899999999998 -6.4478200000000001 O
  atom 1.9530000000000001 2.3924500000000002 -7.1456700000000000 H
  atom 1.3121700000000001 3.0837500000000002 -6.1415899999999999 H
  atom -24.2089999999999996 -1.4202300000000001 12.2400000000000002 O
  atom -24.8905999999999992 -1.1646399999999999 13.0942000000000007 H
  atom -23.4863000000000000 -2.0708400000000000 12.5616000000000003 H
  atom -8.7173099999999994 -13.5024999999999995 18.8941000000000017 O
  atom -9.7046899999999994 -13.8032000000000004 19.0605000000000011 H
  atom -8.0485900000000008 -13.8336000000000006 19.5995999999999988 H
  atom 0.3470970000000000 6.7255500000000001 2.7733500000000002 O
  atom 0.4490900000000000 7.6566400000000003 2.6342800000000000 H
  atom 1.0279199999999999 6.1701899999999998 2.2676300000000000 H
  atom 11.4722000000000008 21.1713999999999984 -8.8094000000000001 O
  atom 10.7120999999999995 20.7988999999999997 -9.3590099999999996 H
  atom 12.2567000000000004 21.2561999999999998 -9.4644200000000005 H
  atom 12.4870000000000001 -4.1451799999999999 1.5543300000000000 O
  atom 12.6422000000000008 -3.3079200000000002 1.7139300000000000 H
  atom 13.2413000000000007 -4.4603799999999998 2.1615799999999998 H
  atom -0.6958790000000000 10.6752000000000002 29.1681999999999988 O
  atom -1.0139800000000001 11.4231999999999996 28.7113000000000014 H
  atom -1.4813099999999999 10.4299999999999997 29.6182000000000016 H
  atom 13.8140999999999998 9.6573200000000003 4.2324999999999999 O
  atom 13.9946000000000002 10.5037000000000003 4.3419999999999996 H
  atom 13.6019000000000005 9.2726100000000002 5.0037599999999998 H
  atom 5.5525399999999996 -6.6651100000000003 7.6759199999999996 O
  atom 5.1168100000000001 -7.0385999999999997 8.5721900000000009 H
  atom 5.0307300000000001 -5.7471100000000002 7.5752499999999996 H
  atom -1.6220000000000001 4.9916600000000004 -4.4681699999999998 O
  atom -1.7324299999999999 5.6628699999999998 -5.2400000000000002 H
  atom -1.3130900000000001 4.2812299999999999 -4.8782699999999997 H
  atom 7.5385499999999999 -3.2312300000000000 -6.4332000000000003 O
  atom 8.4441299999999995 -3.2430699999999999 -6.8507699999999998 H
  atom 7.8242500000000001 -2.7217899999999999 -5.6899100000000002 H
  atom -24.0020999999999987 5.3495900000000001 15.8574999999999999 O
  atom -23.1586999999999996 5.0882100000000001 15.5694999999999997 H
  atom -23.8282999999999987 6.1520200000000003 16.3125000000000000 H
  atom -9.1581299999999999 -5.1865399999999999 6.7774999999999999 O
  atom -10.0457000000000001 -4.8029200000000003 6.6242500000000000 H
  atom -8.8353199999999994 -4.9263300000000001 7.6124799999999997 H
  atom 7.3041799999999997 10.2909000000000006 11.4083000000000006 O
  atom 6.8777100000000004 11.1570000000000000 11.3397000000000006 H
  atom 6.5910900000000003 9.6644400000000008 11.6292000000000009 H
  atom -8.5401199999999999 -3.1343399999999999 15.0968999999999998 O
  atom -8.8791600000000006 -3.2955399999999999 14.2159999999999993 H
  atom -8.6877399999999998 -3.9241500000000000 15.6242999999999999 H
  atom 9.9991400000000006 8.3863500000000002 -2.1665000000000001 O
  atom 10.7354000000000003 7.8307500000000001 -1.8362499999999999 H
  atom 10.0106000000000002 9.3390100000000000 -1.7011700000000001 H
  atom 6.5781499999999999 -2.7139099999999998 7.7845500000000003 O
  atom 5.9584999999999999 -2.2046399999999999 8.2199600000000004 H
  atom 7.0298299999999996 -2.0977899999999998 7.2741699999999998 H
  atom 13.2486999999999995 1.4411600000000000 8.8405500000000004 O
  atom 13.5442999999999998 0.5395510000000000 8.7276699999999998 H
  atom 12.8172999999999995 1.5719099999999999 8.0493199999999998 H
  atom 1.0947700000000000 9.3066200000000006 13.5784000000000002 O
  atom 1.0475699999999999 9.9105399999999992 12.8097999999999992 H
  atom 1.9860300000000000 9.1904900000000005 13.6316000000000006 H
  atom 2.3594300000000001 22.2843000000000018 6.4094100000000003 O
  atom 1.8537999999999999 23.0362000000000009 6.1690800000000001 H
  atom 2.9293200000000001 22.1217000000000006 5.5000200000000001 H
  atom 18.3889999999999993 -4.2563500000000003 9.2505299999999995 O
  atom 18.0932999999999993 -4.8936400000000004 8.6897900000000003 H
  atom 17.6468999999999987 -3.5882000000000001 9.2690099999999997 H
  atom -1.9421800000000000 18.2421000000000006 -4.0335700000000001 O
  atom -0.8729140000000000 18.1861999999999995 -3.4164699999999999 H
  atom -2.1283300000000001 19.1464999999999996 -4.6474099999999998 H
  atom 5.7833300000000003 -7.2565900000000001 1.7163700000000000 O
  atom 6.5122900000000001 -6.7183000000000002 1.7606299999999999 H
  atom 4.9776400000000001 -6.7266599999999999 2.0982300000000000 H
  atom 7.7772600000000001 10.7231000000000005 14.2377000000000002 O
  atom 7.7206799999999998 10.6675000000000004 13.2635000000000005 H
  atom 6.9812799999999999 11.0968999999999998 14.4589999999999996 H
  atom 9.5188299999999995 2.9186600000000000 3.9639500000000001 O
  atom 9.1130899999999997 1.9329600000000000 4.0549700000000000 H
  atom 9.0930000000000000 3.1543999999999999 3.0979299999999999 H
  atom 18.3698000000000015 -6.1083100000000004 1.3546000000000000 O
  atom 18.8835000000000015 -6.8719700000000001 0.8734520000000000 H
  atom 18.2306999999999988 -5.3126199999999999 0.8988140000000000 H
  atom -4.6361999999999997 11.7812999999999999 15.1432000000000002 O
  atom -4.7725200000000001 12.1690000000000005 15.9850999999999992 H
  atom -4.4596999999999998 12.6753000000000000 14.6509999999999998 H
  atom 2.8265699999999998 -1.4253899999999999 -3.3063600000000002 O
  atom 2.2059000000000002 -0.7940330000000000 -3.3225799999999999 H
  atom 2.2546100000000000 -2.2145700000000001 -3.6100400000000001 H
  atom 18.3684000000000012 23.0865000000000009 -1.8767199999999999 O
  atom 18.9427999999999983 23.2523000000000017 -2.7038600000000002 H
  atom 17.5365000000000002 23.1708999999999996 -2.1762199999999998 H
  
  -----------------------------------------------------------------------
  Completed first pass over input file geometry.in .
  -----------------------------------------------------------------------
  

  Basic array size parameters:
  | Number of species                 :        2
  | Number of atoms                   :       96
  | Number of lattice vectors         :        3
  | Max. basis fn. angular momentum   :        2
  | Max. atomic/ionic basis occupied n:        2
  | Max. number of basis fn. types    :        2
  | Max. radial fns per species/type  :        3
  | Max. logarithmic grid size        :     1301
  | Max. radial integration grid size :       36
  | Max. angular integration grid size:      302
  | Max. angular grid division number :        8
  | Radial grid for Hartree potential :     1301
  | Number of spin channels           :        1

------------------------------------------------------------
          Reading file control.in.
------------------------------------------------------------
  XC: Using Perdew-Wang parametrisation of Ceperley-Alder LDA.
  Spin treatment: No spin polarisation.
  Non-relativistic treatment of kinetic energy.
  Charge =   0.000000E+00: Neutral system requested explicitly.
  DFPT calculation will begin after the DFT/HF calculation.
  Convergence accuracy of self-consistent charge density:  0.1000E-05
  Found k-point grid:         1         1         1
  Threshold value for wave function integration:  0.1000E-07
 
  Reading configuration options for species H                   .
  | Found nuclear charge :   1.0000
  | Found atomic mass :    1.00794000000000      amu
  | Found l_max for Hartree potential  :   4
  | Found cutoff potl. onset [A], width [A], scale factor :    3.50000    1.50000    1.00000
  | Threshold for basis-dependent cutoff potential is   0.100000E-03
  | Found data for basic radial integration grid :    24 points, outermost radius =    5.000 A
  | Found multiplier for basic radial grid :   1
  | Found angular grid specification: user-specified.
  | Specified grid contains     5 separate shells.
  | Check grid settings after all constraints further below.
  | Found free-atom valence shell :  1 s   1.000
  | No ionic wave fns used. Skipping ion_occ.
  | Found hydrogenic basis function :  2 s   2.100
  | Found hydrogenic basis function :  2 p   3.500
  Species H                   : Missing cutoff potential type.
  Defaulting to exp(1/x)/(1-x)^2 type cutoff potential.
  Species H : No 'logarithmic' tag. Using default grid for free atom:
  | Default logarithmic grid data [bohr] : 0.1000E-03 0.1000E+03 0.1012E+01
  Species H : On-site basis accuracy parameter (for Gram-Schmidt orthonormalisation) not specified.
  Using default value basis_acc =  0.1000000E-03.
  Species H                   : Using default innermost maximum threshold i_radial=  2 for radial functions.
  Species H                   : Default cutoff onset for free atom density etc. : 0.35000000E+01 AA.
  Species H                   : Basic radial grid will be enhanced according to radial_multiplier =   1, to contain    24 grid points.
 
  Reading configuration options for species O                   .
  | Found nuclear charge :   8.0000
  | Found atomic mass :    15.9994000000000      amu
  | Found l_max for Hartree potential  :   4
  | Found cutoff potl. onset [A], width [A], scale factor :    3.50000    1.50000    1.00000
  | Threshold for basis-dependent cutoff potential is   0.100000E-03
  | Found data for basic radial integration grid :    36 points, outermost radius =    5.000 A
  | Found multiplier for basic radial grid :   1
  | Found angular grid specification: user-specified.
  | Specified grid contains     5 separate shells.
  | Check grid settings after all constraints further below.
  | Found free-atom valence shell :  2 s   2.000
  | Found free-atom valence shell :  2 p   4.000
  | No ionic wave fns used. Skipping ion_occ.
  | No ionic wave fns used. Skipping ion_occ.
  | Found hydrogenic basis function :  2 p   1.800
  | Found hydrogenic basis function :  3 d   7.600
  | Found hydrogenic basis function :  3 s   6.400
  Species O                   : Missing cutoff potential type.
  Defaulting to exp(1/x)/(1-x)^2 type cutoff potential.
  Species O : No 'logarithmic' tag. Using default grid for free atom:
  | Default logarithmic grid data [bohr] : 0.1000E-03 0.1000E+03 0.1012E+01
  Species O : On-site basis accuracy parameter (for Gram-Schmidt orthonormalisation) not specified.
  Using default value basis_acc =  0.1000000E-03.
  Species O                   : Using default innermost maximum threshold i_radial=  2 for radial functions.
  Species O                   : Default cutoff onset for free atom density etc. : 0.35000000E+01 AA.
  Species O                   : Basic radial grid will be enhanced according to radial_multiplier =   1, to contain    36 grid points.
 
  Finished reading input file 'control.in'.
 
------------------------------------------------------------


------------------------------------------------------------
          Reading geometry description geometry.in.
------------------------------------------------------------
  | The smallest distance between any two atoms is         0.86635068 AA.
  | The first atom of this pair is atom number                     25 .
  | The second atom of this pair is atom number                    26 .
  | Wigner-Seitz cell of the first atom image           0     0     0 .
  | (The Wigner-Seitz cell of the second atom is 0 0 0  by definition.)

  Symmetry information by spglib:
  | Precision set to  0.1E-04
  | Number of Operations  : 1
  | Space group           : 1
  | International         : P1
  | Schoenflies           : C1^1
  Input structure read successfully.
  The structure contains       96 atoms,  and a total of        320.000 electrons.

  Input geometry:
  | Unit cell:
  |        9.90055000        0.00000000        0.00000000
  |        0.00000000        9.90055000        0.00000000
  |        0.00000000        0.00000000        9.90055000
  | Atomic structure:
  |       Atom                x [A]            y [A]            z [A]
  |    1: Species O            -5.58212000       18.72640000       -1.29804000
  |    2: Species H            -6.10425000       18.47770000       -0.45868800
  |    3: Species H            -6.23153000       18.40690000       -2.04383000
  |    4: Species O             4.58786000        4.41346000      -16.07250000
  |    5: Species H             3.72613000        4.02479000      -16.16550000
  |    6: Species H             4.82773000        4.85275000      -14.97160000
  |    7: Species O             2.99675000       -1.27351000       -8.71856000
  |    8: Species H             3.87762000       -1.10345000       -8.31542000
  |    9: Species H             2.75279000       -0.27564900       -8.95455000
  |   10: Species O             2.19558000        2.93069000       -6.44782000
  |   11: Species H             1.95300000        2.39245000       -7.14567000
  |   12: Species H             1.31217000        3.08375000       -6.14159000
  |   13: Species O           -24.20900000       -1.42023000       12.24000000
  |   14: Species H           -24.89060000       -1.16464000       13.09420000
  |   15: Species H           -23.48630000       -2.07084000       12.56160000
  |   16: Species O            -8.71731000      -13.50250000       18.89410000
  |   17: Species H            -9.70469000      -13.80320000       19.06050000
  |   18: Species H            -8.04859000      -13.83360000       19.59960000
  |   19: Species O             0.34709700        6.72555000        2.77335000
  |   20: Species H             0.44909000        7.65664000        2.63428000
  |   21: Species H             1.02792000        6.17019000        2.26763000
  |   22: Species O            11.47220000       21.17140000       -8.80940000
  |   23: Species H            10.71210000       20.79890000       -9.35901000
  |   24: Species H            12.25670000       21.25620000       -9.46442000
  |   25: Species O            12.48700000       -4.14518000        1.55433000
  |   26: Species H            12.64220000       -3.30792000        1.71393000
  |   27: Species H            13.24130000       -4.46038000        2.16158000
  |   28: Species O            -0.69587900       10.67520000       29.16820000
  |   29: Species H            -1.01398000       11.42320000       28.71130000
  |   30: Species H            -1.48131000       10.43000000       29.61820000
  |   31: Species O            13.81410000        9.65732000        4.23250000
  |   32: Species H            13.99460000       10.50370000        4.34200000
  |   33: Species H            13.60190000        9.27261000        5.00376000
  |   34: Species O             5.55254000       -6.66511000        7.67592000
  |   35: Species H             5.11681000       -7.03860000        8.57219000
  |   36: Species H             5.03073000       -5.74711000        7.57525000
  |   37: Species O            -1.62200000        4.99166000       -4.46817000
  |   38: Species H            -1.73243000        5.66287000       -5.24000000
  |   39: Species H            -1.31309000        4.28123000       -4.87827000
  |   40: Species O             7.53855000       -3.23123000       -6.43320000
  |   41: Species H             8.44413000       -3.24307000       -6.85077000
  |   42: Species H             7.82425000       -2.72179000       -5.68991000
  |   43: Species O           -24.00210000        5.34959000       15.85750000
  |   44: Species H           -23.15870000        5.08821000       15.56950000
  |   45: Species H           -23.82830000        6.15202000       16.31250000
  |   46: Species O            -9.15813000       -5.18654000        6.77750000
  |   47: Species H           -10.04570000       -4.80292000        6.62425000
  |   48: Species H            -8.83532000       -4.92633000        7.61248000
  |   49: Species O             7.30418000       10.29090000       11.40830000
  |   50: Species H             6.87771000       11.15700000       11.33970000
  |   51: Species H             6.59109000        9.66444000       11.62920000
  |   52: Species O            -8.54012000       -3.13434000       15.09690000
  |   53: Species H            -8.87916000       -3.29554000       14.21600000
  |   54: Species H            -8.68774000       -3.92415000       15.62430000
  |   55: Species O             9.99914000        8.38635000       -2.16650000
  |   56: Species H            10.73540000        7.83075000       -1.83625000
  |   57: Species H            10.01060000        9.33901000       -1.70117000
  |   58: Species O             6.57815000       -2.71391000        7.78455000
  |   59: Species H             5.95850000       -2.20464000        8.21996000
  |   60: Species H             7.02983000       -2.09779000        7.27417000
  |   61: Species O            13.24870000        1.44116000        8.84055000
  |   62: Species H            13.54430000        0.53955100        8.72767000
  |   63: Species H            12.81730000        1.57191000        8.04932000
  |   64: Species O             1.09477000        9.30662000       13.57840000
  |   65: Species H             1.04757000        9.91054000       12.80980000
  |   66: Species H             1.98603000        9.19049000       13.63160000
  |   67: Species O             2.35943000       22.28430000        6.40941000
  |   68: Species H             1.85380000       23.03620000        6.16908000
  |   69: Species H             2.92932000       22.12170000        5.50002000
  |   70: Species O            18.38900000       -4.25635000        9.25053000
  |   71: Species H            18.09330000       -4.89364000        8.68979000
  |   72: Species H            17.64690000       -3.58820000        9.26901000
  |   73: Species O            -1.94218000       18.24210000       -4.03357000
  |   74: Species H            -0.87291400       18.18620000       -3.41647000
  |   75: Species H            -2.12833000       19.14650000       -4.64741000
  |   76: Species O             5.78333000       -7.25659000        1.71637000
  |   77: Species H             6.51229000       -6.71830000        1.76063000
  |   78: Species H             4.97764000       -6.72666000        2.09823000
  |   79: Species O             7.77726000       10.72310000       14.23770000
  |   80: Species H             7.72068000       10.66750000       13.26350000
  |   81: Species H             6.98128000       11.09690000       14.45900000
  |   82: Species O             9.51883000        2.91866000        3.96395000
  |   83: Species H             9.11309000        1.93296000        4.05497000
  |   84: Species H             9.09300000        3.15440000        3.09793000
  |   85: Species O            18.36980000       -6.10831000        1.35460000
  |   86: Species H            18.88350000       -6.87197000        0.87345200
  |   87: Species H            18.23070000       -5.31262000        0.89881400
  |   88: Species O            -4.63620000       11.78130000       15.14320000
  |   89: Species H            -4.77252000       12.16900000       15.98510000
  |   90: Species H            -4.45970000       12.67530000       14.65100000
  |   91: Species O             2.82657000       -1.42539000       -3.30636000
  |   92: Species H             2.20590000       -0.79403300       -3.32258000
  |   93: Species H             2.25461000       -2.21457000       -3.61004000
  |   94: Species O            18.36840000       23.08650000       -1.87672000
  |   95: Species H            18.94280000       23.25230000       -2.70386000
  |   96: Species H            17.53650000       23.17090000       -2.17622000

  Lattice parameters for 3D lattice (in Angstroms) :     9.900550    9.900550    9.900550
  Angle(s) between unit vectors (in degrees)       :    90.000000   90.000000   90.000000


  Quantities derived from the lattice vectors (in Angstrom^-1):
  | Reciprocal lattice vector 1:  0.634630  0.000000  0.000000
  | Reciprocal lattice vector 2:  0.000000  0.634630  0.000000
  | Reciprocal lattice vector 3:  0.000000  0.000000  0.634630
  | Unit cell volume                               :   0.970461E+03  Angstrom^3

  Fractional coordinates:
                         L1                L2                L3
       atom_frac        -0.56381918        1.89145047       -0.13110787  O
       atom_frac        -0.61655666        1.86633066       -0.04632955  H
       atom_frac        -0.62941251        1.85917954       -0.20643601  H
       atom_frac         0.46339446        0.44577927       -1.62339466  O
       atom_frac         0.37635586        0.40652186       -1.63278808  H
       atom_frac         0.48762240        0.49014954       -1.51219882  H
       atom_frac         0.30268520       -0.12863023       -0.88061370  O
       atom_frac         0.39165703       -0.11145340       -0.83989475  H
       atom_frac         0.27804415       -0.02784179       -0.90444975  H
       atom_frac         0.22176344        0.29601285       -0.65125877  O
       atom_frac         0.19726177        0.24164819       -0.72174475  H
       atom_frac         0.13253506        0.31147259       -0.62032816  H
       atom_frac        -2.44521769       -0.14344961        1.23629495  O
       atom_frac        -2.51406235       -0.11763387        1.32257299  H
       atom_frac        -2.37222175       -0.20916414        1.26877800  H
       atom_frac        -0.88048745       -1.36381312        1.90838893  O
       atom_frac        -0.98021726       -1.39418517        1.92519607  H
       atom_frac        -0.81294373       -1.39725571        1.97964760  H
       atom_frac         0.03505836        0.67931075        0.28012080  O
       atom_frac         0.04536011        0.77335502        0.26607411  H
       atom_frac         0.10382454        0.62321689        0.22904081  H
       atom_frac         1.15874371        2.13840645       -0.88978895  O
       atom_frac         1.08197019        2.10078228       -0.94530203  H
       atom_frac         1.23798173        2.14697163       -0.95594891  H
       atom_frac         1.26124306       -0.41868179        0.15699431  O
       atom_frac         1.27691896       -0.33411477        0.17311462  H
       atom_frac         1.33743075       -0.45051841        0.21832928  H
       atom_frac        -0.07028690        1.07824313        2.94611915  O
       atom_frac        -0.10241653        1.15379449        2.89997020  H
       atom_frac        -0.14961896        1.05347683        2.99157118  H
       atom_frac         1.39528612        0.97543268        0.42750150  O
       atom_frac         1.41351743        1.06092086        0.43856149  H
       atom_frac         1.37385297        0.93657524        0.50540223  H
       atom_frac         0.56083147       -0.67320603        0.77530238  O
       atom_frac         0.51682078       -0.71093020        0.86582968  H
       atom_frac         0.50812632       -0.58048391        0.76513426  H
       atom_frac        -0.16382928        0.50418007       -0.45130523  O
       atom_frac        -0.17498321        0.57197529       -0.52926353  H
       atom_frac        -0.13262799        0.43242345       -0.49272717  H
       atom_frac         0.76142740       -0.32636874       -0.64978208  O
       atom_frac         0.85289504       -0.32756463       -0.69195853  H
       atom_frac         0.79028438       -0.27491301       -0.57470646  H
       atom_frac        -2.42431986        0.54033261        1.60167869  O
       atom_frac        -2.33913267        0.51393205        1.57258940  H
       atom_frac        -2.40676528        0.62138164        1.64763574  H
       atom_frac        -0.92501225       -0.52386383        0.68455793  O
       atom_frac        -1.01466080       -0.48511648        0.66907899  H
       atom_frac        -0.89240699       -0.49758145        0.76889466  H
       atom_frac         0.73775497        1.03942710        1.15228952  O
       atom_frac         0.69467959        1.12690709        1.14536061  H
       atom_frac         0.66572968        0.97615183        1.17460141  H
       atom_frac        -0.86259046       -0.31658241        1.52485468  O
       atom_frac        -0.89683502       -0.33286434        1.43587982  H
       atom_frac        -0.87750074       -0.39635677        1.57812445  H
       atom_frac         1.00995803        0.84705900       -0.21882623  O
       atom_frac         1.08432360        0.79094091       -0.18546949  H
       atom_frac         1.01111554        0.94328194       -0.17182581  H
       atom_frac         0.66442268       -0.27411709        0.78627450  O
       atom_frac         0.60183525       -0.22267854        0.83025286  H
       atom_frac         0.71004439       -0.21188621        0.73472383  H
       atom_frac         1.33817818        0.14556363        0.89293524  O
       atom_frac         1.36803511        0.05449707        0.88153385  H
       atom_frac         1.29460485        0.15876997        0.81301746  H
       atom_frac         0.11057669        0.94001040        1.37147936  O
       atom_frac         0.10580927        1.00100903        1.29384731  H
       atom_frac         0.20059795        0.92828075        1.37685280  H
       atom_frac         0.23831302        2.25081435        0.64737919  O
       atom_frac         0.18724212        2.32675962        0.62310478  H
       atom_frac         0.29587447        2.23439102        0.55552671  H
       atom_frac         1.85737156       -0.42991046        0.93434506  O
       atom_frac         1.82750453       -0.49427961        0.87770780  H
       atom_frac         1.78241613       -0.36242431        0.93621162  H
       atom_frac        -0.19616890        1.84253400       -0.40740868  O
       atom_frac        -0.08816823        1.83688785       -0.34507881  H
       atom_frac        -0.21497089        1.93388246       -0.46940928  H
       atom_frac         0.58414230       -0.73294817        0.17336108  O
       atom_frac         0.65777053       -0.67857846        0.17783153  H
       atom_frac         0.50276399       -0.67942286        0.21193065  H
       atom_frac         0.78553818        1.08308124        1.43807162  O
       atom_frac         0.77982334        1.07746539        1.33967305  H
       atom_frac         0.70514062        1.12083672        1.46042392  H
       atom_frac         0.96144457        0.29479776        0.40037675  O
       atom_frac         0.92046300        0.19523764        0.40957018  H
       atom_frac         0.91843382        0.31860856        0.31290484  H
       atom_frac         1.85543227       -0.61696673        0.13682068  O
       atom_frac         1.90731828       -0.69409982        0.08822257  H
       atom_frac         1.84138255       -0.53659847        0.09078425  H
       atom_frac        -0.46827701        1.18996419        1.52953119  O
       atom_frac        -0.48204595        1.22912363        1.61456687  H
       atom_frac        -0.45044972        1.28026221        1.47981678  H
       atom_frac         0.28549626       -0.14397079       -0.33395720  O
       atom_frac         0.22280580       -0.08020090       -0.33559550  H
       atom_frac         0.22772573       -0.22368151       -0.36463025  H
       atom_frac         1.85529087        2.33184015       -0.18955715  O
       atom_frac         1.91330785        2.34858669       -0.27310200  H
       atom_frac         1.77126523        2.34036493       -0.21980799  H

 
  Finished reading input file 'geometry.in'.
 

 
  Consistency checks for stacksize environment parameter are next.
 
  | Maximum stacksize for task 0: unlimited
  | Maximum stacksize for task 1: unlimited
  | Maximum stacksize for task 2: unlimited
  | Maximum stacksize for task 3: unlimited
  | Maximum stacksize for task 4: unlimited
  | Maximum stacksize for task 5: unlimited
  | Maximum stacksize for task 6: unlimited
  | Maximum stacksize for task 7: unlimited
  | Maximum stacksize for task 8: unlimited
  | Maximum stacksize for task 9: unlimited
  | Maximum stacksize for task 10: unlimited
  | Maximum stacksize for task 11: unlimited
  | Maximum stacksize for task 12: unlimited
  | Maximum stacksize for task 13: unlimited
  | Maximum stacksize for task 14: unlimited
  | Maximum stacksize for task 15: unlimited
  | Maximum stacksize for task 16: unlimited
  | Maximum stacksize for task 17: unlimited
  | Current stacksize for task 0: unlimited
  | Current stacksize for task 1: unlimited
  | Current stacksize for task 2: unlimited
  | Current stacksize for task 3: unlimited
  | Current stacksize for task 4: unlimited
  | Current stacksize for task 5: unlimited
  | Current stacksize for task 6: unlimited
  | Current stacksize for task 7: unlimited
  | Current stacksize for task 8: unlimited
  | Current stacksize for task 9: unlimited
  | Current stacksize for task 10: unlimited
  | Current stacksize for task 11: unlimited
  | Current stacksize for task 12: unlimited
  | Current stacksize for task 13: unlimited
  | Current stacksize for task 14: unlimited
  | Current stacksize for task 15: unlimited
  | Current stacksize for task 16: unlimited
  | Current stacksize for task 17: unlimited
 
  Consistency checks for the contents of control.in are next.
 
  MPI_IN_PLACE appears to work with this MPI implementation.
  | Keeping use_mpi_in_place .true. (see manual).
  Explicit treatment of the Coulomb operator is needed, but the RI method is not specified.
  Coulomb operator: Defaulting to 'LVL fast' resolution of identity - RI_type = LVL_fast
  Species H: Using default value for prodbas_acc =   1.000000E-06.
  Species H: Using default value max_l_prodbas =     6.
  Species O: Using default value for prodbas_acc =   1.000000E-06.
  Species O: Using default value max_l_prodbas =     6.
  Target number of points in a grid batch is not set.  Since GPU acceleration is enabled, defaulting to  200
  Method for grid partitioning is not set. Defaulting to parallel hash+maxmin partitioning.
  Batch size limit is not set. Defaulting to    200
  By default, will store active basis functions for each batch.
  If in need of memory, prune_basis_once .false. can be used to disable this option.
  communication_type for Hartree potential was not specified.
  Defaulting to calc_hartree .
  Defaulting to Pulay charge density mixer.
  Pulay mixer: Number of relevant iterations not set.
  Defaulting to    8 iterations.
  Pulay mixer: Number of initial linear mixing iterations not set.
  Defaulting to    0 iterations.
  Work space size for distributed Hartree potential not set.
  Defaulting to   0.200000E+03 MB.
  Mixing parameter for charge density mixing has not been set.
  Using default: charge_mix_param =     0.0500.
  The mixing parameter will be adjusted in iteration number     2 of the first full s.c.f. cycle only.
  Algorithm-dependent basis array size parameters:
  | n_max_pulay                         :        8
  Maximum number of self-consistency iterations not provided.
  Presetting  1000 iterations.
  Presetting      1001 iterations before the initial mixing cycle
  is restarted anyway using the sc_init_iter criterion / keyword.
  Presetting a factor      1.000 between actual scf density residual
  and density convergence criterion sc_accuracy_rho below which sc_init_iter
  takes no effect.
  Calculation of forces was not defined in control.in. No forces will be calculated.
  Geometry relaxation not requested: no relaxation will be performed.
  No accuracy limit for integral partition fn. given. Defaulting to  0.1000E-14.
  No occupation type (smearing scheme) given. Defaulting to Gaussian broadening, width =  0.1000E-01 eV.
  The width will be adjusted in iteration number     2 of the first full s.c.f. cycle only.
  S.C.F. convergence parameters will be adjusted in iteration number     2 of the first full s.c.f. cycle only.
  No accuracy for occupation numbers given. Defaulting to  0.1000E-12.
  No threshold value for occupation numbers given. Defaulting to  0.0000E+00.
  No accuracy for fermi level given. Defaulting to  0.1000E-19.
  Maximum # of iterations to find E_F not set. Defaulting to  200.
  Preferred method for the eigenvalue solver ('KS_method') not specified in 'control.in'.
  Calling BLACS routine to test compilation state
  Since ScaLAPACK support is enabled, defaulting to ELPA (via ELSI).
  Will not use alltoall communication since running on < 1024 CPUs.
  Threshold for basis singularities not set.
  Default threshold for basis singularities:  0.1000E-04
  partition_type (choice of integration weights) for integrals was not specified.
  | Using a version of the partition function of Stratmann and coworkers ('stratmann_sparse').
  | At each grid point, the set of atoms used to build the partition table is smoothly restricted to
  | only those atoms whose free-atom density would be non-zero at that grid point.
  Partitioning for Hartree potential was not defined. Using partition_type for integrals.
  | Adjusted default value of keyword multip_moments_threshold to:       0.10000000E-11
  | This value may affect high angular momentum components of the Hartree potential in periodic systems.
  Angular momentum expansion for Kerker preconditioner not set explicitly.
  | Using default value of   0
  No explicit requirement for turning off preconditioner.
  | By default, it will be turned off when the charge convergence reaches
  | sc_accuracy_rho  =   0.100000E-05
  No special mixing parameter while Kerker preconditioner is on.
  Using default: charge_mix_param =     0.0500.
  Threshold for auxiliary basis singularities not set.
  Default threshold for auxiliary basis singularities:  0.1000E-04
  No q(lm)/r^(l+1) cutoff set for long-range Hartree potential.
  | Using default value of  0.100000E-09 .
  | Verify using the multipole_threshold keyword.
  Defaulting to new monopole extrapolation.
  Density update method: automatic selection selected.
  Using density matrix based charge density update.
  Using density matrix based charge density update.
  Using packed matrix style: index .
  Defaulting to use time-reversal symmetry for k-point grid.
  Charge integration errors on the 3D integration grid will be compensated
  by explicit normalization and distribution of residual charges.
  Use the "compensate_multipole_errors" flag to change this behaviour.
  Default to 1D ("use_logsbt") integrations for auxiliary 2-center integrals.
  Default onset of logarithmic r-grid for SBT is -38.000000000000
  Default onset of logarithmic k-grid for SBT is -25.000000000000
  Default range of logarithmic r- and k-grid for SBT is  45.000000000000
  Default number of logarithmic r- and k-grid for SBT is   4096
  Default of use_2d_corr is to use the efficient 2D distribution where possible
 
  Consistency checks for the contents of geometry.in are next.
 

  Range separation radius for Ewald summation (hartree_convergence_parameter):      2.98935405 bohr.
  Number of empty states per atom not set in control.in .
  | Since you are using a method that relies on the unoccupied spectrum
  | (MP2,GW,RPA et al.), will use the full Hamiltonian size (see below)
  | as the max. possible number of states (occupied plus empty).

  Structure-dependent array size parameters: 
  | Maximum number of distinct radial functions  :        9
  | Maximum number of basis functions            :      768
  | Number of Kohn-Sham states (occupied + empty):      768
------------------------------------------------------------

  Performing system and environment tests:
  | Environment variable OMP_NUM_THREADS correctly set to 1.
  | Checking for ScaLAPACK...
  | Testing pdtran()...
  | All pdtran() tests passed.
CUDA runtime version: 11060
CUDA driver version: 11060
  Initializing GPUs...

  Number of GPUs available to MPI task         0 :   1
  Number of GPUs available to MPI task         1 :   1
  Number of GPUs available to MPI task         2 :   1
  Number of GPUs available to MPI task         3 :   1
  Number of GPUs available to MPI task         4 :   1
  Number of GPUs available to MPI task         5 :   1
  Number of GPUs available to MPI task         6 :   1
  Number of GPUs available to MPI task         7 :   1
  Number of GPUs available to MPI task         8 :   1
  Number of GPUs available to MPI task         9 :   1
  Number of GPUs available to MPI task        10 :   1
  Number of GPUs available to MPI task        11 :   1
  Number of GPUs available to MPI task        12 :   1
  Number of GPUs available to MPI task        13 :   1
  Number of GPUs available to MPI task        14 :   1
  Number of GPUs available to MPI task        15 :   1
  Number of GPUs available to MPI task        16 :   1
  Number of GPUs available to MPI task        17 :   1

  | MPI task         0, GPU activated = T, Device Name = NVIDIA A100-SXM4-80GB
  | MPI task         1, GPU activated = T, Device Name = NVIDIA A100-SXM4-80GB
  | MPI task         2, GPU activated = T, Device Name = NVIDIA A100-SXM4-80GB
  | MPI task         3, GPU activated = T, Device Name = NVIDIA A100-SXM4-80GB
  | MPI task         4, GPU activated = T, Device Name = NVIDIA A100-SXM4-80GB
  | MPI task         5, GPU activated = T, Device Name = NVIDIA A100-SXM4-80GB
  | MPI task         6, GPU activated = T, Device Name = NVIDIA A100-SXM4-80GB
  | MPI task         7, GPU activated = T, Device Name = NVIDIA A100-SXM4-80GB
  | MPI task         8, GPU activated = T, Device Name = NVIDIA A100-SXM4-80GB
  | MPI task         9, GPU activated = T, Device Name = NVIDIA A100-SXM4-80GB
  | MPI task        10, GPU activated = T, Device Name = NVIDIA A100-SXM4-80GB
  | MPI task        11, GPU activated = T, Device Name = NVIDIA A100-SXM4-80GB
  | MPI task        12, GPU activated = T, Device Name = NVIDIA A100-SXM4-80GB
  | MPI task        13, GPU activated = T, Device Name = NVIDIA A100-SXM4-80GB
  | MPI task        14, GPU activated = T, Device Name = NVIDIA A100-SXM4-80GB
  | MPI task        15, GPU activated = T, Device Name = NVIDIA A100-SXM4-80GB
  | MPI task        16, GPU activated = T, Device Name = NVIDIA A100-SXM4-80GB
  | MPI task        17, GPU activated = T, Device Name = NVIDIA A100-SXM4-80GB

------------------------------------------------------------
          Preparing all fixed parts of the calculation.
------------------------------------------------------------
  Determining machine precision:
    2.225073858507201E-308
  Setting up grids for atomic and cluster calculations.

  Creating wave function, potential, and density for free atoms.
  Runtime choices for atomic solver:
  | atomic solver xc        : PW-LDA
  | compute density gradient: 0
  | compute kinetic density : F

  Species: H

  List of occupied orbitals and eigenvalues:
    n    l              occ      energy [Ha]    energy [eV]
    1    0           1.0000        -0.232375        -6.3233


  Species: O

  List of occupied orbitals and eigenvalues:
    n    l              occ      energy [Ha]    energy [eV]
    1    0           2.0000       -18.757744      -510.4242
    2    0           2.0000        -0.870917       -23.6989
    2    1           4.0000        -0.337950        -9.1961


  Adding cutoff potential to free-atom effective potential.
  Creating fixed part of basis set: Ionic, confined, hydrogenic.
 
  H                    hydrogenic:
 
  List of hydrogenic basis orbitals: 
    n    l      effective z      eigenvalue [eV]  inner max. [A]     outer max. [A]     outer radius [A]   
    2    0         2.100000       -14.9728           0.193243           1.317208           4.696947
    2    1         3.500000       -41.6669           0.602369           0.602369           3.862494
 
 
  O                    hydrogenic:
 
  List of hydrogenic basis orbitals: 
    n    l      effective z      eigenvalue [eV]  inner max. [A]     outer max. [A]     outer radius [A]   
    2    1         1.800000       -10.9749           1.164242           1.164242           4.691341
    3    2         7.600000       -87.3180           0.624125           0.624125           3.413946
    3    0         6.400000       -61.9207           0.061167           1.081902           4.151495
 
  Creating atomic-like basis functions for current effective potential.

  Species H                   :

  List of atomic basis orbitals and eigenvalues:
    n    l      energy [Ha]    energy [eV]    outer radius [A]
    1    0        -0.232375        -6.3233       4.696947


  Species O                   :

  List of atomic basis orbitals and eigenvalues:
    n    l      energy [Ha]    energy [eV]    outer radius [A]
    1    0       -18.757744      -510.4242       1.830144
    2    0        -0.870917       -23.6989       4.578029
    2    1        -0.337950        -9.1961       4.634338

  Assembling full basis from fixed parts.
  | Species H :   atomic orbital   1 s accepted.
  | Species H :    hydro orbital   2 s accepted.
  | Species H :    hydro orbital   2 p accepted.
  | Species O :   atomic orbital   1 s accepted.
  | Species O :    hydro orbital   3 s accepted.
  | Species O :   atomic orbital   2 s accepted.
  | Species O :   atomic orbital   2 p accepted.
  | Species O :    hydro orbital   2 p accepted.
  | Species O :    hydro orbital   3 d accepted.
 
  Basis size parameters after reduction:
  | Total number of radial functions:        9
  | Total number of basis functions :      768
 
  Per-task memory consumption for arrays in subroutine allocate_ext:
  |           2.268304MB.
  Testing on-site integration grid accuracy.
  |  Species  Function  <phi|h_atom|phi> (log., in eV)  <phi|h_atom|phi> (rad., in eV)
           1        1                 -6.3245358373                 -6.3232436907
           1        2                 14.1326137532                 14.1384481100
           1        3                 25.3627025200                 25.3628451197
           2        4               -510.4241781764               -510.4240769407
           2        5                 14.9072942213                 14.9072945271
           2        6                -21.2004736474                -21.2005650551
           2        7                 -9.1962086505                 -9.1963509834
           2        8                  8.1896755006                  8.1702200081
           2        9                 45.7920584937                 45.7920228520

  Preparing densities etc. for the partition functions (integrals / Hartree potential).

  Preparations completed.
  max(cpu_time)          :      0.070 s.
  Wall clock time (cpu1) :      0.068 s.
------------------------------------------------------------

  Initializing index lists of integration centers etc. from given atomic structure:
  Mapping all atomic coordinates to central unit cell.

  Initializing the k-points
  Using symmetry for reducing the k-points
  | k-points reduced from:        1 to        1
  | Number of k-points                             :         1
  | Consuming          0 KiB for k_phase_exx.
  The eigenvectors in the calculations are REAL.
  | Number of basis functions in the Hamiltonian integrals :      4541
  | Number of basis functions in a single unit cell        :       768
  | Number of centers in hartree potential         :      2614
  | Number of centers in hartree multipole         :      1927
  | Number of centers in electron density summation:      1488
  | Number of centers in basis integrals           :      1553
  | Number of centers in integrals                 :       696
  | Number of centers in hamiltonian               :      1489
  | Consuming          0 KiB for k_phase.
  | Number of super-cells (origin) [n_cells]                     :         125
  | Number of super-cells (after PM_index) [n_cells]             :          28
  | Number of super-cells in hamiltonian [n_cells_in_hamiltonian]:          28
  | Size of matrix packed + index [n_hamiltonian_matrix_size] :      782468
  | Size of matrix packed + index (no_symmetry):     1564167

------------------------------------------------------------
          Begin self-consistency loop: Initialization.

          Date     :  20230221, Time     :  141657.918
------------------------------------------------------------
  | Estimated reciprocal-space cutoff momentum G_max:         3.16208541 bohr^-1 .
  | Reciprocal lattice points for long-range Hartree potential:    3430
  Using simple linear distribution as default method for k-point parallelism.
  * Using 18 tasks for Scalapack Eigenvalue solver.
  Detailed listing of tasks and assigned k-points:
   Task     0 k-point     1 on adag038
   Task     1 k-point     1 on adag038
   Task     2 k-point     1 on adag038
   Task     3 k-point     1 on adag038
   Task     4 k-point     1 on adag038
   Task     5 k-point     1 on adag038
   Task     6 k-point     1 on adag038
   Task     7 k-point     1 on adag038
   Task     8 k-point     1 on adag038
   Task     9 k-point     1 on adag038
   Task    10 k-point     1 on adag038
   Task    11 k-point     1 on adag038
   Task    12 k-point     1 on adag038
   Task    13 k-point     1 on adag038
   Task    14 k-point     1 on adag038
   Task    15 k-point     1 on adag038
   Task    16 k-point     1 on adag038
   Task    17 k-point     1 on adag038
  K-point:     1 Tasks:    18 split into      6 X      3 BLACS grid
  Calculating block size based on n_basis =          768  max_nprow =            6  max_npcol =            3
  ScaLAPACK block size set to:           16
  Allocating        0.250 MB for ovlp
  Allocating        0.250 MB for ham
  Allocating        0.250 MB for eigenvec
  Required Scalapack workspace - INTEGER:            1  REAL:             1
  Partitioning the integration grid into batches with parallel hashing+maxmin method.
  | Number of batches:     4047
  | Maximal batch size:     200
  | Minimal batch size:      99
  | Average batch size:     125.913
  | Standard deviation of batch sizes:      21.391

  Integration load balanced across    18 MPI tasks.
  Work distribution over tasks is as follows:
  Task     0 has      28271 integration points.
  Task     1 has      28325 integration points.
  Task     2 has      28340 integration points.
  Task     3 has      28309 integration points.
  Task     4 has      28389 integration points.
  Task     5 has      28313 integration points.
  Task     6 has      28320 integration points.
  Task     7 has      28339 integration points.
  Task     8 has      28323 integration points.
  Task     9 has      28274 integration points.
  Task    10 has      28310 integration points.
  Task    11 has      28282 integration points.
  Task    12 has      28298 integration points.
  Task    13 has      28297 integration points.
  Task    14 has      28266 integration points.
  Task    15 has      28318 integration points.
  Task    16 has      28316 integration points.
  Task    17 has      28278 integration points.
  Initializing partition tables, free-atom densities, potentials, etc. across the integration grid (initialize_grid_storage).
  | initialize_grid_storage: Actual outermost partition radius vs. multipole_radius_free
  | (-- VB: in principle, multipole_radius_free should be larger, hence this output)
  | Species        1: Confinement radius =              4.999999999999999 AA, multipole_radius_free =              5.054417573612229 AA.
  | Species        1: outer_partition_radius set to              5.054417573612229 AA .
  | Species        2: Confinement radius =              4.999999999999999 AA, multipole_radius_free =              5.048384829883283 AA.
  | Species        2: outer_partition_radius set to              5.048384829883283 AA .
  | The sparse table of interatomic distances needs       5108.95 kbyte instead of     19294.47 kbyte of memory.
  | Net number of integration points:   509568
  | of which are non-zero points    :   406651
  | Numerical average free-atom electrostatic potential    :     -5.36996549 eV
  Renormalizing the initial density to the exact electron count on the 3D integration grid.
  | Initial density: Formal number of electrons (from input files) :     320.0000000000
  | Integrated number of electrons on 3D grid     :     320.0010555540
  | Charge integration error                      :       0.0010555540
  | Normalization factor for density and gradient :       0.9999967014
  Renormalizing the free-atom superposition density to the exact electron count on the 3D integration grid.
  | Formal number of electrons (from input files) :     320.0000000000
  | Integrated number of electrons on 3D grid     :     320.0010555540
  | Charge integration error                      :       0.0010555540
  | Normalization factor for density and gradient :       0.9999967014
  Obtaining max. number of non-zero basis functions in each batch (get_n_compute_maxes).
  | Maximal number of non-zero basis functions:      435 in task     0
  | Maximal number of non-zero basis functions:      418 in task     1
  | Maximal number of non-zero basis functions:      422 in task     2
  | Maximal number of non-zero basis functions:      409 in task     3
  | Maximal number of non-zero basis functions:      404 in task     4
  | Maximal number of non-zero basis functions:      412 in task     5
  | Maximal number of non-zero basis functions:      418 in task     6
  | Maximal number of non-zero basis functions:      406 in task     7
  | Maximal number of non-zero basis functions:      428 in task     8
  | Maximal number of non-zero basis functions:      414 in task     9
  | Maximal number of non-zero basis functions:      409 in task    10
  | Maximal number of non-zero basis functions:      414 in task    11
  | Maximal number of non-zero basis functions:      410 in task    12
  | Maximal number of non-zero basis functions:      410 in task    13
  | Maximal number of non-zero basis functions:      410 in task    14
  | Maximal number of non-zero basis functions:      435 in task    15
  | Maximal number of non-zero basis functions:      424 in task    16
  | Maximal number of non-zero basis functions:      411 in task    17
  Integrating Hamiltonian matrix: batch-based integration.
  GPU acceleration will be used when integrating the Hamiltonian matrix.
  Reporting GPU memory usage by myid 0.  Note that it is likely not the only MPI task binding to its GPU!
  Allocating        1.514 MB on GPU for hamiltonian_shell
  Allocating        0.696 MB on GPU for wave
  Allocating        0.002 MB on GPU for partition
  Allocating        0.696 MB on GPU for h_times_psi
  Time summed over all CPUs for integration: real work       11.703 s, elapsed       12.057 s
  Deallocating memory used on GPU for Hamiltonian integration.
  Integrating overlap matrix.
  Time summed over all CPUs for integration: real work        9.790 s, elapsed        9.902 s
  Deallocating overlap matrix.

  Updating Kohn-Sham eigenvalues and eigenvectors using ELSI and the ELPA eigensolver.
  Singularity check in k-point 1 (analysis for other k-points may follow below):
  Overlap matrix is not singular
  | Lowest and highest eigenvalues :  0.2202E-02,  0.7476E+01
  Finished singularity check of overlap matrix
  | Time :     0.145 s
  Starting ELPA eigensolver (GPU)
  Finished Cholesky decomposition
  | Time :     0.007 s
  Finished transformation to standard eigenproblem
  | Time :     0.026 s
  Finished solving standard eigenproblem
  | Time :     0.312 s
  Finished back-transformation of eigenvectors
  | Time :     0.023 s

  Obtaining occupation numbers and electronic chemical potential using ELSI.
  | Note that, for insulating systems, the printed 'chemical potential' value is not uniquely defined.
  | It can be anywhere in the energy gap, as long as it correctly separates occupied and unoccupied states.
  | In systems with a gap, the physically relevant chemical potential is the VBM or HOMO.

  | Chemical potential (Fermi level):    -6.07276020 eV
  Writing Kohn-Sham eigenvalues.

  State    Occupation    Eigenvalue [Ha]    Eigenvalue [eV]
      1       2.00000         -18.920526         -514.85372
      2       2.00000         -18.898193         -514.24599
      3       2.00000         -18.895045         -514.16035
      4       2.00000         -18.892222         -514.08352
      5       2.00000         -18.890566         -514.03846
      6       2.00000         -18.890246         -514.02974
      7       2.00000         -18.890154         -514.02723
      8       2.00000         -18.889992         -514.02284
      9       2.00000         -18.889184         -514.00084
     10       2.00000         -18.888331         -513.97765
     11       2.00000         -18.888323         -513.97743
     12       2.00000         -18.885629         -513.90411
     13       2.00000         -18.883989         -513.85948
     14       2.00000         -18.883342         -513.84187
     15       2.00000         -18.878936         -513.72199
     16       2.00000         -18.875952         -513.64078
     17       2.00000         -18.875141         -513.61873
     18       2.00000         -18.873654         -513.57827
     19       2.00000         -18.872802         -513.55507
     20       2.00000         -18.869497         -513.46515
     21       2.00000         -18.868698         -513.44339
     22       2.00000         -18.859313         -513.18802
     23       2.00000         -18.858564         -513.16765
     24       2.00000         -18.856028         -513.09862
     25       2.00000         -18.855068         -513.07251
     26       2.00000         -18.853802         -513.03806
     27       2.00000         -18.852847         -513.01208
     28       2.00000         -18.850351         -512.94415
     29       2.00000         -18.844282         -512.77902
     30       2.00000         -18.842456         -512.72932
     31       2.00000         -18.840649         -512.68015
     32       2.00000         -18.817643         -512.05412
     33       2.00000          -1.173919          -31.94395
     34       2.00000          -1.149726          -31.28563
     35       2.00000          -1.145329          -31.16600
     36       2.00000          -1.142293          -31.08339
     37       2.00000          -1.139766          -31.01460
     38       2.00000          -1.138259          -30.97361
     39       2.00000          -1.135768          -30.90581
     40       2.00000          -1.135257          -30.89190
     41       2.00000          -1.133901          -30.85501
     42       2.00000          -1.132947          -30.82905
     43       2.00000          -1.130808          -30.77084
     44       2.00000          -1.128157          -30.69871
     45       2.00000          -1.123171          -30.56303
     46       2.00000          -1.118463          -30.43492
     47       2.00000          -1.115996          -30.36779
     48       2.00000          -1.110121          -30.20794
     49       2.00000          -1.108055          -30.15171
     50       2.00000          -1.101282          -29.96741
     51       2.00000          -1.098534          -29.89264
     52       2.00000          -1.093609          -29.75861
     53       2.00000          -1.089770          -29.65416
     54       2.00000          -1.083033          -29.47083
     55       2.00000          -1.080460          -29.40083
     56       2.00000          -1.076259          -29.28650
     57       2.00000          -1.071805          -29.16531
     58       2.00000          -1.070293          -29.12416
     59       2.00000          -1.066055          -29.00884
     60       2.00000          -1.056825          -28.75767
     61       2.00000          -1.052390          -28.63698
     62       2.00000          -1.045881          -28.45987
     63       2.00000          -1.045313          -28.44441
     64       2.00000          -0.999970          -27.21057
     65       2.00000          -0.728330          -19.81886
     66       2.00000          -0.685684          -18.65842
     67       2.00000          -0.682818          -18.58042
     68       2.00000          -0.679018          -18.47702
     69       2.00000          -0.672808          -18.30803
     70       2.00000          -0.668720          -18.19680
     71       2.00000          -0.667257          -18.15700
     72       2.00000          -0.665224          -18.10168
     73       2.00000          -0.664197          -18.07372
     74       2.00000          -0.663720          -18.06075
     75       2.00000          -0.662770          -18.03488
     76       2.00000          -0.661545          -18.00156
     77       2.00000          -0.658143          -17.90898
     78       2.00000          -0.656713          -17.87007
     79       2.00000          -0.655646          -17.84104
     80       2.00000          -0.654361          -17.80608
     81       2.00000          -0.649260          -17.66726
     82       2.00000          -0.647132          -17.60935
     83       2.00000          -0.642288          -17.47754
     84       2.00000          -0.640162          -17.41968
     85       2.00000          -0.632349          -17.20709
     86       2.00000          -0.630159          -17.14751
     87       2.00000          -0.627711          -17.08090
     88       2.00000          -0.625868          -17.03073
     89       2.00000          -0.624770          -17.00085
     90       2.00000          -0.622792          -16.94703
     91       2.00000          -0.620767          -16.89193
     92       2.00000          -0.614797          -16.72947
     93       2.00000          -0.602499          -16.39484
     94       2.00000          -0.599077          -16.30172
     95       2.00000          -0.587935          -15.99854
     96       2.00000          -0.583704          -15.88340
     97       2.00000          -0.577615          -15.71771
     98       2.00000          -0.568975          -15.48260
     99       2.00000          -0.566761          -15.42235
    100       2.00000          -0.564411          -15.35840
    101       2.00000          -0.562586          -15.30873
    102       2.00000          -0.559684          -15.22976
    103       2.00000          -0.553140          -15.05170
    104       2.00000          -0.552093          -15.02322
    105       2.00000          -0.551510          -15.00736
    106       2.00000          -0.548811          -14.93391
    107       2.00000          -0.547006          -14.88480
    108       2.00000          -0.543958          -14.80185
    109       2.00000          -0.541923          -14.74648
    110       2.00000          -0.538897          -14.66412
    111       2.00000          -0.537771          -14.63350
    112       2.00000          -0.535032          -14.55895
    113       2.00000          -0.532909          -14.50119
    114       2.00000          -0.528808          -14.38960
    115       2.00000          -0.528062          -14.36929
    116       2.00000          -0.522854          -14.22758
    117       2.00000          -0.518295          -14.10352
    118       2.00000          -0.516230          -14.04734
    119       2.00000          -0.513454          -13.97180
    120       2.00000          -0.512491          -13.94559
    121       2.00000          -0.511054          -13.90647
    122       2.00000          -0.507824          -13.81858
    123       2.00000          -0.504257          -13.72152
    124       2.00000          -0.502609          -13.67668
    125       2.00000          -0.498435          -13.56310
    126       2.00000          -0.490792          -13.35513
    127       2.00000          -0.485216          -13.20339
    128       2.00000          -0.482724          -13.13559
    129       2.00000          -0.480826          -13.08395
    130       2.00000          -0.475828          -12.94795
    131       2.00000          -0.474410          -12.90934
    132       2.00000          -0.474170          -12.90281
    133       2.00000          -0.472132          -12.84736
    134       2.00000          -0.471868          -12.84019
    135       2.00000          -0.469996          -12.78924
    136       2.00000          -0.468813          -12.75704
    137       2.00000          -0.468514          -12.74892
    138       2.00000          -0.468077          -12.73702
    139       2.00000          -0.467564          -12.72305
    140       2.00000          -0.465583          -12.66915
    141       2.00000          -0.465079          -12.65545
    142       2.00000          -0.463548          -12.61378
    143       2.00000          -0.462537          -12.58629
    144       2.00000          -0.459125          -12.49343
    145       2.00000          -0.458656          -12.48068
    146       2.00000          -0.458279          -12.47041
    147       2.00000          -0.455067          -12.38300
    148       2.00000          -0.451613          -12.28900
    149       2.00000          -0.449988          -12.24480
    150       2.00000          -0.449191          -12.22311
    151       2.00000          -0.446478          -12.14929
    152       2.00000          -0.446111          -12.13931
    153       2.00000          -0.445162          -12.11347
    154       2.00000          -0.442208          -12.03310
    155       2.00000          -0.441289          -12.00809
    156       2.00000          -0.435516          -11.85099
    157       2.00000          -0.435226          -11.84310
    158       2.00000          -0.433175          -11.78729
    159       2.00000          -0.431917          -11.75305
    160       2.00000          -0.416450          -11.33217
    161       0.00000          -0.170991           -4.65289
    162       0.00000          -0.112318           -3.05633
    163       0.00000          -0.111224           -3.02657
    164       0.00000          -0.107620           -2.92848
    165       0.00000          -0.103036           -2.80374
    166       0.00000          -0.098656           -2.68455
    167       0.00000          -0.093523           -2.54488
    168       0.00000          -0.074969           -2.04001
    169       0.00000          -0.065557           -1.78391
    170       0.00000          -0.059959           -1.63156
    171       0.00000          -0.054268           -1.47672
    172       0.00000          -0.052271           -1.42236
    173       0.00000          -0.050444           -1.37264
    174       0.00000          -0.048133           -1.30977
    175       0.00000          -0.045097           -1.22716
    176       0.00000          -0.038626           -1.05105
    177       0.00000          -0.035190           -0.95757
    178       0.00000          -0.031236           -0.84999
    179       0.00000          -0.019208           -0.52267
    180       0.00000          -0.012779           -0.34772
    181       0.00000          -0.010295           -0.28014
    182       0.00000          -0.005266           -0.14330
    183       0.00000          -0.000330           -0.00897
    184       0.00000           0.006660            0.18122
    185       0.00000           0.009394            0.25562
    186       0.00000           0.012861            0.34997
    187       0.00000           0.021434            0.58325
    188       0.00000           0.026609            0.72405
    189       0.00000           0.030162            0.82075
    190       0.00000           0.034222            0.93122
    191       0.00000           0.039135            1.06492
    192       0.00000           0.046457            1.26416
    193       0.00000           0.047330            1.28790
    194       0.00000           0.049263            1.34050
    195       0.00000           0.053458            1.45467
    196       0.00000           0.056917            1.54879
    197       0.00000           0.057871            1.57475
    198       0.00000           0.061989            1.68679
    199       0.00000           0.062850            1.71024
    200       0.00000           0.066679            1.81444
    201       0.00000           0.068981            1.87706
    202       0.00000           0.072053            1.96066
    203       0.00000           0.076155            2.07227
    204       0.00000           0.077013            2.09563
    205       0.00000           0.080329            2.18587
    206       0.00000           0.084142            2.28961
    207       0.00000           0.084436            2.29762
    208       0.00000           0.086947            2.36595
    209       0.00000           0.089534            2.43635
    210       0.00000           0.092831            2.52605
    211       0.00000           0.094256            2.56483
    212       0.00000           0.096281            2.61994
    213       0.00000           0.098432            2.67847
    214       0.00000           0.103650            2.82046
    215       0.00000           0.104973            2.85646
    216       0.00000           0.107077            2.91371
    217       0.00000           0.111198            3.02584
    218       0.00000           0.113734            3.09485
    219       0.00000           0.117790            3.20523
    220       0.00000           0.120986            3.29218
    221       0.00000           0.122268            3.32708
    222       0.00000           0.127290            3.46374
    223       0.00000           0.132770            3.61286
    224       0.00000           0.137760            3.74864
    225       0.00000           0.143343            3.90055
    226       0.00000           0.145622            3.96258
    227       0.00000           0.151146            4.11290
    228       0.00000           0.155639            4.23516
    229       0.00000           0.159696            4.34556
    230       0.00000           0.164073            4.46467
    231       0.00000           0.166727            4.53688
    232       0.00000           0.177343            4.82574
    233       0.00000           0.181878            4.94916
    234       0.00000           0.185781            5.05537
    235       0.00000           0.188310            5.12419
    236       0.00000           0.198881            5.41184
    237       0.00000           0.203654            5.54170
    238       0.00000           0.209600            5.70350
    239       0.00000           0.216684            5.89628
    240       0.00000           0.223421            6.07960
    241       0.00000           0.225330            6.13155
    242       0.00000           0.230090            6.26108
    243       0.00000           0.231629            6.30296
    244       0.00000           0.240147            6.53473
    245       0.00000           0.248850            6.77155
    246       0.00000           0.252850            6.88040
    247       0.00000           0.258419            7.03195
    248       0.00000           0.266949            7.26406
    249       0.00000           0.269583            7.33573
    250       0.00000           0.275537            7.49773
    251       0.00000           0.278526            7.57908
    252       0.00000           0.281858            7.66974
    253       0.00000           0.288653            7.85464
    254       0.00000           0.298201            8.11447
    255       0.00000           0.301778            8.21180
    256       0.00000           0.311227            8.46892
    257       0.00000           0.322664            8.78012
    258       0.00000           0.327860            8.92152
    259       0.00000           0.336637            9.16035
    260       0.00000           0.341831            9.30169
[...]
  |    H      0     4.527807 A      4.527807 A        1.268855E-16 a.u.
  |    H      0     4.527807 A      4.583499 A       -4.900954E-17 a.u.
  |    H      0     4.527807 A      4.583499 A        4.713786E-16 a.u.
  |    H      2     3.678162 A  2.180220E+05 A            0.556529 a.u.
  |    H      1     3.958095 A  1.721251E+08 A            0.841931 a.u.
  |    H      0     4.527807 A  3.866455E+16 A            0.581436 a.u.
  |    O      0     2.043000 A      2.043000 A       -1.436841E-16 a.u.
  |    O      3     3.498446 A      3.498446 A        3.043453E-17 a.u.
  |    O      3     3.498446 A      3.498446 A        1.541443E-16 a.u.
  |    O      0     3.905335 A      3.905335 A        2.173090E-16 a.u.
  |    O      0     3.905335 A      3.905335 A        7.213445E-17 a.u.
  |    O      0     4.101052 A      4.101052 A        2.361718E-16 a.u.
  |    O      1     4.101052 A      4.101052 A        3.235185E-17 a.u.
  |    O      0     4.359549 A      4.359549 A       -5.329475E-17 a.u.
  |    O      1     4.413171 A      4.413171 A        3.261883E-17 a.u.
  |    O      1     4.522403 A      4.522403 A        6.417997E-16 a.u.
  |    O      1     4.522403 A      4.522403 A        4.224783E-16 a.u.
  |    O      2     4.522403 A      4.522403 A       -4.387647E-16 a.u.
  |    O      0     4.522403 A      4.578029 A        2.602039E-16 a.u.
  |    O      0     4.578029 A      4.578029 A        1.226235E-16 a.u.
  |    O      1     4.578029 A      4.578029 A       -6.107316E-16 a.u.
  |    O      1     4.578029 A      4.578029 A       -2.224438E-16 a.u.
  |    O      2     4.578029 A      4.578029 A       -7.020279E-16 a.u.
  |    O      2     4.522403 A      4.578029 A        1.323470E-15 a.u.
  |    O      2     4.578029 A      4.578029 A        7.923696E-16 a.u.
  |    O      2     4.522403 A      4.578029 A       -9.951815E-16 a.u.
  |    O      0     4.578029 A      4.634338 A       -8.813582E-18 a.u.
  |    O      1     4.578029 A      4.634338 A       -3.325386E-17 a.u.
  |    O      1     4.634338 A      4.634338 A        9.588032E-16 a.u.
  |    O      2     4.578029 A      4.634338 A        1.064715E-17 a.u.
  |    O      2     4.578029 A      4.634338 A       -3.770343E-15 a.u.
  |    O      4     3.251020 A  1.511584E+03 A            1.513372 a.u.
  |    O      3     3.541477 A  1.434166E+04 A            4.293220 a.u.
  |    O      2     4.634338 A  5.584435E+05 A            9.352428 a.u.
  |    O      1     4.634338 A  2.821283E+08 A            2.261940 a.u.
  |    O      0     4.578029 A  4.264100E+16 A            0.641234 a.u.

  | Shrink_full_auxil_basis : there are       38  radial auxiliary wave functions
                            accepted and       5 rejected.
  | Shrink_full_auxil_basis : there are totally                4544 partial auxiliary wave functions.
 
  | Maximal number of product basis functions per thread :   256   256
 
  | Minimal total memory requirement for three-center overlap :      10.450 Gbs
  | Number of local auxiliary basis functions on task:      0   256
  | Number of local auxiliary basis functions on task:      1   256
  | Number of local auxiliary basis functions on task:      2   256
  | Number of local auxiliary basis functions on task:      3   256
  | Number of local auxiliary basis functions on task:      4   256
  | Number of local auxiliary basis functions on task:      5   256
  | Number of local auxiliary basis functions on task:      6   256
  | Number of local auxiliary basis functions on task:      7   256
  | Number of local auxiliary basis functions on task:      8   256
  | Number of local auxiliary basis functions on task:      9   256
  | Number of local auxiliary basis functions on task:     10   256
  | Number of local auxiliary basis functions on task:     11   256
  | Number of local auxiliary basis functions on task:     12   256
  | Number of local auxiliary basis functions on task:     13   256
  | Number of local auxiliary basis functions on task:     14   240
  | Number of local auxiliary basis functions on task:     15   240
  | Number of local auxiliary basis functions on task:     16   240
  | Number of local auxiliary basis functions on task:     17   240
  | 2D aux task distribution:      3 X      6
  | 2D block size (nb_aux_2d):     64
 
  Basis pair condensation :    295296  -->     221392
 
 --------------------------------------------
  Constructing auxiliary basis (full product) ...
 
  Product basis:
  | charge radius: extent of product basis function
  | field radius: extent of its Coulomb potential
  | Species   l  charge radius    field radius  multipol momen
  |    H      1     3.910002 A      3.910002 A       -2.487223E-16 a.u.
  |    H      1     3.958095 A      3.958095 A       -2.441841E-16 a.u.
  |    H      0     4.527807 A      4.527807 A        1.268855E-16 a.u.
  |    H      0     4.527807 A      4.583499 A       -4.900954E-17 a.u.
  |    H      0     4.527807 A      4.583499 A        4.713786E-16 a.u.
  |    H      2     3.678162 A  2.180220E+05 A            0.556529 a.u.
  |    H      1     3.958095 A  1.721251E+08 A            0.841931 a.u.
  |    H      0     4.527807 A  3.866455E+16 A            0.581436 a.u.
  |    O      0     2.043000 A      2.043000 A       -1.436841E-16 a.u.
  |    O      3     3.498446 A      3.498446 A        3.043453E-17 a.u.
  |    O      3     3.498446 A      3.498446 A        1.541443E-16 a.u.
  |    O      0     3.905335 A      3.905335 A        2.173090E-16 a.u.
  |    O      0     3.905335 A      3.905335 A        7.213445E-17 a.u.
  |    O      0     4.101052 A      4.101052 A        2.361718E-16 a.u.
  |    O      1     4.101052 A      4.101052 A        3.235185E-17 a.u.
  |    O      0     4.359549 A      4.359549 A       -5.329475E-17 a.u.
  |    O      1     4.413171 A      4.413171 A        3.261883E-17 a.u.
  |    O      1     4.522403 A      4.522403 A        6.417997E-16 a.u.
  |    O      1     4.522403 A      4.522403 A        4.224783E-16 a.u.
  |    O      2     4.522403 A      4.522403 A       -4.387647E-16 a.u.
  |    O      0     4.522403 A      4.578029 A        2.602039E-16 a.u.
  |    O      0     4.578029 A      4.578029 A        1.226235E-16 a.u.
  |    O      1     4.578029 A      4.578029 A       -6.107316E-16 a.u.
  |    O      1     4.578029 A      4.578029 A       -2.224438E-16 a.u.
  |    O      2     4.578029 A      4.578029 A       -7.020279E-16 a.u.
  |    O      2     4.522403 A      4.578029 A        1.323470E-15 a.u.
  |    O      2     4.578029 A      4.578029 A        7.923696E-16 a.u.
  |    O      2     4.522403 A      4.578029 A       -9.951815E-16 a.u.
  |    O      0     4.578029 A      4.634338 A       -8.813582E-18 a.u.
  |    O      1     4.578029 A      4.634338 A       -3.325386E-17 a.u.
  |    O      1     4.634338 A      4.634338 A        9.588032E-16 a.u.
  |    O      2     4.578029 A      4.634338 A        1.064715E-17 a.u.
  |    O      2     4.578029 A      4.634338 A       -3.770343E-15 a.u.
  |    O      4     3.251020 A  1.511584E+03 A            1.513372 a.u.
  |    O      3     3.541477 A  1.434166E+04 A            4.293220 a.u.
  |    O      2     4.634338 A  5.584435E+05 A            9.352428 a.u.
  |    O      1     4.634338 A  2.821283E+08 A            2.261940 a.u.
  |    O      0     4.578029 A  4.264100E+16 A            0.641234 a.u.

  | Shrink_full_auxil_basis : there are       38  radial auxiliary wave functions
                            accepted and       5 rejected.
  | Shrink_full_auxil_basis : there are totally                4544 partial auxiliary wave functions.
 
  | Maximal number of product basis functions per thread :   256   256
 
  | Minimal total memory requirement for three-center overlap :      10.450 Gbs
  | Number of local auxiliary basis functions on task:      0   256
  | Number of local auxiliary basis functions on task:      1   256
  | Number of local auxiliary basis functions on task:      2   256
  | Number of local auxiliary basis functions on task:      3   256
  | Number of local auxiliary basis functions on task:      4   256
  | Number of local auxiliary basis functions on task:      5   256
  | Number of local auxiliary basis functions on task:      6   256
  | Number of local auxiliary basis functions on task:      7   256
  | Number of local auxiliary basis functions on task:      8   256
  | Number of local auxiliary basis functions on task:      9   256
  | Number of local auxiliary basis functions on task:     10   256
  | Number of local auxiliary basis functions on task:     11   256
  | Number of local auxiliary basis functions on task:     12   256
  | Number of local auxiliary basis functions on task:     13   256
  | Number of local auxiliary basis functions on task:     14   240
  | Number of local auxiliary basis functions on task:     15   240
  | Number of local auxiliary basis functions on task:     16   240
  | Number of local auxiliary basis functions on task:     17   240
  | 2D aux task distribution:      3 X      6
  | 2D block size (nb_aux_2d):     64
 
  Basis pair condensation :    295296  -->     221392
dP_dE (Bohr^3) at every cycle:--->
 (355.015196313553,0.000000000000000E+000) (-7.67836088322484,0.000000000000000E+000) (7.72836702866984,0.000000000000000E+000)
 (-7.67585001206628,0.000000000000000E+000) (340.854838763330,0.000000000000000E+000) (-6.56457231775199,0.000000000000000E+000)
 (7.72870036512026,0.000000000000000E+000) (-6.57856861934582,0.000000000000000E+000) (367.442226660455,0.000000000000000E+000)
DFPT polarizability (Bohr^3)        xx        yy        zz        xy        xz        yz
  | Polarizability:--->                       355.015196314                  340.854838763                  367.442226660                   -7.678360883                    7.728367029                   -6.564572318

DFPT for dielectric_constant:--->  # PARSE DFPT_dielectric_tensor
               1.681211921624093            -0.014733428389823             0.014829381416019
              -0.014728610468268             1.654040678032729            -0.012596263398445
               0.014830021030228            -0.012623119847418             1.705057214193534

                                               :  max(cpu_time)    wall_clock(cpu1)
  | Time for  dielectric calculation            :        0.000 s           0.000 s
===========================================================================

------------------------------------------------------------------------------
  Final output of selected total energy values:

  The following output summarizes some interesting total energy values
  at the end of a run (AFTER all relaxation, molecular dynamics, etc.).

  | Total energy of the DFT / Hartree-Fock s.c.f. calculation      :         -66112.566501752 eV
  | Final zero-broadening corrected energy (caution - metals only) :         -66112.566501752 eV
  | For reference only, the value of 1 Hartree used in FHI-aims is :             27.211384500 eV
  | For reference only, the overall average (free atom contribution
  | + realspace contribution) of the electrostatic potential after
  | s.c.f. convergence is                                          :             -4.958490407 eV

  Before relying on these values, please be sure to understand exactly which
  total energy value is referred to by a given number. Different objects may
  all carry the same name 'total energy'. Definitions:

  Total energy of the DFT / Hartree-Fock s.c.f. calculation:
  | Note that this energy does not include ANY quantities calculated after the
  | s.c.f. cycle, in particular not ANY RPA, MP2, etc. many-body perturbation terms.

  Final zero-broadening corrected energy:
  | For metallic systems only, a broadening of the occupation numbers at the Fermi
  | level can be extrapolated back to zero broadening by an electron-gas inspired
  | formula. For all systems that are not real metals, this value can be
  | meaningless and should be avoided.

------------------------------------------------------------------------------
  Methods described in the following list of references were used in this FHI-aims run.
  If you publish the results, please make sure to cite these reference if they apply.
  FHI-aims is an academic code, and for our developers (often, Ph.D. students
  and postdocs), scientific credit in the community is essential.
  Thank you for helping us!

  For any use of FHI-aims, please cite:

    Volker Blum, Ralf Gehrke, Felix Hanke, Paula Havu, Ville Havu,
    Xinguo Ren, Karsten Reuter, and Matthias Scheffler
    'Ab initio molecular simulations with numeric atom-centered orbitals'
    Computer Physics Communications 180, 2175-2196 (2009)
    http://doi.org/10.1016/j.cpc.2009.06.022


  For Hartree-Fock, hybrid functionals, or many-body perturbation theory used in your run, please cite:

    Xinguo Ren, Patrick Rinke, Volker Blum, Juergen Wieferink, Alex Tkatchenko,
    Andrea Sanfilippo, Karsten Reuter, and Matthias Scheffler,
    'Resolution-of-identity approach to Hartree-Fock, hybrid density functionals,
    RPA, MP2, and GW with numeric atom-centered orbital basis functions'
    New Journal of Physics 14, 053020 (2012).
    http://doi.org/10.1088/1367-2630/14/5/053020


  The provided symmetry information was generated with SPGlib:

    Atsushi Togo, Yusuke Seto, Dimitar Pashov
    SPGlib 1.7.3 obtained from http://spglib.sourceforge.net
    Copyright (C) 2008 Atsushi Togo


  The DFPT (perturbation by an electric field) part of the code was used.
  Here is the corresponding reference:

    Honghui Shang, Nathaniel Raimbault, Mariana Rossi,
    Christian Carbogno, Patrick Rinke and Matthias Scheffler,
    'All-Electron, Real-Space Perturbation Theory for Homogeneous
    Electric Fields: Theory, Implementation, and Application within dft'
    New Journal of Physics, 20(7):073040, 2018


  The ELSI infrastructure was used in your run to solve the Kohn-Sham electronic structure.
  Please check out http://elsi-interchange.org to learn more.
  If scalability is important for your project, please acknowledge ELSI by citing:

    V. W-z. Yu, F. Corsetti, A. Garcia, W. P. Huhn, M. Jacquelin, W. Jia,
    B. Lange, L. Lin, J. Lu, W. Mi, A. Seifitokaldani, A. Vazquez-Mayagoitia,
    C. Yang, H. Yang, and V. Blum
    'ELSI: A unified software interface for Kohn-Sham electronic structure solvers'
    Computer Physics Communications 222, 267-285 (2018).
    http://doi.org/10.1016/j.cpc.2017.09.007


  For the real-space grid partitioning and parallelization used in this calculation, please cite:

    Ville Havu, Volker Blum, Paula Havu, and Matthias Scheffler,
    'Efficient O(N) integration for all-electron electronic structure calculation'
    'using numerically tabulated basis functions'
    Journal of Computational Physics 228, 8367-8379 (2009).
    http://doi.org/10.1016/j.jcp.2009.08.008


  The high-level electronic structure method used in your calculation
  employed our efficient localized resolution of identity for the Coulomb operator.
  Some calculations, especially large-scale hybrid density functional theory,
  are only possible thanks to this development. For this feature, please cite:

    Arvid Ihrig, Juergen Wieferink, Igor Ying Zhang, Matti Ropo, Xinguo Ren,
    Patrick Rinke, Matthias Scheffler, and Volker Blum,
    'Accurate localized resolution of identity approach for linear-scaling
    hybrid density functionals and for many-body perturbation theory'
    New Journal of Physics 117, 093020 (2015).
    http://doi.org/10.1088/1367-2630/17/9/093020

  Of course, there are many other important community references, e.g., those cited in the
  above references. Our list is limited to references that describe implementations in the
  FHI-aims code. The reason is purely practical (length of this list) - please credit others as well.

------------------------------------------------------------
          Leaving FHI-aims.
          Date     :  20230221, Time     :  142508.719

          Computational steps:
          | Number of self-consistency cycles          :           45
          | Number of SCF (re)initializations          :            1
          | Number of coupled perturbed self-consistency cycles          :            0
          | Number of CPSCF (re)initializations          :            0

          Detailed time accounting                     :  max(cpu_time)    wall_clock(cpu1)
          | Total time                                  :      491.124 s         507.439 s
          | GPU initialization                          :        2.502 s          15.200 s
          | Preparation time                            :        0.070 s           0.068 s
          | Boundary condition initalization            :        1.282 s           1.283 s
          | Grid partitioning                           :        0.437 s           0.438 s
          | Preloading free-atom quantities on grid     :        2.316 s           2.316 s
          | Free-atom superposition energy              :        0.241 s           0.241 s
          | Total time for integrations                 :       12.401 s          12.584 s
          | Product basis setup: Total time             :        0.000 s           0.000 s
          | Product basis: | 2-center integrations     :(       0.000 s)  (       0.000 s)
          | Product basis: | LVL 3-center & coefficient:(       0.000 s)  (       0.000 s)
          | Total time for solution of K.-S. equations  :        2.490 s           4.998 s
          | Total time for density update               :        9.587 s           9.918 s
          | Total time for mixing & preconditioning     :        8.429 s           8.433 s
          | Total time for Hartree multipole update     :        0.098 s           0.100 s
          | Total time for Hartree multipole sum        :       36.855 s          36.868 s
          | Total time for total energy evaluation      :        0.004 s           0.007 s
          | Total time for DFPT                         :      413.714 s         413.865 s
          | Total time first_order_DM                   :        0.301 s           0.301 s
          | Total time first_order_density              :       84.094 s          84.111 s
          | Total time first_order_potential            :       54.095 s          54.112 s
          | Total time first_order_H                    :      167.779 s         167.833 s
          | Total time solving of Sternheimer equations :        0.178 s           0.181 s
          | Total time for dielectric constant          :        0.000 s           0.000 s
          | Total time momentum matrix                  :        0.000 s           0.000 s

          GPU acceleration has been used for charge density update.
          GPU acceleration has been used for real-space Hamiltonian integration.
          Due to GPU usage, wall_clock(cpu1) will give a more reliable estimate for timings.

          Partial memory accounting:
          | Residual value for overall tracked memory usage across tasks:     0.000000 MB (should be 0.000000 MB)
          | Peak values for overall tracked memory usage:
          |   Minimum:      117.162 MB (on task  0 after allocating DFPT_pulay_mixing::pulay_mix::alphas)
          |   Maximum:      117.162 MB (on task  0 after allocating DFPT_pulay_mixing::pulay_mix::alphas)
          |   Average:      117.162 MB
          | Largest tracked array allocation:
          |   Minimum:       41.788 MB (DFPT_pulay_mixing::initialize_pulay_mixing::X_in_diffs on task  0)
          |   Maximum:       41.788 MB (DFPT_pulay_mixing::initialize_pulay_mixing::X_in_diffs on task  0)
          |   Average:       41.788 MB
          Note:  These values currently only include a subset of arrays which are explicitly tracked.
          The "true" memory usage will be greater.

          Have a nice day.
------------------------------------------------------------
