------------------------------------------------------------
          Invoking FHI-aims ...

          When using FHI-aims, please cite the following reference:

            Volker Blum, Ralf Gehrke, Felix Hanke, Paula Havu,
            Ville Havu, Xinguo Ren, Karsten Reuter, and Matthias Scheffler,
            'Ab Initio Molecular Simulations with Numeric Atom-Centered Orbitals',
            Computer Physics Communications 180, 2175-2196 (2009)

          In addition, many other developments in FHI-aims are likely important for
          your particular application. A partial list of references is given at the end of
          this file. Thank you for giving credit to the authors of these developments.

          For any questions about FHI-aims, please visit our slack channel at

            https://fhi-aims.slack.com

          and our main development and support site at

            https://aims-git.rz-berlin.mpg.de .

          The latter site, in particular, has a wiki to collect information, as well
          as an issue tracker to log discussions, suggest improvements, and report issues
          or bugs. https://aims-git.rz-berlin.mpg.de is also the main development site
          of the project and all new and updated code versions can be obtained there.
          Please send an email to aims-coordinators@fhi-berlin.mpg.de and we will add
          you to these sites. They are for you and everyone is welcome there.

------------------------------------------------------------



  Date     :  20230221, Time     :  130859.349
  Time zero on CPU 1             :   0.393943000000000E+00  s.
  Internal wall clock time zero  :           446216939.349  s.

  FHI-aims created a unique identifier for this run for later identification
  aims_uuid : C87F1FCE-206A-4305-AF2C-8B3A3B0EC149

  Build configuration of the current instance of FHI-aims
  -------------------------------------------------------
  FHI-aims version      : 221103
  Commit number         : 42523251a
  CMake host system     : Linux-5.3.18-150300.59.68-default
  CMake version         : 3.17.0
  Fortran compiler      : /mpcdf/soft/SLE_15/packages/x86_64/intel_oneapi/2021.3/mpi/2021.3.0/bin/mpiifort (Intel) version 20.2.3.20210609
  Fortran compiler flags: -O3 -ip -fp-model precise
  C compiler            : /mpcdf/soft/SLE_15/packages/x86_64/intel/2021.3.0/bin/icc (Intel) version 20.2.3.20210609
  C compiler flags      : -O3 -ip -fp-model precise -std=gnu99
  CUDA compiler         : /mpcdf/soft/SLE_15/packages/x86_64/cuda/11.6.2/bin/nvcc
  CUDA compiler flags   : -O3 -DAdd_ -lcublas
  HIP compiler          :
  HIP compiler flags    :
  HIP GPU arch          :
  ELPA2 kernel          : AVX512
  Using MPI
  Using ScaLAPACK
  Using LibXC
  Using CUDA
  Using i-PI
  Using RLSY
  Linking against: /mpcdf/soft/SLE_15/packages/x86_64/cuda/11.6.2/lib64/libcublas.so
                   /mpcdf/soft/SLE_15/packages/x86_64/cuda/11.6.2/lib64/libcudart.so
                   /mpcdf/soft/SLE_15/packages/x86_64/intel_oneapi/2021.3/mkl/latest/lib/intel64/libmkl_intel_lp64.so
                   /mpcdf/soft/SLE_15/packages/x86_64/intel_oneapi/2021.3/mkl/latest/lib/intel64/libmkl_sequential.so
                   /mpcdf/soft/SLE_15/packages/x86_64/intel_oneapi/2021.3/mkl/latest/lib/intel64/libmkl_core.so
                   /mpcdf/soft/SLE_15/packages/x86_64/intel_oneapi/2021.3/mkl/latest/lib/intel64/libmkl_blacs_intelmpi_lp64.so
                   /mpcdf/soft/SLE_15/packages/x86_64/intel_oneapi/2021.3/mkl/latest/lib/intel64/libmkl_scalapack_lp64.so

  Using       18 parallel tasks.
  Task        0 on host adag039 reporting.
  Task        1 on host adag039 reporting.
  Task        2 on host adag039 reporting.
  Task        3 on host adag039 reporting.
  Task        4 on host adag039 reporting.
  Task        5 on host adag039 reporting.
  Task        6 on host adag039 reporting.
  Task        7 on host adag039 reporting.
  Task        8 on host adag039 reporting.
  Task        9 on host adag039 reporting.
  Task       10 on host adag039 reporting.
  Task       11 on host adag039 reporting.
  Task       12 on host adag039 reporting.
  Task       13 on host adag039 reporting.
  Task       14 on host adag039 reporting.
  Task       15 on host adag039 reporting.
  Task       16 on host adag039 reporting.
  Task       17 on host adag039 reporting.

  Obtaining array dimensions for all initial allocations:
  
  -----------------------------------------------------------------------
  Parsing control.in (first pass over file, find array dimensions only).
  The contents of control.in will be repeated verbatim below
  unless switched off by setting 'verbatim_writeout .false.' .
  in the first line of control.in .
  -----------------------------------------------------------------------
  
  #########################################################################################
  #
  #  Volker Blum, 2017 : Test run input file control.in for simple H2O
  #
  #########################################################################################
  #
  #  Physical model
  #
    xc                 pw-lda
    spin               none
    relativistic       none
    charge             0.
  
    use_gpu
  
    DFPT dielectric
    ri_density_restart write
    ri_rho1 write
  #  ri_density_restart read 0
  #  ri_rho1 read
    ri_full_output .true.
    sc_accuracy_rho    1d-6
  #  use_calculate_fock_matrix_old .false.
  #  wave_threshold 1e-8
    k_grid 1 1 1
  #  output cube eigenstate 160
  #  output cube eigenstate 161
    wave_threshold 1e-8
    default_prodbas_acc 1e-6
    default_max_l_prodbas 6
  #
  #  Relaxation
  #
  #  relax_geometry   bfgs 1.e-2
  #
  
  ################################################################################
  
  
  ################################################################################
  #
  #  FHI-aims code project
  #  VB, Fritz-Haber Institut, 2009
  #
  #  Suggested "light" defaults for H atom (to be pasted into control.in file)
  #  Be sure to double-check any results obtained with these settings for post-processing,
  #  e.g., with the "tight" defaults and larger basis sets.
  #
  ################################################################################
    species        H
  #     global species definitions
      nucleus             1
      mass                1.00794
  #
      l_hartree           4
  #
      cut_pot             3.5  1.5  1.0
      basis_dep_cutoff    1e-4
  #
      radial_base         24 5.0
      radial_multiplier   1
      angular_grids       specified
        division   0.2421   50
        division   0.3822  110
        division   0.4799  194
        division   0.5341  302
  #      division   0.5626  434
  #      division   0.5922  590
  #      division   0.6542  770
  #      division   0.6868 1202
  #      outer_grid  770
        outer_grid  302
  ################################################################################
  #
  #  Definition of "minimal" basis
  #
  ################################################################################
  #     valence basis states
      valence      1  s   1.
  #     ion occupancy
      ion_occ      1  s   0.5
  ################################################################################
  #
  #  Suggested additional basis functions. For production calculations,
  #  uncomment them one after another (the most important basis functions are
  #  listed first).
  #
  #  Basis constructed for dimers: 0.5 A, 0.7 A, 1.0 A, 1.5 A, 2.5 A
  #
  ################################################################################
  #  "First tier" - improvements: -1014.90 meV to -62.69 meV
       hydro 2 s 2.1
       hydro 2 p 3.5
  #  "Second tier" - improvements: -12.89 meV to -1.83 meV
  #     hydro 1 s 0.85
  #     hydro 2 p 3.7
  #     hydro 2 s 1.2
  #     hydro 3 d 7
  #  "Third tier" - improvements: -0.25 meV to -0.12 meV
  #     hydro 4 f 11.2
  #     hydro 3 p 4.8
  #     hydro 4 d 9
  #     hydro 3 s 3.2
  ################################################################################
  #
  #  FHI-aims code project
  #  VB, Fritz-Haber Institut, 2009
  #
  #  Suggested "light" defaults for O atom (to be pasted into control.in file)
  #  Be sure to double-check any results obtained with these settings for post-processing,
  #  e.g., with the "tight" defaults and larger basis sets.
  #
  ################################################################################
    species        O
  #     global species definitions
      nucleus             8
      mass                15.9994
  #
      l_hartree           4
  #
      cut_pot             3.5  1.5  1.0
      basis_dep_cutoff    1e-4
  #
      radial_base         36 5.0
      radial_multiplier   1
       angular_grids specified
        division   0.2659   50
        division   0.4451  110
        division   0.6052  194
        division   0.7543  302
  #      division   0.8014  434
  #      division   0.8507  590
  #      division   0.8762  770
  #      division   0.9023  974
  #      division   1.2339 1202
  #      outer_grid 974
        outer_grid 302
  ################################################################################
  #
  #  Definition of "minimal" basis
  #
  ################################################################################
  #     valence basis states
      valence      2  s   2.
      valence      2  p   4.
  #     ion occupancy
      ion_occ      2  s   1.
      ion_occ      2  p   3.
  ################################################################################
  #
  #  Suggested additional basis functions. For production calculations,
  #  uncomment them one after another (the most important basis functions are
  #  listed first).
  #
  #  Constructed for dimers: 1.0 A, 1.208 A, 1.5 A, 2.0 A, 3.0 A
  #
  ################################################################################
  #  "First tier" - improvements: -699.05 meV to -159.38 meV
       hydro 2 p 1.8
       hydro 3 d 7.6
       hydro 3 s 6.4
  #  "Second tier" - improvements: -49.91 meV to -5.39 meV
  #     hydro 4 f 11.6
  #     hydro 3 p 6.2
  #     hydro 3 d 5.6
  #     hydro 5 g 17.6
  #     hydro 1 s 0.75
  #  "Third tier" - improvements: -2.83 meV to -0.50 meV
  #     ionic 2 p auto
  #     hydro 4 f 10.8
  #     hydro 4 d 4.7
  #     hydro 2 s 6.8
  #  "Fourth tier" - improvements: -0.40 meV to -0.12 meV
  #     hydro 3 p 5
  #     hydro 3 s 3.3
  #     hydro 5 g 15.6
  #     hydro 4 f 17.6
  #     hydro 4 d 14
  # Further basis functions - -0.08 meV and below
  #     hydro 3 s 2.1
  #     hydro 4 d 11.6
  #     hydro 3 p 16
  #     hydro 2 s 17.2
  
  -----------------------------------------------------------------------
  Completed first pass over input file control.in .
  -----------------------------------------------------------------------
  
  
  -----------------------------------------------------------------------
  Parsing geometry.in (first pass over file, find array dimensions only).
  The contents of geometry.in will be repeated verbatim below
  unless switched off by setting 'verbatim_writeout .false.' .
  in the first line of geometry.in .
  -----------------------------------------------------------------------
  
  #=======================================================
  # FHI-aims file: /ada/ptmp/mpsd/alewis/bulk_water/qmdata/data/geoms/155.in
  # Created using the Atomic Simulation Environment (ASE)
  # Tue Feb 21 11:23:37 2023
  #=======================================================
  lattice_vector 9.7949500000000000 0.0000000000000000 0.0000000000000000
  lattice_vector 0.0000000000000000 9.7949500000000000 0.0000000000000000
  lattice_vector 0.0000000000000000 0.0000000000000000 9.7949500000000000
  atom 10.3735999999999997 2.6498800000000000 -6.4087300000000003 O
  atom 11.0761000000000003 3.1631999999999998 -6.7018199999999997 H
  atom 9.6466300000000000 3.2546599999999999 -6.3566200000000004 H
  atom 26.2967000000000013 18.2516999999999996 5.0986099999999999 O
  atom 26.8380000000000010 18.9251000000000005 5.1861600000000001 H
  atom 26.0237000000000016 18.5262999999999991 4.2795300000000003 H
  atom 4.0255000000000001 -7.8215399999999997 3.7399900000000001 O
  atom 3.3443100000000001 -8.2832399999999993 4.0928800000000001 H
  atom 3.7286299999999999 -6.9439900000000003 3.5021300000000002 H
  atom 1.8678600000000001 -4.5807599999999997 6.9213300000000002 O
  atom 1.6521399999999999 -5.2283700000000000 6.2054499999999999 H
  atom 2.5858500000000002 -4.0484400000000003 6.4614599999999998 H
  atom -10.8823000000000008 6.3509500000000001 7.0250199999999996 O
  atom -11.5792999999999999 6.0141799999999996 6.3841799999999997 H
  atom -10.6425999999999998 5.8319799999999997 7.6571400000000001 H
  atom -2.5861900000000002 -0.4669520000000000 11.8935999999999993 O
  atom -2.2939099999999999 -1.3642000000000001 11.6434999999999995 H
  atom -1.7537499999999999 -0.0435990000000000 11.9329000000000001 H
  atom 1.5590800000000000 6.6449199999999999 3.1945100000000002 O
  atom 2.3123300000000002 7.1021700000000001 2.7259500000000001 H
  atom 1.7257100000000001 7.1286300000000002 3.9657300000000002 H
  atom 7.2474200000000000 2.8908299999999998 10.0044000000000004 O
  atom 6.4739599999999999 3.3623500000000002 10.3293999999999997 H
  atom 7.4729999999999999 2.1212300000000002 10.4368999999999996 H
  atom 3.2344700000000000 -10.0009999999999994 -13.4618000000000002 O
  atom 2.3526799999999999 -10.4377999999999993 -13.7797000000000001 H
  atom 3.2914300000000001 -10.0269999999999992 -12.4852000000000007 H
  atom 8.9361200000000007 -2.7446700000000002 1.3894500000000001 O
  atom 9.0070200000000007 -3.5571999999999999 0.8335890000000000 H
  atom 9.6667199999999998 -2.9319000000000002 1.9504699999999999 H
  atom 3.9124800000000000 16.5657999999999994 -13.8534000000000006 O
  atom 4.0750500000000001 17.5200999999999993 -13.7814999999999994 H
  atom 4.7176700000000000 16.1309000000000005 -14.2696000000000005 H
  atom -18.6786999999999992 -1.3566300000000000 9.7749900000000007 O
  atom -17.8109999999999999 -1.6911900000000000 10.0315999999999992 H
  atom -19.1740999999999993 -2.0306899999999999 10.1265000000000001 H
  atom -0.5258270000000000 4.8320900000000000 9.5952599999999997 O
  atom 0.2174730000000000 4.1448200000000002 9.8077799999999993 H
  atom -1.2197199999999999 4.0996800000000002 9.8807399999999994 H
  atom -0.4480610000000000 0.1214200000000000 -1.9353400000000001 O
  atom 0.2577880000000000 -0.1895800000000000 -1.4137900000000001 H
  atom -1.3240600000000000 -0.3012980000000000 -1.6973900000000000 H
  atom -13.1501999999999999 2.0016500000000002 -14.4297000000000004 O
  atom -13.3538999999999994 1.9062300000000001 -13.5559999999999992 H
  atom -13.9572000000000003 1.8431200000000001 -15.0306999999999995 H
  atom 0.9032790000000001 18.0808999999999997 -4.4305800000000000 O
  atom 0.4481440000000000 17.3881000000000014 -3.8604799999999999 H
  atom 0.2738730000000000 18.7374000000000009 -4.7872399999999997 H
  atom -7.0048700000000004 14.0708000000000002 2.5154999999999998 O
  atom -7.1196400000000004 14.4532000000000007 1.6872000000000000 H
  atom -7.2777599999999998 14.9501000000000008 3.0257200000000002 H
  atom -2.7610299999999999 8.3253199999999996 8.0227100000000000 O
  atom -3.3531000000000000 8.3087900000000001 7.1492599999999999 H
  atom -2.0657399999999999 7.7200100000000003 7.5782100000000003 H
  atom 21.0447999999999986 2.0418599999999998 15.9562000000000008 O
  atom 20.4856000000000016 1.8586499999999999 15.2456999999999994 H
  atom 21.5977999999999994 1.1915899999999999 15.9496000000000002 H
  atom -24.2173000000000016 6.7953799999999998 9.6719500000000007 O
  atom -24.6910999999999987 6.0123100000000003 9.3124400000000005 H
  atom -23.5214999999999996 7.3687699999999996 9.1365400000000001 H
  atom -8.7576099999999997 2.2942900000000002 18.7637999999999998 O
  atom -9.4134799999999998 1.6666000000000001 18.6388999999999996 H
  atom -8.8105300000000000 2.9056700000000002 17.9292000000000016 H
  atom -1.9326800000000000 23.5621000000000009 3.4777499999999999 O
  atom -2.2899099999999999 23.4161000000000001 2.6038700000000001 H
  atom -2.3380100000000001 22.9242999999999988 4.1172599999999999 H
  atom 3.4252400000000001 8.0655500000000000 1.3751199999999999 O
  atom 3.9723099999999998 7.4411199999999997 0.9175440000000000 H
  atom 4.1469600000000000 8.8031000000000006 1.4271300000000000 H
  atom 4.7943300000000004 0.7480620000000000 11.1295000000000002 O
  atom 5.5700599999999998 0.6209730000000000 11.4140999999999995 H
  atom 4.4174400000000000 1.1700600000000001 11.7426999999999992 H
  atom -3.4315600000000002 -4.0590500000000000 5.4029999999999996 O
  atom -3.1122999999999998 -4.5034799999999997 4.4825400000000002 H
  atom -3.2354400000000001 -3.1839900000000001 5.3176100000000002 H
  atom 18.6434999999999995 -9.0907699999999991 5.0220700000000003 O
  atom 17.8338999999999999 -8.5853599999999997 5.0029000000000003 H
  atom 18.7883999999999993 -8.9686400000000006 6.0027999999999997 H
  atom 22.1381000000000014 15.3033999999999999 19.4978000000000016 O
  atom 21.5458999999999996 15.6151000000000000 18.8150000000000013 H
  atom 22.6238999999999990 14.5740999999999996 18.8577000000000012 H
  atom 24.1500999999999983 4.2949200000000003 17.7680000000000007 O
  atom 24.5350000000000001 3.5436299999999998 17.5309999999999988 H
  atom 23.4398000000000017 4.4060199999999998 17.2205000000000013 H
  atom 3.5674899999999998 0.8557399999999999 -0.9165900000000000 O
  atom 2.8991699999999998 1.5034500000000000 -0.9339380000000000 H
  atom 3.9302500000000000 0.6662900000000000 0.0133820000000000 H
  atom -4.2351299999999998 4.5073800000000004 1.7074700000000000 O
  atom -5.2637799999999997 4.3873600000000001 1.6517100000000000 H
  atom -4.0776000000000003 5.3811499999999999 1.1792000000000000 H
  atom 9.1683699999999995 1.2703899999999999 1.3619200000000000 O
  atom 9.7549499999999991 1.7947700000000000 2.1956600000000002 H
  atom 9.9325299999999999 0.8906420000000000 0.8581090000000000 H
  atom 15.6194000000000006 11.7247000000000003 7.8736899999999999 O
  atom 16.3267999999999986 12.1936000000000000 8.5868099999999998 H
  atom 15.1077999999999992 11.1597000000000008 8.3241999999999994 H
  
  -----------------------------------------------------------------------
  Completed first pass over input file geometry.in .
  -----------------------------------------------------------------------
  

  Basic array size parameters:
  | Number of species                 :        2
  | Number of atoms                   :       96
  | Number of lattice vectors         :        3
  | Max. basis fn. angular momentum   :        2
  | Max. atomic/ionic basis occupied n:        2
  | Max. number of basis fn. types    :        2
  | Max. radial fns per species/type  :        3
  | Max. logarithmic grid size        :     1301
  | Max. radial integration grid size :       36
  | Max. angular integration grid size:      302
  | Max. angular grid division number :        8
  | Radial grid for Hartree potential :     1301
  | Number of spin channels           :        1

------------------------------------------------------------
          Reading file control.in.
------------------------------------------------------------
  XC: Using Perdew-Wang parametrisation of Ceperley-Alder LDA.
  Spin treatment: No spin polarisation.
  Non-relativistic treatment of kinetic energy.
  Charge =   0.000000E+00: Neutral system requested explicitly.
  DFPT calculation will begin after the DFT/HF calculation.
  Convergence accuracy of self-consistent charge density:  0.1000E-05
  Found k-point grid:         1         1         1
  Threshold value for wave function integration:  0.1000E-07
 
  Reading configuration options for species H                   .
  | Found nuclear charge :   1.0000
  | Found atomic mass :    1.00794000000000      amu
  | Found l_max for Hartree potential  :   4
  | Found cutoff potl. onset [A], width [A], scale factor :    3.50000    1.50000    1.00000
  | Threshold for basis-dependent cutoff potential is   0.100000E-03
  | Found data for basic radial integration grid :    24 points, outermost radius =    5.000 A
  | Found multiplier for basic radial grid :   1
  | Found angular grid specification: user-specified.
  | Specified grid contains     5 separate shells.
  | Check grid settings after all constraints further below.
  | Found free-atom valence shell :  1 s   1.000
  | No ionic wave fns used. Skipping ion_occ.
  | Found hydrogenic basis function :  2 s   2.100
  | Found hydrogenic basis function :  2 p   3.500
  Species H                   : Missing cutoff potential type.
  Defaulting to exp(1/x)/(1-x)^2 type cutoff potential.
  Species H : No 'logarithmic' tag. Using default grid for free atom:
  | Default logarithmic grid data [bohr] : 0.1000E-03 0.1000E+03 0.1012E+01
  Species H : On-site basis accuracy parameter (for Gram-Schmidt orthonormalisation) not specified.
  Using default value basis_acc =  0.1000000E-03.
  Species H                   : Using default innermost maximum threshold i_radial=  2 for radial functions.
  Species H                   : Default cutoff onset for free atom density etc. : 0.35000000E+01 AA.
  Species H                   : Basic radial grid will be enhanced according to radial_multiplier =   1, to contain    24 grid points.
 
  Reading configuration options for species O                   .
  | Found nuclear charge :   8.0000
  | Found atomic mass :    15.9994000000000      amu
  | Found l_max for Hartree potential  :   4
  | Found cutoff potl. onset [A], width [A], scale factor :    3.50000    1.50000    1.00000
  | Threshold for basis-dependent cutoff potential is   0.100000E-03
  | Found data for basic radial integration grid :    36 points, outermost radius =    5.000 A
  | Found multiplier for basic radial grid :   1
  | Found angular grid specification: user-specified.
  | Specified grid contains     5 separate shells.
  | Check grid settings after all constraints further below.
  | Found free-atom valence shell :  2 s   2.000
  | Found free-atom valence shell :  2 p   4.000
  | No ionic wave fns used. Skipping ion_occ.
  | No ionic wave fns used. Skipping ion_occ.
  | Found hydrogenic basis function :  2 p   1.800
  | Found hydrogenic basis function :  3 d   7.600
  | Found hydrogenic basis function :  3 s   6.400
  Species O                   : Missing cutoff potential type.
  Defaulting to exp(1/x)/(1-x)^2 type cutoff potential.
  Species O : No 'logarithmic' tag. Using default grid for free atom:
  | Default logarithmic grid data [bohr] : 0.1000E-03 0.1000E+03 0.1012E+01
  Species O : On-site basis accuracy parameter (for Gram-Schmidt orthonormalisation) not specified.
  Using default value basis_acc =  0.1000000E-03.
  Species O                   : Using default innermost maximum threshold i_radial=  2 for radial functions.
  Species O                   : Default cutoff onset for free atom density etc. : 0.35000000E+01 AA.
  Species O                   : Basic radial grid will be enhanced according to radial_multiplier =   1, to contain    36 grid points.
 
  Finished reading input file 'control.in'.
 
------------------------------------------------------------


------------------------------------------------------------
          Reading geometry description geometry.in.
------------------------------------------------------------
  | The smallest distance between any two atoms is         0.83435162 AA.
  | The first atom of this pair is atom number                     70 .
  | The second atom of this pair is atom number                    72 .
  | Wigner-Seitz cell of the first atom image           0     0     0 .
  | (The Wigner-Seitz cell of the second atom is 0 0 0  by definition.)

  Symmetry information by spglib:
  | Precision set to  0.1E-04
  | Number of Operations  : 1
  | Space group           : 1
  | International         : P1
  | Schoenflies           : C1^1
  Input structure read successfully.
  The structure contains       96 atoms,  and a total of        320.000 electrons.

  Input geometry:
  | Unit cell:
  |        9.79495000        0.00000000        0.00000000
  |        0.00000000        9.79495000        0.00000000
  |        0.00000000        0.00000000        9.79495000
  | Atomic structure:
  |       Atom                x [A]            y [A]            z [A]
  |    1: Species O            10.37360000        2.64988000       -6.40873000
  |    2: Species H            11.07610000        3.16320000       -6.70182000
  |    3: Species H             9.64663000        3.25466000       -6.35662000
  |    4: Species O            26.29670000       18.25170000        5.09861000
  |    5: Species H            26.83800000       18.92510000        5.18616000
  |    6: Species H            26.02370000       18.52630000        4.27953000
  |    7: Species O             4.02550000       -7.82154000        3.73999000
  |    8: Species H             3.34431000       -8.28324000        4.09288000
  |    9: Species H             3.72863000       -6.94399000        3.50213000
  |   10: Species O             1.86786000       -4.58076000        6.92133000
  |   11: Species H             1.65214000       -5.22837000        6.20545000
  |   12: Species H             2.58585000       -4.04844000        6.46146000
  |   13: Species O           -10.88230000        6.35095000        7.02502000
  |   14: Species H           -11.57930000        6.01418000        6.38418000
  |   15: Species H           -10.64260000        5.83198000        7.65714000
  |   16: Species O            -2.58619000       -0.46695200       11.89360000
  |   17: Species H            -2.29391000       -1.36420000       11.64350000
  |   18: Species H            -1.75375000       -0.04359900       11.93290000
  |   19: Species O             1.55908000        6.64492000        3.19451000
  |   20: Species H             2.31233000        7.10217000        2.72595000
  |   21: Species H             1.72571000        7.12863000        3.96573000
  |   22: Species O             7.24742000        2.89083000       10.00440000
  |   23: Species H             6.47396000        3.36235000       10.32940000
  |   24: Species H             7.47300000        2.12123000       10.43690000
  |   25: Species O             3.23447000      -10.00100000      -13.46180000
  |   26: Species H             2.35268000      -10.43780000      -13.77970000
  |   27: Species H             3.29143000      -10.02700000      -12.48520000
  |   28: Species O             8.93612000       -2.74467000        1.38945000
  |   29: Species H             9.00702000       -3.55720000        0.83358900
  |   30: Species H             9.66672000       -2.93190000        1.95047000
  |   31: Species O             3.91248000       16.56580000      -13.85340000
  |   32: Species H             4.07505000       17.52010000      -13.78150000
  |   33: Species H             4.71767000       16.13090000      -14.26960000
  |   34: Species O           -18.67870000       -1.35663000        9.77499000
  |   35: Species H           -17.81100000       -1.69119000       10.03160000
  |   36: Species H           -19.17410000       -2.03069000       10.12650000
  |   37: Species O            -0.52582700        4.83209000        9.59526000
  |   38: Species H             0.21747300        4.14482000        9.80778000
  |   39: Species H            -1.21972000        4.09968000        9.88074000
  |   40: Species O            -0.44806100        0.12142000       -1.93534000
  |   41: Species H             0.25778800       -0.18958000       -1.41379000
  |   42: Species H            -1.32406000       -0.30129800       -1.69739000
  |   43: Species O           -13.15020000        2.00165000      -14.42970000
  |   44: Species H           -13.35390000        1.90623000      -13.55600000
  |   45: Species H           -13.95720000        1.84312000      -15.03070000
  |   46: Species O             0.90327900       18.08090000       -4.43058000
  |   47: Species H             0.44814400       17.38810000       -3.86048000
  |   48: Species H             0.27387300       18.73740000       -4.78724000
  |   49: Species O            -7.00487000       14.07080000        2.51550000
  |   50: Species H            -7.11964000       14.45320000        1.68720000
  |   51: Species H            -7.27776000       14.95010000        3.02572000
  |   52: Species O            -2.76103000        8.32532000        8.02271000
  |   53: Species H            -3.35310000        8.30879000        7.14926000
  |   54: Species H            -2.06574000        7.72001000        7.57821000
  |   55: Species O            21.04480000        2.04186000       15.95620000
  |   56: Species H            20.48560000        1.85865000       15.24570000
  |   57: Species H            21.59780000        1.19159000       15.94960000
  |   58: Species O           -24.21730000        6.79538000        9.67195000
  |   59: Species H           -24.69110000        6.01231000        9.31244000
  |   60: Species H           -23.52150000        7.36877000        9.13654000
  |   61: Species O            -8.75761000        2.29429000       18.76380000
  |   62: Species H            -9.41348000        1.66660000       18.63890000
  |   63: Species H            -8.81053000        2.90567000       17.92920000
  |   64: Species O            -1.93268000       23.56210000        3.47775000
  |   65: Species H            -2.28991000       23.41610000        2.60387000
  |   66: Species H            -2.33801000       22.92430000        4.11726000
  |   67: Species O             3.42524000        8.06555000        1.37512000
  |   68: Species H             3.97231000        7.44112000        0.91754400
  |   69: Species H             4.14696000        8.80310000        1.42713000
  |   70: Species O             4.79433000        0.74806200       11.12950000
  |   71: Species H             5.57006000        0.62097300       11.41410000
  |   72: Species H             4.41744000        1.17006000       11.74270000
  |   73: Species O            -3.43156000       -4.05905000        5.40300000
  |   74: Species H            -3.11230000       -4.50348000        4.48254000
  |   75: Species H            -3.23544000       -3.18399000        5.31761000
  |   76: Species O            18.64350000       -9.09077000        5.02207000
  |   77: Species H            17.83390000       -8.58536000        5.00290000
  |   78: Species H            18.78840000       -8.96864000        6.00280000
  |   79: Species O            22.13810000       15.30340000       19.49780000
  |   80: Species H            21.54590000       15.61510000       18.81500000
  |   81: Species H            22.62390000       14.57410000       18.85770000
  |   82: Species O            24.15010000        4.29492000       17.76800000
  |   83: Species H            24.53500000        3.54363000       17.53100000
  |   84: Species H            23.43980000        4.40602000       17.22050000
  |   85: Species O             3.56749000        0.85574000       -0.91659000
  |   86: Species H             2.89917000        1.50345000       -0.93393800
  |   87: Species H             3.93025000        0.66629000        0.01338200
  |   88: Species O            -4.23513000        4.50738000        1.70747000
  |   89: Species H            -5.26378000        4.38736000        1.65171000
  |   90: Species H            -4.07760000        5.38115000        1.17920000
  |   91: Species O             9.16837000        1.27039000        1.36192000
  |   92: Species H             9.75495000        1.79477000        2.19566000
  |   93: Species H             9.93253000        0.89064200        0.85810900
  |   94: Species O            15.61940000       11.72470000        7.87369000
  |   95: Species H            16.32680000       12.19360000        8.58681000
  |   96: Species H            15.10780000       11.15970000        8.32420000

  Lattice parameters for 3D lattice (in Angstroms) :     9.794950    9.794950    9.794950
  Angle(s) between unit vectors (in degrees)       :    90.000000   90.000000   90.000000


  Quantities derived from the lattice vectors (in Angstrom^-1):
  | Reciprocal lattice vector 1:  0.641472  0.000000  0.000000
  | Reciprocal lattice vector 2:  0.000000  0.641472  0.000000
  | Reciprocal lattice vector 3:  0.000000  0.000000  0.641472
  | Unit cell volume                               :   0.939738E+03  Angstrom^3

  Fractional coordinates:
                         L1                L2                L3
       atom_frac         1.05907636        0.27053533       -0.65428920  O
       atom_frac         1.13079699        0.32294192       -0.68421176  H
       atom_frac         0.98485750        0.33227939       -0.64896911  H
       atom_frac         2.68472019        1.86337858        0.52053456  O
       atom_frac         2.73998336        1.93212829        0.52947284  H
       atom_frac         2.65684868        1.89141343        0.43691188  H
       atom_frac         0.41097709       -0.79852781        0.38182839  O
       atom_frac         0.34143206       -0.84566435        0.41785614  H
       atom_frac         0.38066861       -0.70893573        0.35754445  H
       atom_frac         0.19069623       -0.46766548        0.70662229  O
       atom_frac         0.16867263       -0.53378220        0.63353565  H
       atom_frac         0.26399828       -0.41331911        0.65967259  H
       atom_frac        -1.11101129        0.64839024        0.71720836  O
       atom_frac        -1.18217040        0.61400824        0.65178281  H
       atom_frac        -1.08653949        0.59540682        0.78174365  H
       atom_frac        -0.26403300       -0.04767273        1.21425837  O
       atom_frac        -0.23419313       -0.13927585        1.18872480  H
       atom_frac        -0.17904635       -0.00445117        1.21827064  H
       atom_frac         0.15917182        0.67840265        0.32613847  O
       atom_frac         0.23607369        0.72508487        0.27830157  H
       atom_frac         0.17618365        0.72778626        0.40487496  H
       atom_frac         0.73991394        0.29513474        1.02138347  O
       atom_frac         0.66094875        0.34327383        1.05456383  H
       atom_frac         0.76294417        0.21656364        1.06553887  H
       atom_frac         0.33021812       -1.02103635       -1.37436128  O
       atom_frac         0.24019316       -1.06563076       -1.40681678  H
       atom_frac         0.33603336       -1.02369078       -1.27465684  H
       atom_frac         0.91231910       -0.28021276        0.14185371  O
       atom_frac         0.91955753       -0.36316673        0.08510396  H
       atom_frac         0.98690856       -0.29932771        0.19913016  H
       atom_frac         0.39943849        1.69125927       -1.41434106  O
       atom_frac         0.41603581        1.78868703       -1.40700055  H
       atom_frac         0.48164309        1.64685884       -1.45683235  H
       atom_frac        -1.90697247       -0.13850300        0.99796222  O
       atom_frac        -1.81838601       -0.17265938        1.02416041  H
       atom_frac        -1.95754955       -0.20732010        1.03384908  H
       atom_frac        -0.05368348        0.49332462        0.97961296  O
       atom_frac         0.02220256        0.42315887        1.00130986  H
       atom_frac        -0.12452539        0.41855038        1.00875859  H
       atom_frac        -0.04574408        0.01239618       -0.19758549  O
       atom_frac         0.02631846       -0.01935487       -0.14433866  H
       atom_frac        -0.13517782       -0.03076054       -0.17329236  H
       atom_frac        -1.34254897        0.20435531       -1.47317750  O
       atom_frac        -1.36334540        0.19461355       -1.38397848  H
       atom_frac        -1.42493836        0.18817043       -1.53453565  H
       atom_frac         0.09221885        1.84594102       -0.45233309  O
       atom_frac         0.04575256        1.77521070       -0.39412963  H
       atom_frac         0.02796063        1.91296535       -0.48874573  H
       atom_frac        -0.71515117        1.43653617        0.25681601  O
       atom_frac        -0.72686844        1.47557670        0.17225203  H
       atom_frac        -0.74301145        1.52630692        0.30890612  H
       atom_frac        -0.28188301        0.84996044        0.81906595  O
       atom_frac        -0.34232947        0.84827283        0.72989244  H
       atom_frac        -0.21089847        0.78816227        0.77368542  H
       atom_frac         2.14853573        0.20846048        1.62902312  O
       atom_frac         2.09144508        0.18975595        1.55648574  H
       atom_frac         2.20499339        0.12165351        1.62834930  H
       atom_frac        -2.47242712        0.69376362        0.98744251  O
       atom_frac        -2.52079898        0.61381732        0.95073890  H
       atom_frac        -2.40139051        0.75230297        0.93278067  H
       atom_frac        -0.89409441        0.23423193        1.91566062  O
       atom_frac        -0.96105442        0.17014890        1.90290915  H
       atom_frac        -0.89949719        0.29664980        1.83045345  H
       atom_frac        -0.19731392        2.40553551        0.35505541  O
       atom_frac        -0.23378476        2.39062987        0.26583801  H
       atom_frac        -0.23869545        2.34042032        0.42034518  H
       atom_frac         0.34969449        0.82343963        0.14039071  O
       atom_frac         0.40554674        0.75968943        0.09367521  H
       atom_frac         0.42337735        0.89873864        0.14570059  H
       atom_frac         0.48946957        0.07637221        1.13624878  O
       atom_frac         0.56866651        0.06339726        1.16530457  H
       atom_frac         0.45099158        0.11945543        1.19885247  H
       atom_frac        -0.35033972       -0.41440232        0.55161078  O
       atom_frac        -0.31774537       -0.45977570        0.45763786  H
       atom_frac        -0.33031715       -0.32506445        0.54289302  H
       atom_frac         1.90337878       -0.92810785        0.51272033  O
       atom_frac         1.82072394       -0.87650881        0.51076320  H
       atom_frac         1.91817212       -0.91563918        0.61284642  H
       atom_frac         2.26015447        1.56237653        1.99059720  O
       atom_frac         2.19969474        1.59419905        1.92088780  H
       atom_frac         2.30975145        1.48791980        1.92524719  H
       atom_frac         2.46556644        0.43848310        1.81399599  O
       atom_frac         2.50486220        0.36178133        1.78979985  H
       atom_frac         2.39304948        0.44982568        1.75809984  H
       atom_frac         0.36421728        0.08736543       -0.09357781  O
       atom_frac         0.29598620        0.15349236       -0.09534893  H
       atom_frac         0.40125269        0.06802383        0.00136621  H
       atom_frac        -0.43237893        0.46017387        0.17432146  O
       atom_frac        -0.53739733        0.44792061        0.16862873  H
       atom_frac        -0.41629615        0.54938004        0.12038857  H
       atom_frac         0.93603030        0.12969847        0.13904308  O
       atom_frac         0.99591626        0.18323422        0.22416245  H
       atom_frac         1.01404601        0.09092869        0.08760729  H
       atom_frac         1.59463805        1.19701479        0.80385198  O
       atom_frac         1.66685894        1.24488640        0.87665685  H
       atom_frac         1.54240706        1.13933200        0.84984609  H

 
  Finished reading input file 'geometry.in'.
 

 
  Consistency checks for stacksize environment parameter are next.
 
  | Maximum stacksize for task 0: unlimited
  | Maximum stacksize for task 1: unlimited
  | Maximum stacksize for task 2: unlimited
  | Maximum stacksize for task 3: unlimited
  | Maximum stacksize for task 4: unlimited
  | Maximum stacksize for task 5: unlimited
  | Maximum stacksize for task 6: unlimited
  | Maximum stacksize for task 7: unlimited
  | Maximum stacksize for task 8: unlimited
  | Maximum stacksize for task 9: unlimited
  | Maximum stacksize for task 10: unlimited
  | Maximum stacksize for task 11: unlimited
  | Maximum stacksize for task 12: unlimited
  | Maximum stacksize for task 13: unlimited
  | Maximum stacksize for task 14: unlimited
  | Maximum stacksize for task 15: unlimited
  | Maximum stacksize for task 16: unlimited
  | Maximum stacksize for task 17: unlimited
  | Current stacksize for task 0: unlimited
  | Current stacksize for task 1: unlimited
  | Current stacksize for task 2: unlimited
  | Current stacksize for task 3: unlimited
  | Current stacksize for task 4: unlimited
  | Current stacksize for task 5: unlimited
  | Current stacksize for task 6: unlimited
  | Current stacksize for task 7: unlimited
  | Current stacksize for task 8: unlimited
  | Current stacksize for task 9: unlimited
  | Current stacksize for task 10: unlimited
  | Current stacksize for task 11: unlimited
  | Current stacksize for task 12: unlimited
  | Current stacksize for task 13: unlimited
  | Current stacksize for task 14: unlimited
  | Current stacksize for task 15: unlimited
  | Current stacksize for task 16: unlimited
  | Current stacksize for task 17: unlimited
 
  Consistency checks for the contents of control.in are next.
 
  MPI_IN_PLACE appears to work with this MPI implementation.
  | Keeping use_mpi_in_place .true. (see manual).
  Explicit treatment of the Coulomb operator is needed, but the RI method is not specified.
  Coulomb operator: Defaulting to 'LVL fast' resolution of identity - RI_type = LVL_fast
  Species H: Using default value for prodbas_acc =   1.000000E-06.
  Species H: Using default value max_l_prodbas =     6.
  Species O: Using default value for prodbas_acc =   1.000000E-06.
  Species O: Using default value max_l_prodbas =     6.
  Target number of points in a grid batch is not set.  Since GPU acceleration is enabled, defaulting to  200
  Method for grid partitioning is not set. Defaulting to parallel hash+maxmin partitioning.
  Batch size limit is not set. Defaulting to    200
  By default, will store active basis functions for each batch.
  If in need of memory, prune_basis_once .false. can be used to disable this option.
  communication_type for Hartree potential was not specified.
  Defaulting to calc_hartree .
  Defaulting to Pulay charge density mixer.
  Pulay mixer: Number of relevant iterations not set.
  Defaulting to    8 iterations.
  Pulay mixer: Number of initial linear mixing iterations not set.
  Defaulting to    0 iterations.
  Work space size for distributed Hartree potential not set.
  Defaulting to   0.200000E+03 MB.
  Mixing parameter for charge density mixing has not been set.
  Using default: charge_mix_param =     0.0500.
  The mixing parameter will be adjusted in iteration number     2 of the first full s.c.f. cycle only.
  Algorithm-dependent basis array size parameters:
  | n_max_pulay                         :        8
  Maximum number of self-consistency iterations not provided.
  Presetting  1000 iterations.
  Presetting      1001 iterations before the initial mixing cycle
  is restarted anyway using the sc_init_iter criterion / keyword.
  Presetting a factor      1.000 between actual scf density residual
  and density convergence criterion sc_accuracy_rho below which sc_init_iter
  takes no effect.
  Calculation of forces was not defined in control.in. No forces will be calculated.
  Geometry relaxation not requested: no relaxation will be performed.
  No accuracy limit for integral partition fn. given. Defaulting to  0.1000E-14.
  No occupation type (smearing scheme) given. Defaulting to Gaussian broadening, width =  0.1000E-01 eV.
  The width will be adjusted in iteration number     2 of the first full s.c.f. cycle only.
  S.C.F. convergence parameters will be adjusted in iteration number     2 of the first full s.c.f. cycle only.
  No accuracy for occupation numbers given. Defaulting to  0.1000E-12.
  No threshold value for occupation numbers given. Defaulting to  0.0000E+00.
  No accuracy for fermi level given. Defaulting to  0.1000E-19.
  Maximum # of iterations to find E_F not set. Defaulting to  200.
  Preferred method for the eigenvalue solver ('KS_method') not specified in 'control.in'.
  Calling BLACS routine to test compilation state
  Since ScaLAPACK support is enabled, defaulting to ELPA (via ELSI).
  Will not use alltoall communication since running on < 1024 CPUs.
  Threshold for basis singularities not set.
  Default threshold for basis singularities:  0.1000E-04
  partition_type (choice of integration weights) for integrals was not specified.
  | Using a version of the partition function of Stratmann and coworkers ('stratmann_sparse').
  | At each grid point, the set of atoms used to build the partition table is smoothly restricted to
  | only those atoms whose free-atom density would be non-zero at that grid point.
  Partitioning for Hartree potential was not defined. Using partition_type for integrals.
  | Adjusted default value of keyword multip_moments_threshold to:       0.10000000E-11
  | This value may affect high angular momentum components of the Hartree potential in periodic systems.
  Angular momentum expansion for Kerker preconditioner not set explicitly.
  | Using default value of   0
  No explicit requirement for turning off preconditioner.
  | By default, it will be turned off when the charge convergence reaches
  | sc_accuracy_rho  =   0.100000E-05
  No special mixing parameter while Kerker preconditioner is on.
  Using default: charge_mix_param =     0.0500.
  Threshold for auxiliary basis singularities not set.
  Default threshold for auxiliary basis singularities:  0.1000E-04
  No q(lm)/r^(l+1) cutoff set for long-range Hartree potential.
  | Using default value of  0.100000E-09 .
  | Verify using the multipole_threshold keyword.
  Defaulting to new monopole extrapolation.
  Density update method: automatic selection selected.
  Using density matrix based charge density update.
  Using density matrix based charge density update.
  Using packed matrix style: index .
  Defaulting to use time-reversal symmetry for k-point grid.
  Charge integration errors on the 3D integration grid will be compensated
  by explicit normalization and distribution of residual charges.
  Use the "compensate_multipole_errors" flag to change this behaviour.
  Default to 1D ("use_logsbt") integrations for auxiliary 2-center integrals.
  Default onset of logarithmic r-grid for SBT is -38.000000000000
  Default onset of logarithmic k-grid for SBT is -25.000000000000
  Default range of logarithmic r- and k-grid for SBT is  45.000000000000
  Default number of logarithmic r- and k-grid for SBT is   4096
  Default of use_2d_corr is to use the efficient 2D distribution where possible
 
  Consistency checks for the contents of geometry.in are next.
 

  Range separation radius for Ewald summation (hartree_convergence_parameter):      2.95019032 bohr.
  Number of empty states per atom not set in control.in .
  | Since you are using a method that relies on the unoccupied spectrum
  | (MP2,GW,RPA et al.), will use the full Hamiltonian size (see below)
  | as the max. possible number of states (occupied plus empty).

  Structure-dependent array size parameters: 
  | Maximum number of distinct radial functions  :        9
  | Maximum number of basis functions            :      768
  | Number of Kohn-Sham states (occupied + empty):      768
------------------------------------------------------------

  Performing system and environment tests:
  | Environment variable OMP_NUM_THREADS correctly set to 1.
  | Checking for ScaLAPACK...
  | Testing pdtran()...
  | All pdtran() tests passed.
CUDA runtime version: 11060
CUDA driver version: 11060
  Initializing GPUs...

  Number of GPUs available to MPI task         0 :   1
  Number of GPUs available to MPI task         1 :   1
  Number of GPUs available to MPI task         2 :   1
  Number of GPUs available to MPI task         3 :   1
  Number of GPUs available to MPI task         4 :   1
  Number of GPUs available to MPI task         5 :   1
  Number of GPUs available to MPI task         6 :   1
  Number of GPUs available to MPI task         7 :   1
  Number of GPUs available to MPI task         8 :   1
  Number of GPUs available to MPI task         9 :   1
  Number of GPUs available to MPI task        10 :   1
  Number of GPUs available to MPI task        11 :   1
  Number of GPUs available to MPI task        12 :   1
  Number of GPUs available to MPI task        13 :   1
  Number of GPUs available to MPI task        14 :   1
  Number of GPUs available to MPI task        15 :   1
  Number of GPUs available to MPI task        16 :   1
  Number of GPUs available to MPI task        17 :   1

  | MPI task         0, GPU activated = T, Device Name = NVIDIA A100-SXM4-80GB
  | MPI task         1, GPU activated = T, Device Name = NVIDIA A100-SXM4-80GB
  | MPI task         2, GPU activated = T, Device Name = NVIDIA A100-SXM4-80GB
  | MPI task         3, GPU activated = T, Device Name = NVIDIA A100-SXM4-80GB
  | MPI task         4, GPU activated = T, Device Name = NVIDIA A100-SXM4-80GB
  | MPI task         5, GPU activated = T, Device Name = NVIDIA A100-SXM4-80GB
  | MPI task         6, GPU activated = T, Device Name = NVIDIA A100-SXM4-80GB
  | MPI task         7, GPU activated = T, Device Name = NVIDIA A100-SXM4-80GB
  | MPI task         8, GPU activated = T, Device Name = NVIDIA A100-SXM4-80GB
  | MPI task         9, GPU activated = T, Device Name = NVIDIA A100-SXM4-80GB
  | MPI task        10, GPU activated = T, Device Name = NVIDIA A100-SXM4-80GB
  | MPI task        11, GPU activated = T, Device Name = NVIDIA A100-SXM4-80GB
  | MPI task        12, GPU activated = T, Device Name = NVIDIA A100-SXM4-80GB
  | MPI task        13, GPU activated = T, Device Name = NVIDIA A100-SXM4-80GB
  | MPI task        14, GPU activated = T, Device Name = NVIDIA A100-SXM4-80GB
  | MPI task        15, GPU activated = T, Device Name = NVIDIA A100-SXM4-80GB
  | MPI task        16, GPU activated = T, Device Name = NVIDIA A100-SXM4-80GB
  | MPI task        17, GPU activated = T, Device Name = NVIDIA A100-SXM4-80GB

------------------------------------------------------------
          Preparing all fixed parts of the calculation.
------------------------------------------------------------
  Determining machine precision:
    2.225073858507201E-308
  Setting up grids for atomic and cluster calculations.

  Creating wave function, potential, and density for free atoms.
  Runtime choices for atomic solver:
  | atomic solver xc        : PW-LDA
  | compute density gradient: 0
  | compute kinetic density : F

  Species: H

  List of occupied orbitals and eigenvalues:
    n    l              occ      energy [Ha]    energy [eV]
    1    0           1.0000        -0.232375        -6.3233


  Species: O

  List of occupied orbitals and eigenvalues:
    n    l              occ      energy [Ha]    energy [eV]
    1    0           2.0000       -18.757744      -510.4242
    2    0           2.0000        -0.870917       -23.6989
    2    1           4.0000        -0.337950        -9.1961


  Adding cutoff potential to free-atom effective potential.
  Creating fixed part of basis set: Ionic, confined, hydrogenic.
 
  H                    hydrogenic:
 
  List of hydrogenic basis orbitals: 
    n    l      effective z      eigenvalue [eV]  inner max. [A]     outer max. [A]     outer radius [A]   
    2    0         2.100000       -14.9728           0.193243           1.317208           4.696947
    2    1         3.500000       -41.6669           0.602369           0.602369           3.862494
 
 
  O                    hydrogenic:
 
  List of hydrogenic basis orbitals: 
    n    l      effective z      eigenvalue [eV]  inner max. [A]     outer max. [A]     outer radius [A]   
    2    1         1.800000       -10.9749           1.164242           1.164242           4.691341
    3    2         7.600000       -87.3180           0.624125           0.624125           3.413946
    3    0         6.400000       -61.9207           0.061167           1.081902           4.151495
 
  Creating atomic-like basis functions for current effective potential.

  Species H                   :

  List of atomic basis orbitals and eigenvalues:
    n    l      energy [Ha]    energy [eV]    outer radius [A]
    1    0        -0.232375        -6.3233       4.696947


  Species O                   :

  List of atomic basis orbitals and eigenvalues:
    n    l      energy [Ha]    energy [eV]    outer radius [A]
    1    0       -18.757744      -510.4242       1.830144
    2    0        -0.870917       -23.6989       4.578029
    2    1        -0.337950        -9.1961       4.634338

  Assembling full basis from fixed parts.
  | Species H :   atomic orbital   1 s accepted.
  | Species H :    hydro orbital   2 s accepted.
  | Species H :    hydro orbital   2 p accepted.
  | Species O :   atomic orbital   1 s accepted.
  | Species O :    hydro orbital   3 s accepted.
  | Species O :   atomic orbital   2 s accepted.
  | Species O :   atomic orbital   2 p accepted.
  | Species O :    hydro orbital   2 p accepted.
  | Species O :    hydro orbital   3 d accepted.
 
  Basis size parameters after reduction:
  | Total number of radial functions:        9
  | Total number of basis functions :      768
 
  Per-task memory consumption for arrays in subroutine allocate_ext:
  |           2.268304MB.
  Testing on-site integration grid accuracy.
  |  Species  Function  <phi|h_atom|phi> (log., in eV)  <phi|h_atom|phi> (rad., in eV)
           1        1                 -6.3245358373                 -6.3232436907
           1        2                 14.1326137532                 14.1384481100
           1        3                 25.3627025200                 25.3628451197
           2        4               -510.4241781764               -510.4240769407
           2        5                 14.9072942213                 14.9072945271
           2        6                -21.2004736474                -21.2005650551
           2        7                 -9.1962086505                 -9.1963509834
           2        8                  8.1896755006                  8.1702200081
           2        9                 45.7920584937                 45.7920228520

  Preparing densities etc. for the partition functions (integrals / Hartree potential).

  Preparations completed.
  max(cpu_time)          :      0.070 s.
  Wall clock time (cpu1) :      0.063 s.
------------------------------------------------------------

  Initializing index lists of integration centers etc. from given atomic structure:
  Mapping all atomic coordinates to central unit cell.

  Initializing the k-points
  Using symmetry for reducing the k-points
  | k-points reduced from:        1 to        1
  | Number of k-points                             :         1
  | Consuming          0 KiB for k_phase_exx.
  The eigenvectors in the calculations are REAL.
  | Number of basis functions in the Hamiltonian integrals :      4453
  | Number of basis functions in a single unit cell        :       768
  | Number of centers in hartree potential         :      2591
  | Number of centers in hartree multipole         :      1935
  | Number of centers in electron density summation:      1514
  | Number of centers in basis integrals           :      1618
  | Number of centers in integrals                 :       700
  | Number of centers in hamiltonian               :      1514
  | Consuming          0 KiB for k_phase.
  | Number of super-cells (origin) [n_cells]                     :         125
  | Number of super-cells (after PM_index) [n_cells]             :          28
  | Number of super-cells in hamiltonian [n_cells_in_hamiltonian]:          28
  | Size of matrix packed + index [n_hamiltonian_matrix_size] :      807025
  | Size of matrix packed + index (no_symmetry):     1613281

------------------------------------------------------------
          Begin self-consistency loop: Initialization.

          Date     :  20230221, Time     :  130917.661
------------------------------------------------------------
  | Estimated reciprocal-space cutoff momentum G_max:         3.20604160 bohr^-1 .
  | Reciprocal lattice points for long-range Hartree potential:    3574
  Using simple linear distribution as default method for k-point parallelism.
  * Using 18 tasks for Scalapack Eigenvalue solver.
  Detailed listing of tasks and assigned k-points:
   Task     0 k-point     1 on adag039
   Task     1 k-point     1 on adag039
   Task     2 k-point     1 on adag039
   Task     3 k-point     1 on adag039
   Task     4 k-point     1 on adag039
   Task     5 k-point     1 on adag039
   Task     6 k-point     1 on adag039
   Task     7 k-point     1 on adag039
   Task     8 k-point     1 on adag039
   Task     9 k-point     1 on adag039
   Task    10 k-point     1 on adag039
   Task    11 k-point     1 on adag039
   Task    12 k-point     1 on adag039
   Task    13 k-point     1 on adag039
   Task    14 k-point     1 on adag039
   Task    15 k-point     1 on adag039
   Task    16 k-point     1 on adag039
   Task    17 k-point     1 on adag039
  K-point:     1 Tasks:    18 split into      6 X      3 BLACS grid
  Calculating block size based on n_basis =          768  max_nprow =            6  max_npcol =            3
  ScaLAPACK block size set to:           16
  Allocating        0.250 MB for ovlp
  Allocating        0.250 MB for ham
  Allocating        0.250 MB for eigenvec
  Required Scalapack workspace - INTEGER:            1  REAL:             1
  Partitioning the integration grid into batches with parallel hashing+maxmin method.
  | Number of batches:     4084
  | Maximal batch size:     200
  | Minimal batch size:      99
  | Average batch size:     124.772
  | Standard deviation of batch sizes:      19.455

  Integration load balanced across    18 MPI tasks.
  Work distribution over tasks is as follows:
  Task     0 has      28255 integration points.
  Task     1 has      28269 integration points.
  Task     2 has      28329 integration points.
  Task     3 has      28237 integration points.
  Task     4 has      28331 integration points.
  Task     5 has      28341 integration points.
  Task     6 has      28356 integration points.
  Task     7 has      28296 integration points.
  Task     8 has      28315 integration points.
  Task     9 has      28325 integration points.
  Task    10 has      28271 integration points.
  Task    11 has      28250 integration points.
  Task    12 has      28321 integration points.
  Task    13 has      28354 integration points.
  Task    14 has      28367 integration points.
  Task    15 has      28341 integration points.
  Task    16 has      28296 integration points.
  Task    17 has      28314 integration points.
  Initializing partition tables, free-atom densities, potentials, etc. across the integration grid (initialize_grid_storage).
  | initialize_grid_storage: Actual outermost partition radius vs. multipole_radius_free
  | (-- VB: in principle, multipole_radius_free should be larger, hence this output)
  | Species        1: Confinement radius =              4.999999999999999 AA, multipole_radius_free =              5.054417573612229 AA.
  | Species        1: outer_partition_radius set to              5.054417573612229 AA .
  | Species        2: Confinement radius =              4.999999999999999 AA, multipole_radius_free =              5.048384829883283 AA.
  | Species        2: outer_partition_radius set to              5.048384829883283 AA .
  | The sparse table of interatomic distances needs       5524.12 kbyte instead of     20943.39 kbyte of memory.
  | Net number of integration points:   509568
  | of which are non-zero points    :   405867
  | Numerical average free-atom electrostatic potential    :     -5.54550033 eV
  Renormalizing the initial density to the exact electron count on the 3D integration grid.
  | Initial density: Formal number of electrons (from input files) :     320.0000000000
  | Integrated number of electrons on 3D grid     :     319.9995435069
  | Charge integration error                      :      -0.0004564931
  | Normalization factor for density and gradient :       1.0000014265
  Renormalizing the free-atom superposition density to the exact electron count on the 3D integration grid.
  | Formal number of electrons (from input files) :     320.0000000000
  | Integrated number of electrons on 3D grid     :     319.9995435069
  | Charge integration error                      :      -0.0004564931
  | Normalization factor for density and gradient :       1.0000014265
  Obtaining max. number of non-zero basis functions in each batch (get_n_compute_maxes).
  | Maximal number of non-zero basis functions:      422 in task     0
  | Maximal number of non-zero basis functions:      424 in task     1
  | Maximal number of non-zero basis functions:      434 in task     2
  | Maximal number of non-zero basis functions:      425 in task     3
  | Maximal number of non-zero basis functions:      439 in task     4
  | Maximal number of non-zero basis functions:      427 in task     5
  | Maximal number of non-zero basis functions:      434 in task     6
  | Maximal number of non-zero basis functions:      422 in task     7
  | Maximal number of non-zero basis functions:      430 in task     8
  | Maximal number of non-zero basis functions:      428 in task     9
  | Maximal number of non-zero basis functions:      432 in task    10
  | Maximal number of non-zero basis functions:      426 in task    11
  | Maximal number of non-zero basis functions:      432 in task    12
  | Maximal number of non-zero basis functions:      419 in task    13
  | Maximal number of non-zero basis functions:      420 in task    14
  | Maximal number of non-zero basis functions:      425 in task    15
  | Maximal number of non-zero basis functions:      428 in task    16
  | Maximal number of non-zero basis functions:      430 in task    17
  Integrating Hamiltonian matrix: batch-based integration.
  GPU acceleration will be used when integrating the Hamiltonian matrix.
  Reporting GPU memory usage by myid 0.  Note that it is likely not the only MPI task binding to its GPU!
  Allocating        1.425 MB on GPU for hamiltonian_shell
  Allocating        0.675 MB on GPU for wave
  Allocating        0.002 MB on GPU for partition
  Allocating        0.675 MB on GPU for h_times_psi
  Time summed over all CPUs for integration: real work       11.649 s, elapsed       11.858 s
  Deallocating memory used on GPU for Hamiltonian integration.
  Integrating overlap matrix.
  Time summed over all CPUs for integration: real work        9.466 s, elapsed        9.691 s
  Deallocating overlap matrix.

  Updating Kohn-Sham eigenvalues and eigenvectors using ELSI and the ELPA eigensolver.
  Singularity check in k-point 1 (analysis for other k-points may follow below):
  Overlap matrix is not singular
  | Lowest and highest eigenvalues :  0.1834E-02,  0.7340E+01
  Finished singularity check of overlap matrix
  | Time :     3.151 s
  Starting ELPA eigensolver (GPU)
  Finished Cholesky decomposition
  | Time :     0.019 s
  Finished transformation to standard eigenproblem
  | Time :     0.782 s
  Finished solving standard eigenproblem
  | Time :     3.486 s
  Finished back-transformation of eigenvectors
  | Time :     0.030 s

  Obtaining occupation numbers and electronic chemical potential using ELSI.
  | Note that, for insulating systems, the printed 'chemical potential' value is not uniquely defined.
  | It can be anywhere in the energy gap, as long as it correctly separates occupied and unoccupied states.
  | In systems with a gap, the physically relevant chemical potential is the VBM or HOMO.

  | Chemical potential (Fermi level):    -9.25907826 eV
  Writing Kohn-Sham eigenvalues.

  State    Occupation    Eigenvalue [Ha]    Eigenvalue [eV]
      1       2.00000         -18.951940         -515.70854
      2       2.00000         -18.914038         -514.67715
      3       2.00000         -18.911127         -514.59795
      4       2.00000         -18.897630         -514.23067
      5       2.00000         -18.894657         -514.14978
      6       2.00000         -18.893236         -514.11110
      7       2.00000         -18.892828         -514.10001
      8       2.00000         -18.887587         -513.95740
      9       2.00000         -18.881239         -513.78465
     10       2.00000         -18.878404         -513.70750
     11       2.00000         -18.877831         -513.69191
     12       2.00000         -18.876978         -513.66870
     13       2.00000         -18.875120         -513.61814
     14       2.00000         -18.874123         -513.59101
     15       2.00000         -18.873178         -513.56530
     16       2.00000         -18.873043         -513.56164
     17       2.00000         -18.872858         -513.55660
     18       2.00000         -18.872474         -513.54614
     19       2.00000         -18.871912         -513.53086
     20       2.00000         -18.871645         -513.52359
     21       2.00000         -18.870580         -513.49461
     22       2.00000         -18.866355         -513.37963
     23       2.00000         -18.865851         -513.36591
     24       2.00000         -18.865592         -513.35888
     25       2.00000         -18.860822         -513.22907
     26       2.00000         -18.859771         -513.20048
     27       2.00000         -18.858568         -513.16773
     28       2.00000         -18.856042         -513.09900
     29       2.00000         -18.849394         -512.91811
     30       2.00000         -18.848826         -512.90264
     31       2.00000         -18.848077         -512.88227
     32       2.00000         -18.842727         -512.73669
     33       2.00000          -1.224693          -33.32559
     34       2.00000          -1.180628          -32.12652
     35       2.00000          -1.164509          -31.68790
     36       2.00000          -1.138288          -30.97438
     37       2.00000          -1.137130          -30.94288
     38       2.00000          -1.136564          -30.92748
     39       2.00000          -1.134748          -30.87805
     40       2.00000          -1.130508          -30.76269
     41       2.00000          -1.123936          -30.58387
     42       2.00000          -1.117189          -30.40027
     43       2.00000          -1.116153          -30.37208
     44       2.00000          -1.112060          -30.26070
     45       2.00000          -1.111194          -30.23712
     46       2.00000          -1.110240          -30.21116
     47       2.00000          -1.107342          -30.13231
     48       2.00000          -1.106628          -30.11288
     49       2.00000          -1.105520          -30.08274
     50       2.00000          -1.101767          -29.98061
     51       2.00000          -1.099049          -29.90665
     52       2.00000          -1.098127          -29.88155
     53       2.00000          -1.097230          -29.85714
     54       2.00000          -1.092838          -29.73763
     55       2.00000          -1.090277          -29.66794
     56       2.00000          -1.087297          -29.58687
     57       2.00000          -1.082833          -29.46540
     58       2.00000          -1.077618          -29.32347
     59       2.00000          -1.074639          -29.24241
     60       2.00000          -1.071329          -29.15233
     61       2.00000          -1.065657          -28.99799
     62       2.00000          -1.065268          -28.98740
     63       2.00000          -1.058859          -28.81302
     64       2.00000          -1.051105          -28.60203
     65       2.00000          -0.755435          -20.55643
     66       2.00000          -0.712994          -19.40155
     67       2.00000          -0.699495          -19.03423
     68       2.00000          -0.695867          -18.93551
     69       2.00000          -0.685862          -18.66325
     70       2.00000          -0.680701          -18.52282
     71       2.00000          -0.679386          -18.48704
     72       2.00000          -0.677347          -18.43155
     73       2.00000          -0.672049          -18.28738
     74       2.00000          -0.669236          -18.21084
     75       2.00000          -0.656518          -17.86476
     76       2.00000          -0.655614          -17.84017
     77       2.00000          -0.651763          -17.73537
     78       2.00000          -0.650073          -17.68939
     79       2.00000          -0.646161          -17.58292
     80       2.00000          -0.645489          -17.56466
     81       2.00000          -0.643830          -17.51952
     82       2.00000          -0.643351          -17.50646
     83       2.00000          -0.641140          -17.44631
     84       2.00000          -0.640156          -17.41953
     85       2.00000          -0.639273          -17.39550
     86       2.00000          -0.633830          -17.24739
     87       2.00000          -0.631908          -17.19508
     88       2.00000          -0.625178          -17.01197
     89       2.00000          -0.624388          -16.99045
     90       2.00000          -0.622044          -16.92667
     91       2.00000          -0.620016          -16.87150
     92       2.00000          -0.601154          -16.35823
     93       2.00000          -0.598026          -16.27311
     94       2.00000          -0.592894          -16.13348
     95       2.00000          -0.592444          -16.12122
     96       2.00000          -0.590369          -16.06476
     97       2.00000          -0.579498          -15.76895
     98       2.00000          -0.579301          -15.76357
     99       2.00000          -0.568199          -15.46148
    100       2.00000          -0.563208          -15.32566
    101       2.00000          -0.559453          -15.22349
    102       2.00000          -0.556135          -15.13320
    103       2.00000          -0.555956          -15.12832
    104       2.00000          -0.552454          -15.03303
    105       2.00000          -0.548358          -14.92158
    106       2.00000          -0.546483          -14.87055
    107       2.00000          -0.544714          -14.82241
    108       2.00000          -0.541582          -14.73720
    109       2.00000          -0.539823          -14.68933
    110       2.00000          -0.537824          -14.63495
    111       2.00000          -0.535686          -14.57676
    112       2.00000          -0.533988          -14.53055
    113       2.00000          -0.529832          -14.41746
    114       2.00000          -0.528554          -14.38269
    115       2.00000          -0.526461          -14.32574
    116       2.00000          -0.525684          -14.30458
    117       2.00000          -0.523671          -14.24983
    118       2.00000          -0.520830          -14.17250
    119       2.00000          -0.515942          -14.03951
    120       2.00000          -0.515410          -14.02503
    121       2.00000          -0.513546          -13.97429
    122       2.00000          -0.512325          -13.94106
    123       2.00000          -0.510468          -13.89055
    124       2.00000          -0.508028          -13.82415
    125       2.00000          -0.504567          -13.72998
    126       2.00000          -0.504082          -13.71677
    127       2.00000          -0.502446          -13.67224
    128       2.00000          -0.495223          -13.47569
    129       2.00000          -0.487581          -13.26775
    130       2.00000          -0.486437          -13.23662
    131       2.00000          -0.483160          -13.14747
    132       2.00000          -0.475506          -12.93917
    133       2.00000          -0.473881          -12.89495
    134       2.00000          -0.472801          -12.86556
    135       2.00000          -0.471846          -12.83960
    136       2.00000          -0.469682          -12.78069
    137       2.00000          -0.467275          -12.71519
    138       2.00000          -0.466985          -12.70730
    139       2.00000          -0.466408          -12.69162
    140       2.00000          -0.464537          -12.64069
    141       2.00000          -0.462556          -12.58680
    142       2.00000          -0.461805          -12.56636
    143       2.00000          -0.461152          -12.54859
    144       2.00000          -0.458474          -12.47571
    145       2.00000          -0.457987          -12.46245
    146       2.00000          -0.457069          -12.43749
    147       2.00000          -0.456969          -12.43477
    148       2.00000          -0.455552          -12.39620
    149       2.00000          -0.453144          -12.33067
    150       2.00000          -0.449594          -12.23409
    151       2.00000          -0.449185          -12.22295
    152       2.00000          -0.447805          -12.18541
    153       2.00000          -0.446965          -12.16254
    154       2.00000          -0.446285          -12.14403
    155       2.00000          -0.444492          -12.09524
    156       2.00000          -0.442162          -12.03184
    157       2.00000          -0.440986          -11.99985
    158       2.00000          -0.439122          -11.94912
    159       2.00000          -0.436735          -11.88417
    160       2.00000          -0.431673          -11.74642
    161       0.00000          -0.173040           -4.70866
    162       0.00000          -0.114613           -3.11876
    163       0.00000          -0.109817           -2.98827
    164       0.00000          -0.106301           -2.89259
    165       0.00000          -0.102231           -2.78186
    166       0.00000          -0.096143           -2.61619
    167       0.00000          -0.093949           -2.55648
    168       0.00000          -0.065425           -1.78032
    169       0.00000          -0.063501           -1.72795
    170       0.00000          -0.060384           -1.64312
    171       0.00000          -0.055015           -1.49702
    172       0.00000          -0.053580           -1.45798
    173       0.00000          -0.052265           -1.42221
    174       0.00000          -0.047072           -1.28089
    175       0.00000          -0.046032           -1.25259
    176       0.00000          -0.041801           -1.13747
    177       0.00000          -0.037074           -1.00882
    178       0.00000          -0.033258           -0.90499
    179       0.00000          -0.026209           -0.71317
    180       0.00000          -0.013566           -0.36914
    181       0.00000          -0.011028           -0.30008
    182       0.00000          -0.005727           -0.15585
    183       0.00000           0.001295            0.03523
    184       0.00000           0.004524            0.12309
    185       0.00000           0.008004            0.21780
    186       0.00000           0.019903            0.54160
    187       0.00000           0.023812            0.64797
    188       0.00000           0.029531            0.80357
    189       0.00000           0.031549            0.85848
    190       0.00000           0.036643            0.99712
    191       0.00000           0.038518            1.04814
    192       0.00000           0.041744            1.13590
    193       0.00000           0.044369            1.20735
    194       0.00000           0.047067            1.28075
    195       0.00000           0.050123            1.36392
    196       0.00000           0.051221            1.39380
    197       0.00000           0.056946            1.54957
    198       0.00000           0.058590            1.59431
    199       0.00000           0.060397            1.64349
    200       0.00000           0.063798            1.73602
    201       0.00000           0.066087            1.79832
    202       0.00000           0.066876            1.81978
    203       0.00000           0.069497            1.89112
    204       0.00000           0.073459            1.99892
    205       0.00000           0.074074            2.01567
    206       0.00000           0.076747            2.08840
    207       0.00000           0.077755            2.11582
    208       0.00000           0.080785            2.19828
    209       0.00000           0.082238            2.23780
    210       0.00000           0.088445            2.40672
    211       0.00000           0.091546            2.49110
    212       0.00000           0.092785            2.52481
    213       0.00000           0.094340            2.56712
    214       0.00000           0.100840            2.74401
    215       0.00000           0.101931            2.77369
    216       0.00000           0.107073            2.91361
    217       0.00000           0.107778            2.93280
    218       0.00000           0.108977            2.96541
    219       0.00000           0.113664            3.09295
    220       0.00000           0.115918            3.15428
    221       0.00000           0.120448            3.27756
    222       0.00000           0.121549            3.30751
    223       0.00000           0.130551            3.55249
    224       0.00000           0.132506            3.60566
    225       0.00000           0.141218            3.84273
    226       0.00000           0.153628            4.18042
    227       0.00000           0.155833            4.24044
    228       0.00000           0.158625            4.31641
    229       0.00000           0.176621            4.80610
    230       0.00000           0.180018            4.89854
    231       0.00000           0.182824            4.97489
    232       0.00000           0.187192            5.09374
    233       0.00000           0.190845            5.19316
    234       0.00000           0.193435            5.26363
    235       0.00000           0.199569            5.43055
    236       0.00000           0.206694            5.62443
    237       0.00000           0.207428            5.64441
    238       0.00000           0.216637            5.89499
    239       0.00000           0.219891            5.98354
    240       0.00000           0.223618            6.08495
    241       0.00000           0.229083            6.23365
    242       0.00000           0.234386            6.37797
    243       0.00000           0.238680            6.49482
    244       0.00000           0.240129            6.53425
    245       0.00000           0.249934            6.80104
    246       0.00000           0.254142            6.91555
    247       0.00000           0.267127            7.26889
    248       0.00000           0.276291            7.51827
    249       0.00000           0.281764            7.66720
    250       0.00000           0.284508            7.74187
    251       0.00000           0.294474            8.01305
    252       0.00000           0.297163            8.08623
    253       0.00000           0.302807            8.23979
    254       0.00000           0.310001            8.43554
    255       0.00000           0.313487            8.53041
    256       0.00000           0.323745            8.80956
    257       0.00000           0.328629            8.94245
    258       0.00000           0.333393            9.07210
    259       0.00000           0.338875            9.22125
    260       0.00000           0.346635            9.43242
[...]
  |    H      0     4.527807 A      4.527807 A        1.268855E-16 a.u.
  |    H      0     4.527807 A      4.583499 A       -4.900954E-17 a.u.
  |    H      0     4.527807 A      4.583499 A        4.713786E-16 a.u.
  |    H      2     3.678162 A  2.180220E+05 A            0.556529 a.u.
  |    H      1     3.958095 A  1.721251E+08 A            0.841931 a.u.
  |    H      0     4.527807 A  3.866455E+16 A            0.581436 a.u.
  |    O      0     2.043000 A      2.043000 A       -1.436841E-16 a.u.
  |    O      3     3.498446 A      3.498446 A        3.043453E-17 a.u.
  |    O      3     3.498446 A      3.498446 A        1.541443E-16 a.u.
  |    O      0     3.905335 A      3.905335 A        2.173090E-16 a.u.
  |    O      0     3.905335 A      3.905335 A        7.213445E-17 a.u.
  |    O      0     4.101052 A      4.101052 A        2.361718E-16 a.u.
  |    O      1     4.101052 A      4.101052 A        3.235185E-17 a.u.
  |    O      0     4.359549 A      4.359549 A       -5.329475E-17 a.u.
  |    O      1     4.413171 A      4.413171 A        3.261883E-17 a.u.
  |    O      1     4.522403 A      4.522403 A        6.417997E-16 a.u.
  |    O      1     4.522403 A      4.522403 A        4.224783E-16 a.u.
  |    O      2     4.522403 A      4.522403 A       -4.387647E-16 a.u.
  |    O      0     4.522403 A      4.578029 A        2.602039E-16 a.u.
  |    O      0     4.578029 A      4.578029 A        1.226235E-16 a.u.
  |    O      1     4.578029 A      4.578029 A       -6.107316E-16 a.u.
  |    O      1     4.578029 A      4.578029 A       -2.224438E-16 a.u.
  |    O      2     4.578029 A      4.578029 A       -7.020279E-16 a.u.
  |    O      2     4.522403 A      4.578029 A        1.323470E-15 a.u.
  |    O      2     4.578029 A      4.578029 A        7.923696E-16 a.u.
  |    O      2     4.522403 A      4.578029 A       -9.951815E-16 a.u.
  |    O      0     4.578029 A      4.634338 A       -8.813582E-18 a.u.
  |    O      1     4.578029 A      4.634338 A       -3.325386E-17 a.u.
  |    O      1     4.634338 A      4.634338 A        9.588032E-16 a.u.
  |    O      2     4.578029 A      4.634338 A        1.064715E-17 a.u.
  |    O      2     4.578029 A      4.634338 A       -3.770343E-15 a.u.
  |    O      4     3.251020 A  1.511584E+03 A            1.513372 a.u.
  |    O      3     3.541477 A  1.434166E+04 A            4.293220 a.u.
  |    O      2     4.634338 A  5.584435E+05 A            9.352428 a.u.
  |    O      1     4.634338 A  2.821283E+08 A            2.261940 a.u.
  |    O      0     4.578029 A  4.264100E+16 A            0.641234 a.u.

  | Shrink_full_auxil_basis : there are       38  radial auxiliary wave functions
                            accepted and       5 rejected.
  | Shrink_full_auxil_basis : there are totally                4544 partial auxiliary wave functions.
 
  | Maximal number of product basis functions per thread :   256   256
 
  | Minimal total memory requirement for three-center overlap :      10.450 Gbs
  | Number of local auxiliary basis functions on task:      0   256
  | Number of local auxiliary basis functions on task:      1   256
  | Number of local auxiliary basis functions on task:      2   256
  | Number of local auxiliary basis functions on task:      3   256
  | Number of local auxiliary basis functions on task:      4   256
  | Number of local auxiliary basis functions on task:      5   256
  | Number of local auxiliary basis functions on task:      6   256
  | Number of local auxiliary basis functions on task:      7   256
  | Number of local auxiliary basis functions on task:      8   256
  | Number of local auxiliary basis functions on task:      9   256
  | Number of local auxiliary basis functions on task:     10   256
  | Number of local auxiliary basis functions on task:     11   256
  | Number of local auxiliary basis functions on task:     12   256
  | Number of local auxiliary basis functions on task:     13   256
  | Number of local auxiliary basis functions on task:     14   240
  | Number of local auxiliary basis functions on task:     15   240
  | Number of local auxiliary basis functions on task:     16   240
  | Number of local auxiliary basis functions on task:     17   240
  | 2D aux task distribution:      3 X      6
  | 2D block size (nb_aux_2d):     64
 
  Basis pair condensation :    295296  -->     228463
 
 --------------------------------------------
  Constructing auxiliary basis (full product) ...
 
  Product basis:
  | charge radius: extent of product basis function
  | field radius: extent of its Coulomb potential
  | Species   l  charge radius    field radius  multipol momen
  |    H      1     3.910002 A      3.910002 A       -2.487223E-16 a.u.
  |    H      1     3.958095 A      3.958095 A       -2.441841E-16 a.u.
  |    H      0     4.527807 A      4.527807 A        1.268855E-16 a.u.
  |    H      0     4.527807 A      4.583499 A       -4.900954E-17 a.u.
  |    H      0     4.527807 A      4.583499 A        4.713786E-16 a.u.
  |    H      2     3.678162 A  2.180220E+05 A            0.556529 a.u.
  |    H      1     3.958095 A  1.721251E+08 A            0.841931 a.u.
  |    H      0     4.527807 A  3.866455E+16 A            0.581436 a.u.
  |    O      0     2.043000 A      2.043000 A       -1.436841E-16 a.u.
  |    O      3     3.498446 A      3.498446 A        3.043453E-17 a.u.
  |    O      3     3.498446 A      3.498446 A        1.541443E-16 a.u.
  |    O      0     3.905335 A      3.905335 A        2.173090E-16 a.u.
  |    O      0     3.905335 A      3.905335 A        7.213445E-17 a.u.
  |    O      0     4.101052 A      4.101052 A        2.361718E-16 a.u.
  |    O      1     4.101052 A      4.101052 A        3.235185E-17 a.u.
  |    O      0     4.359549 A      4.359549 A       -5.329475E-17 a.u.
  |    O      1     4.413171 A      4.413171 A        3.261883E-17 a.u.
  |    O      1     4.522403 A      4.522403 A        6.417997E-16 a.u.
  |    O      1     4.522403 A      4.522403 A        4.224783E-16 a.u.
  |    O      2     4.522403 A      4.522403 A       -4.387647E-16 a.u.
  |    O      0     4.522403 A      4.578029 A        2.602039E-16 a.u.
  |    O      0     4.578029 A      4.578029 A        1.226235E-16 a.u.
  |    O      1     4.578029 A      4.578029 A       -6.107316E-16 a.u.
  |    O      1     4.578029 A      4.578029 A       -2.224438E-16 a.u.
  |    O      2     4.578029 A      4.578029 A       -7.020279E-16 a.u.
  |    O      2     4.522403 A      4.578029 A        1.323470E-15 a.u.
  |    O      2     4.578029 A      4.578029 A        7.923696E-16 a.u.
  |    O      2     4.522403 A      4.578029 A       -9.951815E-16 a.u.
  |    O      0     4.578029 A      4.634338 A       -8.813582E-18 a.u.
  |    O      1     4.578029 A      4.634338 A       -3.325386E-17 a.u.
  |    O      1     4.634338 A      4.634338 A        9.588032E-16 a.u.
  |    O      2     4.578029 A      4.634338 A        1.064715E-17 a.u.
  |    O      2     4.578029 A      4.634338 A       -3.770343E-15 a.u.
  |    O      4     3.251020 A  1.511584E+03 A            1.513372 a.u.
  |    O      3     3.541477 A  1.434166E+04 A            4.293220 a.u.
  |    O      2     4.634338 A  5.584435E+05 A            9.352428 a.u.
  |    O      1     4.634338 A  2.821283E+08 A            2.261940 a.u.
  |    O      0     4.578029 A  4.264100E+16 A            0.641234 a.u.

  | Shrink_full_auxil_basis : there are       38  radial auxiliary wave functions
                            accepted and       5 rejected.
  | Shrink_full_auxil_basis : there are totally                4544 partial auxiliary wave functions.
 
  | Maximal number of product basis functions per thread :   256   256
 
  | Minimal total memory requirement for three-center overlap :      10.450 Gbs
  | Number of local auxiliary basis functions on task:      0   256
  | Number of local auxiliary basis functions on task:      1   256
  | Number of local auxiliary basis functions on task:      2   256
  | Number of local auxiliary basis functions on task:      3   256
  | Number of local auxiliary basis functions on task:      4   256
  | Number of local auxiliary basis functions on task:      5   256
  | Number of local auxiliary basis functions on task:      6   256
  | Number of local auxiliary basis functions on task:      7   256
  | Number of local auxiliary basis functions on task:      8   256
  | Number of local auxiliary basis functions on task:      9   256
  | Number of local auxiliary basis functions on task:     10   256
  | Number of local auxiliary basis functions on task:     11   256
  | Number of local auxiliary basis functions on task:     12   256
  | Number of local auxiliary basis functions on task:     13   256
  | Number of local auxiliary basis functions on task:     14   240
  | Number of local auxiliary basis functions on task:     15   240
  | Number of local auxiliary basis functions on task:     16   240
  | Number of local auxiliary basis functions on task:     17   240
  | 2D aux task distribution:      3 X      6
  | 2D block size (nb_aux_2d):     64
 
  Basis pair condensation :    295296  -->     228463
dP_dE (Bohr^3) at every cycle:--->
 (365.057951146077,0.000000000000000E+000) (-3.17865051413538,0.000000000000000E+000) (-4.12378377571750,0.000000000000000E+000)
 (-3.17790882270111,0.000000000000000E+000) (348.811522303693,0.000000000000000E+000) (4.69119542639792,0.000000000000000E+000)
 (-4.12575019097002,0.000000000000000E+000) (4.70697144274142,0.000000000000000E+000) (334.514475637025,0.000000000000000E+000)
DFPT polarizability (Bohr^3)        xx        yy        zz        xy        xz        yz
  | Polarizability:--->                       365.057951146                  348.811522304                  334.514475637                   -3.178650514                   -4.123783776                    4.691195426

DFPT for dielectric_constant:--->  # PARSE DFPT_dielectric_tensor
               1.723383173509789            -0.006298677481685            -0.008171513002748
              -0.006297207777760             1.691189947154059             0.009295871585453
              -0.008175409566845             0.009327132662583             1.662859532881249

                                               :  max(cpu_time)    wall_clock(cpu1)
  | Time for  dielectric calculation            :        0.000 s           0.001 s
===========================================================================

------------------------------------------------------------------------------
  Final output of selected total energy values:

  The following output summarizes some interesting total energy values
  at the end of a run (AFTER all relaxation, molecular dynamics, etc.).

  | Total energy of the DFT / Hartree-Fock s.c.f. calculation      :         -66111.545939419 eV
  | Final zero-broadening corrected energy (caution - metals only) :         -66111.545939419 eV
  | For reference only, the value of 1 Hartree used in FHI-aims is :             27.211384500 eV
  | For reference only, the overall average (free atom contribution
  | + realspace contribution) of the electrostatic potential after
  | s.c.f. convergence is                                          :             -5.124686914 eV

  Before relying on these values, please be sure to understand exactly which
  total energy value is referred to by a given number. Different objects may
  all carry the same name 'total energy'. Definitions:

  Total energy of the DFT / Hartree-Fock s.c.f. calculation:
  | Note that this energy does not include ANY quantities calculated after the
  | s.c.f. cycle, in particular not ANY RPA, MP2, etc. many-body perturbation terms.

  Final zero-broadening corrected energy:
  | For metallic systems only, a broadening of the occupation numbers at the Fermi
  | level can be extrapolated back to zero broadening by an electron-gas inspired
  | formula. For all systems that are not real metals, this value can be
  | meaningless and should be avoided.

------------------------------------------------------------------------------
  Methods described in the following list of references were used in this FHI-aims run.
  If you publish the results, please make sure to cite these reference if they apply.
  FHI-aims is an academic code, and for our developers (often, Ph.D. students
  and postdocs), scientific credit in the community is essential.
  Thank you for helping us!

  For any use of FHI-aims, please cite:

    Volker Blum, Ralf Gehrke, Felix Hanke, Paula Havu, Ville Havu,
    Xinguo Ren, Karsten Reuter, and Matthias Scheffler
    'Ab initio molecular simulations with numeric atom-centered orbitals'
    Computer Physics Communications 180, 2175-2196 (2009)
    http://doi.org/10.1016/j.cpc.2009.06.022


  For Hartree-Fock, hybrid functionals, or many-body perturbation theory used in your run, please cite:

    Xinguo Ren, Patrick Rinke, Volker Blum, Juergen Wieferink, Alex Tkatchenko,
    Andrea Sanfilippo, Karsten Reuter, and Matthias Scheffler,
    'Resolution-of-identity approach to Hartree-Fock, hybrid density functionals,
    RPA, MP2, and GW with numeric atom-centered orbital basis functions'
    New Journal of Physics 14, 053020 (2012).
    http://doi.org/10.1088/1367-2630/14/5/053020


  The provided symmetry information was generated with SPGlib:

    Atsushi Togo, Yusuke Seto, Dimitar Pashov
    SPGlib 1.7.3 obtained from http://spglib.sourceforge.net
    Copyright (C) 2008 Atsushi Togo


  The DFPT (perturbation by an electric field) part of the code was used.
  Here is the corresponding reference:

    Honghui Shang, Nathaniel Raimbault, Mariana Rossi,
    Christian Carbogno, Patrick Rinke and Matthias Scheffler,
    'All-Electron, Real-Space Perturbation Theory for Homogeneous
    Electric Fields: Theory, Implementation, and Application within dft'
    New Journal of Physics, 20(7):073040, 2018


  The ELSI infrastructure was used in your run to solve the Kohn-Sham electronic structure.
  Please check out http://elsi-interchange.org to learn more.
  If scalability is important for your project, please acknowledge ELSI by citing:

    V. W-z. Yu, F. Corsetti, A. Garcia, W. P. Huhn, M. Jacquelin, W. Jia,
    B. Lange, L. Lin, J. Lu, W. Mi, A. Seifitokaldani, A. Vazquez-Mayagoitia,
    C. Yang, H. Yang, and V. Blum
    'ELSI: A unified software interface for Kohn-Sham electronic structure solvers'
    Computer Physics Communications 222, 267-285 (2018).
    http://doi.org/10.1016/j.cpc.2017.09.007


  For the real-space grid partitioning and parallelization used in this calculation, please cite:

    Ville Havu, Volker Blum, Paula Havu, and Matthias Scheffler,
    'Efficient O(N) integration for all-electron electronic structure calculation'
    'using numerically tabulated basis functions'
    Journal of Computational Physics 228, 8367-8379 (2009).
    http://doi.org/10.1016/j.jcp.2009.08.008


  The high-level electronic structure method used in your calculation
  employed our efficient localized resolution of identity for the Coulomb operator.
  Some calculations, especially large-scale hybrid density functional theory,
  are only possible thanks to this development. For this feature, please cite:

    Arvid Ihrig, Juergen Wieferink, Igor Ying Zhang, Matti Ropo, Xinguo Ren,
    Patrick Rinke, Matthias Scheffler, and Volker Blum,
    'Accurate localized resolution of identity approach for linear-scaling
    hybrid density functionals and for many-body perturbation theory'
    New Journal of Physics 117, 093020 (2015).
    http://doi.org/10.1088/1367-2630/17/9/093020

  Of course, there are many other important community references, e.g., those cited in the
  above references. Our list is limited to references that describe implementations in the
  FHI-aims code. The reason is purely practical (length of this list) - please credit others as well.

------------------------------------------------------------
          Leaving FHI-aims.
          Date     :  20230221, Time     :  131802.895

          Computational steps:
          | Number of self-consistency cycles          :           45
          | Number of SCF (re)initializations          :            1
          | Number of coupled perturbed self-consistency cycles          :            0
          | Number of CPSCF (re)initializations          :            0

          Detailed time accounting                     :  max(cpu_time)    wall_clock(cpu1)
          | Total time                                  :      520.072 s         543.546 s
          | GPU initialization                          :        2.773 s          16.913 s
          | Preparation time                            :        0.070 s           0.063 s
          | Boundary condition initalization            :        1.250 s           1.250 s
          | Grid partitioning                           :        0.410 s           0.410 s
          | Preloading free-atom quantities on grid     :        2.761 s           2.762 s
          | Free-atom superposition energy              :        0.323 s           0.324 s
          | Total time for integrations                 :       12.682 s          13.036 s
          | Product basis setup: Total time             :        0.000 s           0.000 s
          | Product basis: | 2-center integrations     :(       0.000 s)  (       0.000 s)
          | Product basis: | LVL 3-center & coefficient:(       0.000 s)  (       0.000 s)
          | Total time for solution of K.-S. equations  :        3.380 s          11.663 s
          | Total time for density update               :        8.980 s           9.276 s
          | Total time for mixing & preconditioning     :        8.601 s           8.604 s
          | Total time for Hartree multipole update     :        0.109 s           0.108 s
          | Total time for Hartree multipole sum        :       37.392 s          37.402 s
          | Total time for total energy evaluation      :        0.007 s           0.012 s
          | Total time for DFPT                         :      440.438 s         440.610 s
          | Total time first_order_DM                   :        0.310 s           0.313 s
          | Total time first_order_density              :       91.947 s          91.964 s
          | Total time first_order_potential            :       53.545 s          53.566 s
          | Total time first_order_H                    :      186.078 s         186.143 s
          | Total time solving of Sternheimer equations :        0.183 s           0.181 s
          | Total time for dielectric constant          :        0.000 s           0.001 s
          | Total time momentum matrix                  :        0.000 s           0.000 s

          GPU acceleration has been used for charge density update.
          GPU acceleration has been used for real-space Hamiltonian integration.
          Due to GPU usage, wall_clock(cpu1) will give a more reliable estimate for timings.

          Partial memory accounting:
          | Residual value for overall tracked memory usage across tasks:     0.000000 MB (should be 0.000000 MB)
          | Peak values for overall tracked memory usage:
          |   Minimum:      120.816 MB (on task  0 after allocating DFPT_pulay_mixing::pulay_mix::alphas)
          |   Maximum:      120.816 MB (on task  0 after allocating DFPT_pulay_mixing::pulay_mix::alphas)
          |   Average:      120.816 MB
          | Largest tracked array allocation:
          |   Minimum:       43.100 MB (DFPT_pulay_mixing::initialize_pulay_mixing::X_in_diffs on task  0)
          |   Maximum:       43.100 MB (DFPT_pulay_mixing::initialize_pulay_mixing::X_in_diffs on task  0)
          |   Average:       43.100 MB
          Note:  These values currently only include a subset of arrays which are explicitly tracked.
          The "true" memory usage will be greater.

          Have a nice day.
------------------------------------------------------------
