------------------------------------------------------------
          Invoking FHI-aims ...

          When using FHI-aims, please cite the following reference:

            Volker Blum, Ralf Gehrke, Felix Hanke, Paula Havu,
            Ville Havu, Xinguo Ren, Karsten Reuter, and Matthias Scheffler,
            'Ab Initio Molecular Simulations with Numeric Atom-Centered Orbitals',
            Computer Physics Communications 180, 2175-2196 (2009)

          In addition, many other developments in FHI-aims are likely important for
          your particular application. A partial list of references is given at the end of
          this file. Thank you for giving credit to the authors of these developments.

          For any questions about FHI-aims, please visit our slack channel at

            https://fhi-aims.slack.com

          and our main development and support site at

            https://aims-git.rz-berlin.mpg.de .

          The latter site, in particular, has a wiki to collect information, as well
          as an issue tracker to log discussions, suggest improvements, and report issues
          or bugs. https://aims-git.rz-berlin.mpg.de is also the main development site
          of the project and all new and updated code versions can be obtained there.
          Please send an email to aims-coordinators@fhi-berlin.mpg.de and we will add
          you to these sites. They are for you and everyone is welcome there.

------------------------------------------------------------



  Date     :  20230221, Time     :  144954.297
  Time zero on CPU 1             :   0.408559000000000E+00  s.
  Internal wall clock time zero  :           446222994.297  s.

  FHI-aims created a unique identifier for this run for later identification
  aims_uuid : 3A493D54-DAA3-49A8-AD14-A382FF017C45

  Build configuration of the current instance of FHI-aims
  -------------------------------------------------------
  FHI-aims version      : 221103
  Commit number         : 42523251a
  CMake host system     : Linux-5.3.18-150300.59.68-default
  CMake version         : 3.17.0
  Fortran compiler      : /mpcdf/soft/SLE_15/packages/x86_64/intel_oneapi/2021.3/mpi/2021.3.0/bin/mpiifort (Intel) version 20.2.3.20210609
  Fortran compiler flags: -O3 -ip -fp-model precise
  C compiler            : /mpcdf/soft/SLE_15/packages/x86_64/intel/2021.3.0/bin/icc (Intel) version 20.2.3.20210609
  C compiler flags      : -O3 -ip -fp-model precise -std=gnu99
  CUDA compiler         : /mpcdf/soft/SLE_15/packages/x86_64/cuda/11.6.2/bin/nvcc
  CUDA compiler flags   : -O3 -DAdd_ -lcublas
  HIP compiler          :
  HIP compiler flags    :
  HIP GPU arch          :
  ELPA2 kernel          : AVX512
  Using MPI
  Using ScaLAPACK
  Using LibXC
  Using CUDA
  Using i-PI
  Using RLSY
  Linking against: /mpcdf/soft/SLE_15/packages/x86_64/cuda/11.6.2/lib64/libcublas.so
                   /mpcdf/soft/SLE_15/packages/x86_64/cuda/11.6.2/lib64/libcudart.so
                   /mpcdf/soft/SLE_15/packages/x86_64/intel_oneapi/2021.3/mkl/latest/lib/intel64/libmkl_intel_lp64.so
                   /mpcdf/soft/SLE_15/packages/x86_64/intel_oneapi/2021.3/mkl/latest/lib/intel64/libmkl_sequential.so
                   /mpcdf/soft/SLE_15/packages/x86_64/intel_oneapi/2021.3/mkl/latest/lib/intel64/libmkl_core.so
                   /mpcdf/soft/SLE_15/packages/x86_64/intel_oneapi/2021.3/mkl/latest/lib/intel64/libmkl_blacs_intelmpi_lp64.so
                   /mpcdf/soft/SLE_15/packages/x86_64/intel_oneapi/2021.3/mkl/latest/lib/intel64/libmkl_scalapack_lp64.so

  Using       18 parallel tasks.
  Task        0 on host adag037 reporting.
  Task        1 on host adag037 reporting.
  Task        2 on host adag037 reporting.
  Task        3 on host adag037 reporting.
  Task        4 on host adag037 reporting.
  Task        5 on host adag037 reporting.
  Task        6 on host adag037 reporting.
  Task        7 on host adag037 reporting.
  Task        8 on host adag037 reporting.
  Task        9 on host adag037 reporting.
  Task       10 on host adag037 reporting.
  Task       11 on host adag037 reporting.
  Task       12 on host adag037 reporting.
  Task       13 on host adag037 reporting.
  Task       14 on host adag037 reporting.
  Task       15 on host adag037 reporting.
  Task       16 on host adag037 reporting.
  Task       17 on host adag037 reporting.

  Obtaining array dimensions for all initial allocations:
  
  -----------------------------------------------------------------------
  Parsing control.in (first pass over file, find array dimensions only).
  The contents of control.in will be repeated verbatim below
  unless switched off by setting 'verbatim_writeout .false.' .
  in the first line of control.in .
  -----------------------------------------------------------------------
  
  #########################################################################################
  #
  #  Volker Blum, 2017 : Test run input file control.in for simple H2O
  #
  #########################################################################################
  #
  #  Physical model
  #
    xc                 pw-lda
    spin               none
    relativistic       none
    charge             0.
  
    use_gpu
  
    DFPT dielectric
    ri_density_restart write
    ri_rho1 write
  #  ri_density_restart read 0
  #  ri_rho1 read
    ri_full_output .true.
    sc_accuracy_rho    1d-6
  #  use_calculate_fock_matrix_old .false.
  #  wave_threshold 1e-8
    k_grid 1 1 1
  #  output cube eigenstate 160
  #  output cube eigenstate 161
    wave_threshold 1e-8
    default_prodbas_acc 1e-6
    default_max_l_prodbas 6
  #
  #  Relaxation
  #
  #  relax_geometry   bfgs 1.e-2
  #
  
  ################################################################################
  
  
  ################################################################################
  #
  #  FHI-aims code project
  #  VB, Fritz-Haber Institut, 2009
  #
  #  Suggested "light" defaults for H atom (to be pasted into control.in file)
  #  Be sure to double-check any results obtained with these settings for post-processing,
  #  e.g., with the "tight" defaults and larger basis sets.
  #
  ################################################################################
    species        H
  #     global species definitions
      nucleus             1
      mass                1.00794
  #
      l_hartree           4
  #
      cut_pot             3.5  1.5  1.0
      basis_dep_cutoff    1e-4
  #
      radial_base         24 5.0
      radial_multiplier   1
      angular_grids       specified
        division   0.2421   50
        division   0.3822  110
        division   0.4799  194
        division   0.5341  302
  #      division   0.5626  434
  #      division   0.5922  590
  #      division   0.6542  770
  #      division   0.6868 1202
  #      outer_grid  770
        outer_grid  302
  ################################################################################
  #
  #  Definition of "minimal" basis
  #
  ################################################################################
  #     valence basis states
      valence      1  s   1.
  #     ion occupancy
      ion_occ      1  s   0.5
  ################################################################################
  #
  #  Suggested additional basis functions. For production calculations,
  #  uncomment them one after another (the most important basis functions are
  #  listed first).
  #
  #  Basis constructed for dimers: 0.5 A, 0.7 A, 1.0 A, 1.5 A, 2.5 A
  #
  ################################################################################
  #  "First tier" - improvements: -1014.90 meV to -62.69 meV
       hydro 2 s 2.1
       hydro 2 p 3.5
  #  "Second tier" - improvements: -12.89 meV to -1.83 meV
  #     hydro 1 s 0.85
  #     hydro 2 p 3.7
  #     hydro 2 s 1.2
  #     hydro 3 d 7
  #  "Third tier" - improvements: -0.25 meV to -0.12 meV
  #     hydro 4 f 11.2
  #     hydro 3 p 4.8
  #     hydro 4 d 9
  #     hydro 3 s 3.2
  ################################################################################
  #
  #  FHI-aims code project
  #  VB, Fritz-Haber Institut, 2009
  #
  #  Suggested "light" defaults for O atom (to be pasted into control.in file)
  #  Be sure to double-check any results obtained with these settings for post-processing,
  #  e.g., with the "tight" defaults and larger basis sets.
  #
  ################################################################################
    species        O
  #     global species definitions
      nucleus             8
      mass                15.9994
  #
      l_hartree           4
  #
      cut_pot             3.5  1.5  1.0
      basis_dep_cutoff    1e-4
  #
      radial_base         36 5.0
      radial_multiplier   1
       angular_grids specified
        division   0.2659   50
        division   0.4451  110
        division   0.6052  194
        division   0.7543  302
  #      division   0.8014  434
  #      division   0.8507  590
  #      division   0.8762  770
  #      division   0.9023  974
  #      division   1.2339 1202
  #      outer_grid 974
        outer_grid 302
  ################################################################################
  #
  #  Definition of "minimal" basis
  #
  ################################################################################
  #     valence basis states
      valence      2  s   2.
      valence      2  p   4.
  #     ion occupancy
      ion_occ      2  s   1.
      ion_occ      2  p   3.
  ################################################################################
  #
  #  Suggested additional basis functions. For production calculations,
  #  uncomment them one after another (the most important basis functions are
  #  listed first).
  #
  #  Constructed for dimers: 1.0 A, 1.208 A, 1.5 A, 2.0 A, 3.0 A
  #
  ################################################################################
  #  "First tier" - improvements: -699.05 meV to -159.38 meV
       hydro 2 p 1.8
       hydro 3 d 7.6
       hydro 3 s 6.4
  #  "Second tier" - improvements: -49.91 meV to -5.39 meV
  #     hydro 4 f 11.6
  #     hydro 3 p 6.2
  #     hydro 3 d 5.6
  #     hydro 5 g 17.6
  #     hydro 1 s 0.75
  #  "Third tier" - improvements: -2.83 meV to -0.50 meV
  #     ionic 2 p auto
  #     hydro 4 f 10.8
  #     hydro 4 d 4.7
  #     hydro 2 s 6.8
  #  "Fourth tier" - improvements: -0.40 meV to -0.12 meV
  #     hydro 3 p 5
  #     hydro 3 s 3.3
  #     hydro 5 g 15.6
  #     hydro 4 f 17.6
  #     hydro 4 d 14
  # Further basis functions - -0.08 meV and below
  #     hydro 3 s 2.1
  #     hydro 4 d 11.6
  #     hydro 3 p 16
  #     hydro 2 s 17.2
  
  -----------------------------------------------------------------------
  Completed first pass over input file control.in .
  -----------------------------------------------------------------------
  
  
  -----------------------------------------------------------------------
  Parsing geometry.in (first pass over file, find array dimensions only).
  The contents of geometry.in will be repeated verbatim below
  unless switched off by setting 'verbatim_writeout .false.' .
  in the first line of geometry.in .
  -----------------------------------------------------------------------
  
  #=======================================================
  # FHI-aims file: /ada/ptmp/mpsd/alewis/bulk_water/qmdata/data/geoms/166.in
  # Created using the Atomic Simulation Environment (ASE)
  # Tue Feb 21 11:23:37 2023
  #=======================================================
  lattice_vector 9.8359699999999997 0.0000000000000000 0.0000000000000000
  lattice_vector 0.0000000000000000 9.8359699999999997 0.0000000000000000
  lattice_vector 0.0000000000000000 0.0000000000000000 9.8359699999999997
  atom 7.3943500000000002 4.6911600000000000 -7.4018100000000002 O
  atom 6.4738100000000003 4.4399300000000004 -7.5824600000000002 H
  atom 7.9895500000000004 4.0120199999999997 -7.2382499999999999 H
  atom 25.8441000000000010 19.4612000000000016 3.8415599999999999 O
  atom 25.6063000000000009 19.8532000000000011 4.6755800000000001 H
  atom 25.2319999999999993 18.7195000000000000 3.8033999999999999 H
  atom 8.7077799999999996 -9.4764900000000001 4.4524699999999999 O
  atom 7.7980499999999999 -9.5295900000000007 4.0332100000000004 H
  atom 8.8954900000000006 -10.4098000000000006 4.8201499999999999 H
  atom -1.2871400000000000 -4.6201100000000004 -0.7830430000000000 O
  atom -1.4168300000000000 -4.1095199999999998 -0.1071860000000000 H
  atom -0.9809230000000000 -5.4792600000000000 -0.3343180000000000 H
  atom -14.0332000000000008 4.3362800000000004 8.8735999999999997 O
  atom -13.0599000000000007 4.3261200000000004 8.9295000000000009 H
  atom -14.5311000000000003 4.3030299999999997 9.6800899999999999 H
  atom 2.5314299999999998 -2.4176799999999998 10.2982999999999993 O
  atom 2.4646699999999999 -3.3825699999999999 10.4209999999999994 H
  atom 3.4148800000000001 -2.0030700000000001 10.5541000000000000 H
  atom 2.5190899999999998 13.0809999999999995 5.6126100000000001 O
  atom 1.7059599999999999 13.4875000000000007 5.3958700000000004 H
  atom 2.2908700000000000 12.4951000000000008 6.3715599999999997 H
  atom 9.3128899999999994 2.8126000000000002 12.8953000000000007 O
  atom 9.5714799999999993 3.3596400000000002 13.6715999999999998 H
  atom 9.0801499999999997 1.9478800000000001 13.0120000000000005 H
  atom 5.1606199999999998 -9.0833300000000001 -13.4261999999999997 O
  atom 5.2740099999999996 -9.1295699999999993 -12.5469000000000008 H
  atom 4.8000999999999996 -8.2996999999999996 -13.7659000000000002 H
  atom 7.6494000000000000 -2.2810800000000002 1.2003999999999999 O
  atom 7.3892100000000003 -2.8264800000000001 2.0071599999999998 H
  atom 8.2276399999999992 -1.6041799999999999 1.7020100000000000 H
  atom 0.9902140000000000 16.7831000000000010 -16.8166000000000011 O
  atom 1.8166199999999999 17.0187999999999988 -16.4578999999999986 H
  atom 0.7534910000000000 17.2505999999999986 -17.7160000000000011 H
  atom -19.9445000000000014 -5.9400399999999998 15.1684000000000001 O
  atom -20.1396000000000015 -5.0426299999999999 15.3071000000000002 H
  atom -20.6022999999999996 -6.6529800000000003 15.7283000000000008 H
  atom 1.7921899999999999 2.1927400000000001 10.7203999999999997 O
  atom 1.2597400000000001 2.0590099999999998 11.5167999999999999 H
  atom 1.0355300000000001 2.0961200000000000 10.1318999999999999 H
  atom 0.8437140000000000 -0.6514320000000000 -1.0930700000000000 O
  atom 0.8586590000000000 -1.3910100000000001 -1.7024500000000000 H
  atom 1.4560200000000001 -0.7652679999999999 -0.2485540000000000 H
  atom -10.9342000000000006 1.9219999999999999 -12.5539000000000005 O
  atom -11.8468999999999998 1.8987400000000001 -12.9722000000000008 H
  atom -10.4242000000000008 0.9577909999999999 -12.8262999999999998 H
  atom 0.3277780000000000 16.4964000000000013 -2.6202800000000002 O
  atom -0.0429020000000000 16.1484999999999985 -1.6938599999999999 H
  atom 1.2422100000000000 16.4837999999999987 -2.3871799999999999 H
  atom -7.5021199999999997 11.2308000000000003 7.7390999999999996 O
  atom -6.8977000000000004 11.3340999999999994 8.3785100000000003 H
  atom -8.1621799999999993 10.6152999999999995 8.2418800000000001 H
  atom -4.5153400000000001 8.0993099999999991 9.5884300000000007 O
  atom -4.7582100000000001 7.3945400000000001 9.0323200000000003 H
  atom -3.7575599999999998 7.8188199999999997 10.1121999999999996 H
  atom 26.5283000000000015 4.1327900000000000 16.0491999999999990 O
  atom 26.2289999999999992 4.9180099999999998 15.6904000000000003 H
  atom 25.8956000000000017 4.0777700000000001 16.7946999999999989 H
  atom -28.2018999999999984 10.1493000000000002 3.4576099999999999 O
  atom -29.0670999999999999 10.3245000000000005 4.0420100000000003 H
  atom -27.5658999999999992 10.4915000000000003 4.0163700000000002 H
  atom -15.7927000000000000 -2.1320800000000002 13.7924000000000007 O
  atom -16.2335999999999991 -1.5094799999999999 14.4429999999999996 H
  atom -15.1312999999999995 -2.6609200000000000 14.3237000000000005 H
  atom -1.0672200000000001 22.2540000000000013 9.7448999999999995 O
  atom -1.4018800000000000 21.4715999999999987 10.4745000000000008 H
  atom -1.1286099999999999 21.8320000000000007 8.8989100000000008 H
  atom 5.3856299999999999 10.6168999999999993 -0.7555490000000000 O
  atom 5.2130999999999998 9.4329999999999998 -0.4911420000000000 H
  atom 5.8770699999999998 11.1327999999999996 -0.1442160000000000 H
  atom 6.5462699999999998 1.2827500000000001 11.5899000000000001 O
  atom 6.3979299999999997 0.6232900000000000 12.3064999999999998 H
  atom 5.7860500000000004 1.9185800000000000 11.7151999999999994 H
  atom -3.5517200000000000 -3.5292200000000000 4.6322400000000004 O
  atom -2.5704400000000001 -3.2502700000000000 4.7934000000000001 H
  atom -3.2846700000000002 -3.9263599999999999 3.7158600000000002 H
  atom 19.4920000000000009 -10.2739999999999991 1.5810299999999999 O
  atom 19.6537000000000006 -10.4885000000000002 0.7235980000000000 H
  atom 20.3268999999999984 -9.9287600000000005 1.8735200000000001 H
  atom 24.4299999999999997 13.0746000000000002 23.9948000000000015 O
  atom 23.5837000000000003 13.0983999999999998 24.3139000000000003 H
  atom 25.0014000000000003 13.7377000000000002 24.4295000000000009 H
  atom 24.1478999999999999 6.4192900000000002 17.1792000000000016 O
  atom 23.9576999999999991 5.6799099999999996 17.6661999999999999 H
  atom 24.7129000000000012 6.3822999999999999 16.4288999999999987 H
  atom 5.0117900000000004 3.5699500000000000 1.7997500000000000 O
  atom 4.0998400000000004 3.6863600000000001 1.4594000000000000 H
  atom 4.8823100000000004 3.4302600000000001 2.7961200000000002 H
  atom -10.5441000000000003 7.4936299999999996 -4.9736799999999999 O
  atom -9.9396400000000007 7.3753200000000003 -5.7221700000000002 H
  atom -10.0320000000000000 7.3183199999999999 -3.9726900000000001 H
  atom 12.2207000000000008 4.8105000000000002 1.8554500000000000 O
  atom 11.6588999999999992 5.3572300000000004 2.5510100000000002 H
  atom 11.8053000000000008 3.8483800000000001 1.5672500000000000 H
  atom 13.0015999999999998 8.4297199999999997 6.4970600000000003 O
  atom 12.9832999999999998 9.3559400000000004 6.9417600000000004 H
  atom 13.3515999999999995 7.7582199999999997 6.9866299999999999 H
  
  -----------------------------------------------------------------------
  Completed first pass over input file geometry.in .
  -----------------------------------------------------------------------
  

  Basic array size parameters:
  | Number of species                 :        2
  | Number of atoms                   :       96
  | Number of lattice vectors         :        3
  | Max. basis fn. angular momentum   :        2
  | Max. atomic/ionic basis occupied n:        2
  | Max. number of basis fn. types    :        2
  | Max. radial fns per species/type  :        3
  | Max. logarithmic grid size        :     1301
  | Max. radial integration grid size :       36
  | Max. angular integration grid size:      302
  | Max. angular grid division number :        8
  | Radial grid for Hartree potential :     1301
  | Number of spin channels           :        1

------------------------------------------------------------
          Reading file control.in.
------------------------------------------------------------
  XC: Using Perdew-Wang parametrisation of Ceperley-Alder LDA.
  Spin treatment: No spin polarisation.
  Non-relativistic treatment of kinetic energy.
  Charge =   0.000000E+00: Neutral system requested explicitly.
  DFPT calculation will begin after the DFT/HF calculation.
  Convergence accuracy of self-consistent charge density:  0.1000E-05
  Found k-point grid:         1         1         1
  Threshold value for wave function integration:  0.1000E-07
 
  Reading configuration options for species H                   .
  | Found nuclear charge :   1.0000
  | Found atomic mass :    1.00794000000000      amu
  | Found l_max for Hartree potential  :   4
  | Found cutoff potl. onset [A], width [A], scale factor :    3.50000    1.50000    1.00000
  | Threshold for basis-dependent cutoff potential is   0.100000E-03
  | Found data for basic radial integration grid :    24 points, outermost radius =    5.000 A
  | Found multiplier for basic radial grid :   1
  | Found angular grid specification: user-specified.
  | Specified grid contains     5 separate shells.
  | Check grid settings after all constraints further below.
  | Found free-atom valence shell :  1 s   1.000
  | No ionic wave fns used. Skipping ion_occ.
  | Found hydrogenic basis function :  2 s   2.100
  | Found hydrogenic basis function :  2 p   3.500
  Species H                   : Missing cutoff potential type.
  Defaulting to exp(1/x)/(1-x)^2 type cutoff potential.
  Species H : No 'logarithmic' tag. Using default grid for free atom:
  | Default logarithmic grid data [bohr] : 0.1000E-03 0.1000E+03 0.1012E+01
  Species H : On-site basis accuracy parameter (for Gram-Schmidt orthonormalisation) not specified.
  Using default value basis_acc =  0.1000000E-03.
  Species H                   : Using default innermost maximum threshold i_radial=  2 for radial functions.
  Species H                   : Default cutoff onset for free atom density etc. : 0.35000000E+01 AA.
  Species H                   : Basic radial grid will be enhanced according to radial_multiplier =   1, to contain    24 grid points.
 
  Reading configuration options for species O                   .
  | Found nuclear charge :   8.0000
  | Found atomic mass :    15.9994000000000      amu
  | Found l_max for Hartree potential  :   4
  | Found cutoff potl. onset [A], width [A], scale factor :    3.50000    1.50000    1.00000
  | Threshold for basis-dependent cutoff potential is   0.100000E-03
  | Found data for basic radial integration grid :    36 points, outermost radius =    5.000 A
  | Found multiplier for basic radial grid :   1
  | Found angular grid specification: user-specified.
  | Specified grid contains     5 separate shells.
  | Check grid settings after all constraints further below.
  | Found free-atom valence shell :  2 s   2.000
  | Found free-atom valence shell :  2 p   4.000
  | No ionic wave fns used. Skipping ion_occ.
  | No ionic wave fns used. Skipping ion_occ.
  | Found hydrogenic basis function :  2 p   1.800
  | Found hydrogenic basis function :  3 d   7.600
  | Found hydrogenic basis function :  3 s   6.400
  Species O                   : Missing cutoff potential type.
  Defaulting to exp(1/x)/(1-x)^2 type cutoff potential.
  Species O : No 'logarithmic' tag. Using default grid for free atom:
  | Default logarithmic grid data [bohr] : 0.1000E-03 0.1000E+03 0.1012E+01
  Species O : On-site basis accuracy parameter (for Gram-Schmidt orthonormalisation) not specified.
  Using default value basis_acc =  0.1000000E-03.
  Species O                   : Using default innermost maximum threshold i_radial=  2 for radial functions.
  Species O                   : Default cutoff onset for free atom density etc. : 0.35000000E+01 AA.
  Species O                   : Basic radial grid will be enhanced according to radial_multiplier =   1, to contain    36 grid points.
 
  Finished reading input file 'control.in'.
 
------------------------------------------------------------


------------------------------------------------------------
          Reading geometry description geometry.in.
------------------------------------------------------------
  | The smallest distance between any two atoms is         0.85691559 AA.
  | The first atom of this pair is atom number                     10 .
  | The second atom of this pair is atom number                    11 .
  | Wigner-Seitz cell of the first atom image           0     0     0 .
  | (The Wigner-Seitz cell of the second atom is 0 0 0  by definition.)

  Symmetry information by spglib:
  | Precision set to  0.1E-04
  | Number of Operations  : 1
  | Space group           : 1
  | International         : P1       F
  | Schoenflies           : C1^1
  Input structure read successfully.
  The structure contains       96 atoms,  and a total of        320.000 electrons.

  Input geometry:
  | Unit cell:
  |        9.83597000        0.00000000        0.00000000
  |        0.00000000        9.83597000        0.00000000
  |        0.00000000        0.00000000        9.83597000
  | Atomic structure:
  |       Atom                x [A]            y [A]            z [A]
  |    1: Species O             7.39435000        4.69116000       -7.40181000
  |    2: Species H             6.47381000        4.43993000       -7.58246000
  |    3: Species H             7.98955000        4.01202000       -7.23825000
  |    4: Species O            25.84410000       19.46120000        3.84156000
  |    5: Species H            25.60630000       19.85320000        4.67558000
  |    6: Species H            25.23200000       18.71950000        3.80340000
  |    7: Species O             8.70778000       -9.47649000        4.45247000
  |    8: Species H             7.79805000       -9.52959000        4.03321000
  |    9: Species H             8.89549000      -10.40980000        4.82015000
  |   10: Species O            -1.28714000       -4.62011000       -0.78304300
  |   11: Species H            -1.41683000       -4.10952000       -0.10718600
  |   12: Species H            -0.98092300       -5.47926000       -0.33431800
  |   13: Species O           -14.03320000        4.33628000        8.87360000
  |   14: Species H           -13.05990000        4.32612000        8.92950000
  |   15: Species H           -14.53110000        4.30303000        9.68009000
  |   16: Species O             2.53143000       -2.41768000       10.29830000
  |   17: Species H             2.46467000       -3.38257000       10.42100000
  |   18: Species H             3.41488000       -2.00307000       10.55410000
  |   19: Species O             2.51909000       13.08100000        5.61261000
  |   20: Species H             1.70596000       13.48750000        5.39587000
  |   21: Species H             2.29087000       12.49510000        6.37156000
  |   22: Species O             9.31289000        2.81260000       12.89530000
  |   23: Species H             9.57148000        3.35964000       13.67160000
  |   24: Species H             9.08015000        1.94788000       13.01200000
  |   25: Species O             5.16062000       -9.08333000      -13.42620000
  |   26: Species H             5.27401000       -9.12957000      -12.54690000
  |   27: Species H             4.80010000       -8.29970000      -13.76590000
  |   28: Species O             7.64940000       -2.28108000        1.20040000
  |   29: Species H             7.38921000       -2.82648000        2.00716000
  |   30: Species H             8.22764000       -1.60418000        1.70201000
  |   31: Species O             0.99021400       16.78310000      -16.81660000
  |   32: Species H             1.81662000       17.01880000      -16.45790000
  |   33: Species H             0.75349100       17.25060000      -17.71600000
  |   34: Species O           -19.94450000       -5.94004000       15.16840000
  |   35: Species H           -20.13960000       -5.04263000       15.30710000
  |   36: Species H           -20.60230000       -6.65298000       15.72830000
  |   37: Species O             1.79219000        2.19274000       10.72040000
  |   38: Species H             1.25974000        2.05901000       11.51680000
  |   39: Species H             1.03553000        2.09612000       10.13190000
  |   40: Species O             0.84371400       -0.65143200       -1.09307000
  |   41: Species H             0.85865900       -1.39101000       -1.70245000
  |   42: Species H             1.45602000       -0.76526800       -0.24855400
  |   43: Species O           -10.93420000        1.92200000      -12.55390000
  |   44: Species H           -11.84690000        1.89874000      -12.97220000
  |   45: Species H           -10.42420000        0.95779100      -12.82630000
  |   46: Species O             0.32777800       16.49640000       -2.62028000
  |   47: Species H            -0.04290200       16.14850000       -1.69386000
  |   48: Species H             1.24221000       16.48380000       -2.38718000
  |   49: Species O            -7.50212000       11.23080000        7.73910000
  |   50: Species H            -6.89770000       11.33410000        8.37851000
  |   51: Species H            -8.16218000       10.61530000        8.24188000
  |   52: Species O            -4.51534000        8.09931000        9.58843000
  |   53: Species H            -4.75821000        7.39454000        9.03232000
  |   54: Species H            -3.75756000        7.81882000       10.11220000
  |   55: Species O            26.52830000        4.13279000       16.04920000
  |   56: Species H            26.22900000        4.91801000       15.69040000
  |   57: Species H            25.89560000        4.07777000       16.79470000
  |   58: Species O           -28.20190000       10.14930000        3.45761000
  |   59: Species H           -29.06710000       10.32450000        4.04201000
  |   60: Species H           -27.56590000       10.49150000        4.01637000
  |   61: Species O           -15.79270000       -2.13208000       13.79240000
  |   62: Species H           -16.23360000       -1.50948000       14.44300000
  |   63: Species H           -15.13130000       -2.66092000       14.32370000
  |   64: Species O            -1.06722000       22.25400000        9.74490000
  |   65: Species H            -1.40188000       21.47160000       10.47450000
  |   66: Species H            -1.12861000       21.83200000        8.89891000
  |   67: Species O             5.38563000       10.61690000       -0.75554900
  |   68: Species H             5.21310000        9.43300000       -0.49114200
  |   69: Species H             5.87707000       11.13280000       -0.14421600
  |   70: Species O             6.54627000        1.28275000       11.58990000
  |   71: Species H             6.39793000        0.62329000       12.30650000
  |   72: Species H             5.78605000        1.91858000       11.71520000
  |   73: Species O            -3.55172000       -3.52922000        4.63224000
  |   74: Species H            -2.57044000       -3.25027000        4.79340000
  |   75: Species H            -3.28467000       -3.92636000        3.71586000
  |   76: Species O            19.49200000      -10.27400000        1.58103000
  |   77: Species H            19.65370000      -10.48850000        0.72359800
  |   78: Species H            20.32690000       -9.92876000        1.87352000
  |   79: Species O            24.43000000       13.07460000       23.99480000
  |   80: Species H            23.58370000       13.09840000       24.31390000
  |   81: Species H            25.00140000       13.73770000       24.42950000
  |   82: Species O            24.14790000        6.41929000       17.17920000
  |   83: Species H            23.95770000        5.67991000       17.66620000
  |   84: Species H            24.71290000        6.38230000       16.42890000
  |   85: Species O             5.01179000        3.56995000        1.79975000
  |   86: Species H             4.09984000        3.68636000        1.45940000
  |   87: Species H             4.88231000        3.43026000        2.79612000
  |   88: Species O           -10.54410000        7.49363000       -4.97368000
  |   89: Species H            -9.93964000        7.37532000       -5.72217000
  |   90: Species H           -10.03200000        7.31832000       -3.97269000
  |   91: Species O            12.22070000        4.81050000        1.85545000
  |   92: Species H            11.65890000        5.35723000        2.55101000
  |   93: Species H            11.80530000        3.84838000        1.56725000
  |   94: Species O            13.00160000        8.42972000        6.49706000
  |   95: Species H            12.98330000        9.35594000        6.94176000
  |   96: Species H            13.35160000        7.75822000        6.98663000

  Lattice parameters for 3D lattice (in Angstroms) :     9.835970    9.835970    9.835970
  Angle(s) between unit vectors (in degrees)       :    90.000000   90.000000   90.000000


  Quantities derived from the lattice vectors (in Angstrom^-1):
  | Reciprocal lattice vector 1:  0.638797  0.000000  0.000000
  | Reciprocal lattice vector 2:  0.000000  0.638797  0.000000
  | Reciprocal lattice vector 3:  0.000000  0.000000  0.638797
  | Unit cell volume                               :   0.951594E+03  Angstrom^3

  Fractional coordinates:
                         L1                L2                L3
       atom_frac         0.75176622        0.47693923       -0.75252466  O
       atom_frac         0.65817708        0.45139727       -0.77089092  H
       atom_frac         0.81227881        0.40789266       -0.73589590  H
       atom_frac         2.62750903        1.97857456        0.39056239  O
       atom_frac         2.60333246        2.01842828        0.47535525  H
       atom_frac         2.56527826        1.90316766        0.38668276  H
       atom_frac         0.88529957       -0.96345251        0.45267218  O
       atom_frac         0.79280945       -0.96885106        0.41004700  H
       atom_frac         0.90438360       -1.05833995        0.49005335  H
       atom_frac        -0.13086050       -0.46971575       -0.07961015  O
       atom_frac        -0.14404578       -0.41780526       -0.01089735  H
       atom_frac        -0.09972814       -0.55706351       -0.03398933  H
       atom_frac        -1.42672253        0.44085942        0.90215810  O
       atom_frac        -1.32776940        0.43982647        0.90784132  H
       atom_frac        -1.47734285        0.43747897        0.98415205  H
       atom_frac         0.25736455       -0.24579986        1.04700401  O
       atom_frac         0.25057722       -0.34389796        1.05947863  H
       atom_frac         0.34718284       -0.20364743        1.07301059  H
       atom_frac         0.25610997        1.32991459        0.57062089  O
       atom_frac         0.17344095        1.37124249        0.54858545  H
       atom_frac         0.23290738        1.27034751        0.64778156  H
       atom_frac         0.94681968        0.28595045        1.31103491  O
       atom_frac         0.97310992        0.34156672        1.38995951  H
       atom_frac         0.92315755        0.19803639        1.32289952  H
       atom_frac         0.52466813       -0.92348086       -1.36501026  O
       atom_frac         0.53619623       -0.92818197       -1.27561389  H
       atom_frac         0.48801491       -0.84381103       -1.39954677  H
       atom_frac         0.77769656       -0.23191205        0.12204185  O
       atom_frac         0.75124365       -0.28736159        0.20406325  H
       atom_frac         0.83648486       -0.16309322        0.17303936  H
       atom_frac         0.10067273        1.70629841       -1.70970428  O
       atom_frac         0.18469149        1.73026148       -1.67323609  H
       atom_frac         0.07660566        1.75382804       -1.80114417  H
       atom_frac        -2.02771054       -0.60390993        1.54213565  O
       atom_frac        -2.04754590       -0.51267236        1.55623695  H
       atom_frac        -2.09458752       -0.67639287        1.59905937  H
       atom_frac         0.18220775        0.22293073        1.08991792  O
       atom_frac         0.12807481        0.20933472        1.17088604  H
       atom_frac         0.10527991        0.21310760        1.03008651  H
       atom_frac         0.08577842       -0.06622956       -0.11112986  O
       atom_frac         0.08729785       -0.14142072       -0.17308410  H
       atom_frac         0.14803014       -0.07780300       -0.02526990  H
       atom_frac        -1.11165447        0.19540523       -1.27632557  O
       atom_frac        -1.20444654        0.19304044       -1.31885315  H
       atom_frac        -1.05980396        0.09737636       -1.30401984  H
       atom_frac         0.03332442        1.67715030       -0.26639772  O
       atom_frac        -0.00436175        1.64178012       -0.17221077  H
       atom_frac         0.12629258        1.67586928       -0.24269899  H
       atom_frac        -0.76272294        1.14180909        0.78681615  O
       atom_frac        -0.70127298        1.15231136        0.85182346  H
       atom_frac        -0.82982970        1.07923265        0.83793261  H
       atom_frac        -0.45906403        0.82343785        0.97483319  O
       atom_frac        -0.48375605        0.75178554        0.91829479  H
       atom_frac        -0.38202231        0.79492109        1.02808366  H
       atom_frac         2.69707004        0.42017107        1.63168452  O
       atom_frac         2.66664091        0.50000254        1.59520617  H
       atom_frac         2.63274491        0.41457731        1.70747776  H
       atom_frac        -2.86722103        1.03185553        0.35152710  O
       atom_frac        -2.95518388        1.04966770        0.41094168  H
       atom_frac        -2.80256040        1.06664620        0.40833492  H
       atom_frac        -1.60560677       -0.21676357        1.40224096  O
       atom_frac        -1.65043204       -0.15346529        1.46838593  H
       atom_frac        -1.53836378       -0.27052950        1.45625698  H
       atom_frac        -0.10850175        2.26251198        0.99074113  O
       atom_frac        -0.14252585        2.18296721        1.06491785  H
       atom_frac        -0.11474313        2.21960823        0.90473131  H
       atom_frac         0.54754437        1.07939532       -0.07681489  O
       atom_frac         0.53000365        0.95903099       -0.04993326  H
       atom_frac         0.59750792        1.13184566       -0.01466210  H
       atom_frac         0.66554392        0.13041418        1.17831795  O
       atom_frac         0.65046254        0.06336843        1.25117299  H
       atom_frac         0.58825413        0.19505753        1.19105691  H
       atom_frac        -0.36109504       -0.35880752        0.47094898  O
       atom_frac        -0.26133061       -0.33044733        0.48733374  H
       atom_frac        -0.33394469       -0.39918381        0.37778277  H
       atom_frac         1.98170592       -1.04453348        0.16073961  O
       atom_frac         1.99814558       -1.06634119        0.07356651  H
       atom_frac         2.06658825       -1.00943374        0.19047638  H
       atom_frac         2.48374080        1.32926392        2.43949504  O
       atom_frac         2.39769946        1.33168361        2.47193719  H
       atom_frac         2.54183370        1.39667974        2.48368997  H
       atom_frac         2.45506036        0.65263416        1.74656897  O
       atom_frac         2.43572317        0.57746313        1.79608112  H
       atom_frac         2.51250258        0.64887347        1.67028773  H
       atom_frac         0.50953693        0.36294844        0.18297636  O
       atom_frac         0.41682112        0.37478357        0.14837378  H
       atom_frac         0.49637301        0.34874649        0.28427496  H
       atom_frac        -1.07199392        0.76185979       -0.50566238  O
       atom_frac        -1.01053989        0.74983149       -0.58175960  H
       atom_frac        -1.01992991        0.74403643       -0.40389407  H
       atom_frac         1.24244991        0.48907225        0.18863925  O
       atom_frac         1.18533302        0.54465701        0.25935520  H
       atom_frac         1.20021716        0.39125577        0.15933863  H
       atom_frac         1.32184218        0.85702986        0.66054085  O
       atom_frac         1.31998166        0.95119648        0.70575246  H
       atom_frac         1.35742586        0.78876003        0.71031429  H

 
  Finished reading input file 'geometry.in'.
 

 
  Consistency checks for stacksize environment parameter are next.
 
  | Maximum stacksize for task 0: unlimited
  | Maximum stacksize for task 1: unlimited
  | Maximum stacksize for task 2: unlimited
  | Maximum stacksize for task 3: unlimited
  | Maximum stacksize for task 4: unlimited
  | Maximum stacksize for task 5: unlimited
  | Maximum stacksize for task 6: unlimited
  | Maximum stacksize for task 7: unlimited
  | Maximum stacksize for task 8: unlimited
  | Maximum stacksize for task 9: unlimited
  | Maximum stacksize for task 10: unlimited
  | Maximum stacksize for task 11: unlimited
  | Maximum stacksize for task 12: unlimited
  | Maximum stacksize for task 13: unlimited
  | Maximum stacksize for task 14: unlimited
  | Maximum stacksize for task 15: unlimited
  | Maximum stacksize for task 16: unlimited
  | Maximum stacksize for task 17: unlimited
  | Current stacksize for task 0: unlimited
  | Current stacksize for task 1: unlimited
  | Current stacksize for task 2: unlimited
  | Current stacksize for task 3: unlimited
  | Current stacksize for task 4: unlimited
  | Current stacksize for task 5: unlimited
  | Current stacksize for task 6: unlimited
  | Current stacksize for task 7: unlimited
  | Current stacksize for task 8: unlimited
  | Current stacksize for task 9: unlimited
  | Current stacksize for task 10: unlimited
  | Current stacksize for task 11: unlimited
  | Current stacksize for task 12: unlimited
  | Current stacksize for task 13: unlimited
  | Current stacksize for task 14: unlimited
  | Current stacksize for task 15: unlimited
  | Current stacksize for task 16: unlimited
  | Current stacksize for task 17: unlimited
 
  Consistency checks for the contents of control.in are next.
 
  MPI_IN_PLACE appears to work with this MPI implementation.
  | Keeping use_mpi_in_place .true. (see manual).
  Explicit treatment of the Coulomb operator is needed, but the RI method is not specified.
  Coulomb operator: Defaulting to 'LVL fast' resolution of identity - RI_type = LVL_fast
  Species H: Using default value for prodbas_acc =   1.000000E-06.
  Species H: Using default value max_l_prodbas =     6.
  Species O: Using default value for prodbas_acc =   1.000000E-06.
  Species O: Using default value max_l_prodbas =     6.
  Target number of points in a grid batch is not set.  Since GPU acceleration is enabled, defaulting to  200
  Method for grid partitioning is not set. Defaulting to parallel hash+maxmin partitioning.
  Batch size limit is not set. Defaulting to    200
  By default, will store active basis functions for each batch.
  If in need of memory, prune_basis_once .false. can be used to disable this option.
  communication_type for Hartree potential was not specified.
  Defaulting to calc_hartree .
  Defaulting to Pulay charge density mixer.
  Pulay mixer: Number of relevant iterations not set.
  Defaulting to    8 iterations.
  Pulay mixer: Number of initial linear mixing iterations not set.
  Defaulting to    0 iterations.
  Work space size for distributed Hartree potential not set.
  Defaulting to   0.200000E+03 MB.
  Mixing parameter for charge density mixing has not been set.
  Using default: charge_mix_param =     0.0500.
  The mixing parameter will be adjusted in iteration number     2 of the first full s.c.f. cycle only.
  Algorithm-dependent basis array size parameters:
  | n_max_pulay                         :        8
  Maximum number of self-consistency iterations not provided.
  Presetting  1000 iterations.
  Presetting      1001 iterations before the initial mixing cycle
  is restarted anyway using the sc_init_iter criterion / keyword.
  Presetting a factor      1.000 between actual scf density residual
  and density convergence criterion sc_accuracy_rho below which sc_init_iter
  takes no effect.
  Calculation of forces was not defined in control.in. No forces will be calculated.
  Geometry relaxation not requested: no relaxation will be performed.
  No accuracy limit for integral partition fn. given. Defaulting to  0.1000E-14.
  No occupation type (smearing scheme) given. Defaulting to Gaussian broadening, width =  0.1000E-01 eV.
  The width will be adjusted in iteration number     2 of the first full s.c.f. cycle only.
  S.C.F. convergence parameters will be adjusted in iteration number     2 of the first full s.c.f. cycle only.
  No accuracy for occupation numbers given. Defaulting to  0.1000E-12.
  No threshold value for occupation numbers given. Defaulting to  0.0000E+00.
  No accuracy for fermi level given. Defaulting to  0.1000E-19.
  Maximum # of iterations to find E_F not set. Defaulting to  200.
  Preferred method for the eigenvalue solver ('KS_method') not specified in 'control.in'.
  Calling BLACS routine to test compilation state
  Since ScaLAPACK support is enabled, defaulting to ELPA (via ELSI).
  Will not use alltoall communication since running on < 1024 CPUs.
  Threshold for basis singularities not set.
  Default threshold for basis singularities:  0.1000E-04
  partition_type (choice of integration weights) for integrals was not specified.
  | Using a version of the partition function of Stratmann and coworkers ('stratmann_sparse').
  | At each grid point, the set of atoms used to build the partition table is smoothly restricted to
  | only those atoms whose free-atom density would be non-zero at that grid point.
  Partitioning for Hartree potential was not defined. Using partition_type for integrals.
  | Adjusted default value of keyword multip_moments_threshold to:       0.10000000E-11
  | This value may affect high angular momentum components of the Hartree potential in periodic systems.
  Angular momentum expansion for Kerker preconditioner not set explicitly.
  | Using default value of   0
  No explicit requirement for turning off preconditioner.
  | By default, it will be turned off when the charge convergence reaches
  | sc_accuracy_rho  =   0.100000E-05
  No special mixing parameter while Kerker preconditioner is on.
  Using default: charge_mix_param =     0.0500.
  Threshold for auxiliary basis singularities not set.
  Default threshold for auxiliary basis singularities:  0.1000E-04
  No q(lm)/r^(l+1) cutoff set for long-range Hartree potential.
  | Using default value of  0.100000E-09 .
  | Verify using the multipole_threshold keyword.
  Defaulting to new monopole extrapolation.
  Density update method: automatic selection selected.
  Using density matrix based charge density update.
  Using density matrix based charge density update.
  Using packed matrix style: index .
  Defaulting to use time-reversal symmetry for k-point grid.
  Charge integration errors on the 3D integration grid will be compensated
  by explicit normalization and distribution of residual charges.
  Use the "compensate_multipole_errors" flag to change this behaviour.
  Default to 1D ("use_logsbt") integrations for auxiliary 2-center integrals.
  Default onset of logarithmic r-grid for SBT is -38.000000000000
  Default onset of logarithmic k-grid for SBT is -25.000000000000
  Default range of logarithmic r- and k-grid for SBT is  45.000000000000
  Default number of logarithmic r- and k-grid for SBT is   4096
  Default of use_2d_corr is to use the efficient 2D distribution where possible
 
  Consistency checks for the contents of geometry.in are next.
 

  Range separation radius for Ewald summation (hartree_convergence_parameter):      2.96542633 bohr.
  Number of empty states per atom not set in control.in .
  | Since you are using a method that relies on the unoccupied spectrum
  | (MP2,GW,RPA et al.), will use the full Hamiltonian size (see below)
  | as the max. possible number of states (occupied plus empty).

  Structure-dependent array size parameters: 
  | Maximum number of distinct radial functions  :        9
  | Maximum number of basis functions            :      768
  | Number of Kohn-Sham states (occupied + empty):      768
------------------------------------------------------------

  Performing system and environment tests:
  | Environment variable OMP_NUM_THREADS correctly set to 1.
  | Checking for ScaLAPACK...
  | Testing pdtran()...
  | All pdtran() tests passed.
CUDA runtime version: 11060
CUDA driver version: 11060
  Initializing GPUs...

  Number of GPUs available to MPI task         0 :   1
  Number of GPUs available to MPI task         1 :   1
  Number of GPUs available to MPI task         2 :   1
  Number of GPUs available to MPI task         3 :   1
  Number of GPUs available to MPI task         4 :   1
  Number of GPUs available to MPI task         5 :   1
  Number of GPUs available to MPI task         6 :   1
  Number of GPUs available to MPI task         7 :   1
  Number of GPUs available to MPI task         8 :   1
  Number of GPUs available to MPI task         9 :   1
  Number of GPUs available to MPI task        10 :   1
  Number of GPUs available to MPI task        11 :   1
  Number of GPUs available to MPI task        12 :   1
  Number of GPUs available to MPI task        13 :   1
  Number of GPUs available to MPI task        14 :   1
  Number of GPUs available to MPI task        15 :   1
  Number of GPUs available to MPI task        16 :   1
  Number of GPUs available to MPI task        17 :   1

  | MPI task         0, GPU activated = T, Device Name = NVIDIA A100-SXM4-80GB
  | MPI task         1, GPU activated = T, Device Name = NVIDIA A100-SXM4-80GB
  | MPI task         2, GPU activated = T, Device Name = NVIDIA A100-SXM4-80GB
  | MPI task         3, GPU activated = T, Device Name = NVIDIA A100-SXM4-80GB
  | MPI task         4, GPU activated = T, Device Name = NVIDIA A100-SXM4-80GB
  | MPI task         5, GPU activated = T, Device Name = NVIDIA A100-SXM4-80GB
  | MPI task         6, GPU activated = T, Device Name = NVIDIA A100-SXM4-80GB
  | MPI task         7, GPU activated = T, Device Name = NVIDIA A100-SXM4-80GB
  | MPI task         8, GPU activated = T, Device Name = NVIDIA A100-SXM4-80GB
  | MPI task         9, GPU activated = T, Device Name = NVIDIA A100-SXM4-80GB
  | MPI task        10, GPU activated = T, Device Name = NVIDIA A100-SXM4-80GB
  | MPI task        11, GPU activated = T, Device Name = NVIDIA A100-SXM4-80GB
  | MPI task        12, GPU activated = T, Device Name = NVIDIA A100-SXM4-80GB
  | MPI task        13, GPU activated = T, Device Name = NVIDIA A100-SXM4-80GB
  | MPI task        14, GPU activated = T, Device Name = NVIDIA A100-SXM4-80GB
  | MPI task        15, GPU activated = T, Device Name = NVIDIA A100-SXM4-80GB
  | MPI task        16, GPU activated = T, Device Name = NVIDIA A100-SXM4-80GB
  | MPI task        17, GPU activated = T, Device Name = NVIDIA A100-SXM4-80GB

------------------------------------------------------------
          Preparing all fixed parts of the calculation.
------------------------------------------------------------
  Determining machine precision:
    2.225073858507201E-308
  Setting up grids for atomic and cluster calculations.

  Creating wave function, potential, and density for free atoms.
  Runtime choices for atomic solver:
  | atomic solver xc        : PW-LDA
  | compute density gradient: 0
  | compute kinetic density : F

  Species: H

  List of occupied orbitals and eigenvalues:
    n    l              occ      energy [Ha]    energy [eV]
    1    0           1.0000        -0.232375        -6.3233


  Species: O

  List of occupied orbitals and eigenvalues:
    n    l              occ      energy [Ha]    energy [eV]
    1    0           2.0000       -18.757744      -510.4242
    2    0           2.0000        -0.870917       -23.6989
    2    1           4.0000        -0.337950        -9.1961


  Adding cutoff potential to free-atom effective potential.
  Creating fixed part of basis set: Ionic, confined, hydrogenic.
 
  H                    hydrogenic:
 
  List of hydrogenic basis orbitals: 
    n    l      effective z      eigenvalue [eV]  inner max. [A]     outer max. [A]     outer radius [A]   
    2    0         2.100000       -14.9728           0.193243           1.317208           4.696947
    2    1         3.500000       -41.6669           0.602369           0.602369           3.862494
 
 
  O                    hydrogenic:
 
  List of hydrogenic basis orbitals: 
    n    l      effective z      eigenvalue [eV]  inner max. [A]     outer max. [A]     outer radius [A]   
    2    1         1.800000       -10.9749           1.164242           1.164242           4.691341
    3    2         7.600000       -87.3180           0.624125           0.624125           3.413946
    3    0         6.400000       -61.9207           0.061167           1.081902           4.151495
 
  Creating atomic-like basis functions for current effective potential.

  Species H                   :

  List of atomic basis orbitals and eigenvalues:
    n    l      energy [Ha]    energy [eV]    outer radius [A]
    1    0        -0.232375        -6.3233       4.696947


  Species O                   :

  List of atomic basis orbitals and eigenvalues:
    n    l      energy [Ha]    energy [eV]    outer radius [A]
    1    0       -18.757744      -510.4242       1.830144
    2    0        -0.870917       -23.6989       4.578029
    2    1        -0.337950        -9.1961       4.634338

  Assembling full basis from fixed parts.
  | Species H :   atomic orbital   1 s accepted.
  | Species H :    hydro orbital   2 s accepted.
  | Species H :    hydro orbital   2 p accepted.
  | Species O :   atomic orbital   1 s accepted.
  | Species O :    hydro orbital   3 s accepted.
  | Species O :   atomic orbital   2 s accepted.
  | Species O :   atomic orbital   2 p accepted.
  | Species O :    hydro orbital   2 p accepted.
  | Species O :    hydro orbital   3 d accepted.
 
  Basis size parameters after reduction:
  | Total number of radial functions:        9
  | Total number of basis functions :      768
 
  Per-task memory consumption for arrays in subroutine allocate_ext:
  |           2.268304MB.
  Testing on-site integration grid accuracy.
  |  Species  Function  <phi|h_atom|phi> (log., in eV)  <phi|h_atom|phi> (rad., in eV)
           1        1                 -6.3245358373                 -6.3232436907
           1        2                 14.1326137532                 14.1384481100
           1        3                 25.3627025200                 25.3628451197
           2        4               -510.4241781764               -510.4240769407
           2        5                 14.9072942213                 14.9072945271
           2        6                -21.2004736474                -21.2005650551
           2        7                 -9.1962086505                 -9.1963509834
           2        8                  8.1896755006                  8.1702200081
           2        9                 45.7920584937                 45.7920228520

  Preparing densities etc. for the partition functions (integrals / Hartree potential).

  Preparations completed.
  max(cpu_time)          :      0.070 s.
  Wall clock time (cpu1) :      0.067 s.
------------------------------------------------------------

  Initializing index lists of integration centers etc. from given atomic structure:
  Mapping all atomic coordinates to central unit cell.

  Initializing the k-points
  Using symmetry for reducing the k-points
  | k-points reduced from:        1 to        1
  | Number of k-points                             :         1
  | Consuming          0 KiB for k_phase_exx.
  The eigenvectors in the calculations are REAL.
  | Number of basis functions in the Hamiltonian integrals :      4434
  | Number of basis functions in a single unit cell        :       768
  | Number of centers in hartree potential         :      2659
  | Number of centers in hartree multipole         :      1957
  | Number of centers in electron density summation:      1507
  | Number of centers in basis integrals           :      1624
  | Number of centers in integrals                 :       690
  | Number of centers in hamiltonian               :      1507
  | Consuming          0 KiB for k_phase.
  | Number of super-cells (origin) [n_cells]                     :         125
  | Number of super-cells (after PM_index) [n_cells]             :          28
  | Number of super-cells in hamiltonian [n_cells_in_hamiltonian]:          28
  | Size of matrix packed + index [n_hamiltonian_matrix_size] :      797971
  | Size of matrix packed + index (no_symmetry):     1595173

------------------------------------------------------------
          Begin self-consistency loop: Initialization.

          Date     :  20230221, Time     :  145005.615
------------------------------------------------------------
  | Estimated reciprocal-space cutoff momentum G_max:         3.18880026 bohr^-1 .
  | Reciprocal lattice points for long-range Hartree potential:    3430
  Using simple linear distribution as default method for k-point parallelism.
  * Using 18 tasks for Scalapack Eigenvalue solver.
  Detailed listing of tasks and assigned k-points:
   Task     0 k-point     1 on adag037
   Task     1 k-point     1 on adag037
   Task     2 k-point     1 on adag037
   Task     3 k-point     1 on adag037
   Task     4 k-point     1 on adag037
   Task     5 k-point     1 on adag037
   Task     6 k-point     1 on adag037
   Task     7 k-point     1 on adag037
   Task     8 k-point     1 on adag037
   Task     9 k-point     1 on adag037
   Task    10 k-point     1 on adag037
   Task    11 k-point     1 on adag037
   Task    12 k-point     1 on adag037
   Task    13 k-point     1 on adag037
   Task    14 k-point     1 on adag037
   Task    15 k-point     1 on adag037
   Task    16 k-point     1 on adag037
   Task    17 k-point     1 on adag037
  K-point:     1 Tasks:    18 split into      6 X      3 BLACS grid
  Calculating block size based on n_basis =          768  max_nprow =            6  max_npcol =            3
  ScaLAPACK block size set to:           16
  Allocating        0.250 MB for ovlp
  Allocating        0.250 MB for ham
  Allocating        0.250 MB for eigenvec
  Required Scalapack workspace - INTEGER:            1  REAL:             1
  Partitioning the integration grid into batches with parallel hashing+maxmin method.
  | Number of batches:     3918
  | Maximal batch size:     200
  | Minimal batch size:      99
  | Average batch size:     130.058
  | Standard deviation of batch sizes:      28.767

  Integration load balanced across    18 MPI tasks.
  Work distribution over tasks is as follows:
  Task     0 has      28297 integration points.
  Task     1 has      28339 integration points.
  Task     2 has      28281 integration points.
  Task     3 has      28322 integration points.
  Task     4 has      28354 integration points.
  Task     5 has      28318 integration points.
  Task     6 has      28329 integration points.
  Task     7 has      28297 integration points.
  Task     8 has      28307 integration points.
  Task     9 has      28346 integration points.
  Task    10 has      28340 integration points.
  Task    11 has      28247 integration points.
  Task    12 has      28263 integration points.
  Task    13 has      28346 integration points.
  Task    14 has      28305 integration points.
  Task    15 has      28267 integration points.
  Task    16 has      28327 integration points.
  Task    17 has      28283 integration points.
  Initializing partition tables, free-atom densities, potentials, etc. across the integration grid (initialize_grid_storage).
  | initialize_grid_storage: Actual outermost partition radius vs. multipole_radius_free
  | (-- VB: in principle, multipole_radius_free should be larger, hence this output)
  | Species        1: Confinement radius =              4.999999999999999 AA, multipole_radius_free =              5.054417573612229 AA.
  | Species        1: outer_partition_radius set to              5.054417573612229 AA .
  | Species        2: Confinement radius =              4.999999999999999 AA, multipole_radius_free =              5.048384829883283 AA.
  | Species        2: outer_partition_radius set to              5.048384829883283 AA .
  | The sparse table of interatomic distances needs       5486.11 kbyte instead of     21099.01 kbyte of memory.
  | Net number of integration points:   509568
  | of which are non-zero points    :   406378
  | Numerical average free-atom electrostatic potential    :     -5.47638827 eV
  Renormalizing the initial density to the exact electron count on the 3D integration grid.
  | Initial density: Formal number of electrons (from input files) :     320.0000000000
  | Integrated number of electrons on 3D grid     :     319.9989626965
  | Charge integration error                      :      -0.0010373035
  | Normalization factor for density and gradient :       1.0000032416
  Renormalizing the free-atom superposition density to the exact electron count on the 3D integration grid.
  | Formal number of electrons (from input files) :     320.0000000000
  | Integrated number of electrons on 3D grid     :     319.9989626965
  | Charge integration error                      :      -0.0010373035
  | Normalization factor for density and gradient :       1.0000032416
  Obtaining max. number of non-zero basis functions in each batch (get_n_compute_maxes).
  | Maximal number of non-zero basis functions:      432 in task     0
  | Maximal number of non-zero basis functions:      433 in task     1
  | Maximal number of non-zero basis functions:      452 in task     2
  | Maximal number of non-zero basis functions:      424 in task     3
  | Maximal number of non-zero basis functions:      447 in task     4
  | Maximal number of non-zero basis functions:      442 in task     5
  | Maximal number of non-zero basis functions:      419 in task     6
  | Maximal number of non-zero basis functions:      439 in task     7
  | Maximal number of non-zero basis functions:      439 in task     8
  | Maximal number of non-zero basis functions:      443 in task     9
  | Maximal number of non-zero basis functions:      442 in task    10
  | Maximal number of non-zero basis functions:      440 in task    11
  | Maximal number of non-zero basis functions:      431 in task    12
  | Maximal number of non-zero basis functions:      430 in task    13
  | Maximal number of non-zero basis functions:      439 in task    14
  | Maximal number of non-zero basis functions:      451 in task    15
  | Maximal number of non-zero basis functions:      422 in task    16
  | Maximal number of non-zero basis functions:      444 in task    17
  Integrating Hamiltonian matrix: batch-based integration.
  GPU acceleration will be used when integrating the Hamiltonian matrix.
  Reporting GPU memory usage by myid 0.  Note that it is likely not the only MPI task binding to its GPU!
  Allocating        1.493 MB on GPU for hamiltonian_shell
  Allocating        0.691 MB on GPU for wave
  Allocating        0.002 MB on GPU for partition
  Allocating        0.691 MB on GPU for h_times_psi
  Time summed over all CPUs for integration: real work       11.159 s, elapsed       12.302 s
  Deallocating memory used on GPU for Hamiltonian integration.
  Integrating overlap matrix.
  Time summed over all CPUs for integration: real work        9.384 s, elapsed        9.561 s
  Deallocating overlap matrix.

  Updating Kohn-Sham eigenvalues and eigenvectors using ELSI and the ELPA eigensolver.
  Singularity check in k-point 1 (analysis for other k-points may follow below):
  Overlap matrix is not singular
  | Lowest and highest eigenvalues :  0.2153E-02,  0.7400E+01
  Finished singularity check of overlap matrix
  | Time :     0.167 s
  Starting ELPA eigensolver (GPU)
  Finished Cholesky decomposition
  | Time :     0.007 s
  Finished transformation to standard eigenproblem
  | Time :     0.027 s
  Finished solving standard eigenproblem
  | Time :     0.198 s
  Finished back-transformation of eigenvectors
  | Time :     0.019 s

  Obtaining occupation numbers and electronic chemical potential using ELSI.
  | Note that, for insulating systems, the printed 'chemical potential' value is not uniquely defined.
  | It can be anywhere in the energy gap, as long as it correctly separates occupied and unoccupied states.
  | In systems with a gap, the physically relevant chemical potential is the VBM or HOMO.

  | Chemical potential (Fermi level):    -9.24504325 eV
  Writing Kohn-Sham eigenvalues.

  State    Occupation    Eigenvalue [Ha]    Eigenvalue [eV]
      1       2.00000         -18.902092         -514.35210
      2       2.00000         -18.897075         -514.21557
      3       2.00000         -18.894804         -514.15377
      4       2.00000         -18.894651         -514.14961
      5       2.00000         -18.893197         -514.11006
      6       2.00000         -18.891355         -514.05993
      7       2.00000         -18.885764         -513.90778
      8       2.00000         -18.884772         -513.88080
      9       2.00000         -18.883568         -513.84803
     10       2.00000         -18.882692         -513.82420
     11       2.00000         -18.881799         -513.79988
     12       2.00000         -18.878626         -513.71355
     13       2.00000         -18.877455         -513.68169
     14       2.00000         -18.875403         -513.62584
     15       2.00000         -18.874721         -513.60728
     16       2.00000         -18.872225         -513.53936
     17       2.00000         -18.871241         -513.51260
     18       2.00000         -18.867380         -513.40752
     19       2.00000         -18.866451         -513.38226
     20       2.00000         -18.863348         -513.29780
     21       2.00000         -18.863143         -513.29225
     22       2.00000         -18.863107         -513.29126
     23       2.00000         -18.862768         -513.28204
     24       2.00000         -18.860784         -513.22803
     25       2.00000         -18.859251         -513.18632
     26       2.00000         -18.855611         -513.08729
     27       2.00000         -18.854702         -513.06254
     28       2.00000         -18.851191         -512.96701
     29       2.00000         -18.848612         -512.89684
     30       2.00000         -18.845257         -512.80553
     31       2.00000         -18.844673         -512.78966
     32       2.00000         -18.838579         -512.62382
     33       2.00000          -1.144361          -31.13966
     34       2.00000          -1.142974          -31.10192
     35       2.00000          -1.140070          -31.02287
     36       2.00000          -1.136175          -30.91690
     37       2.00000          -1.134142          -30.86158
     38       2.00000          -1.130371          -30.75896
     39       2.00000          -1.125677          -30.63124
     40       2.00000          -1.124770          -30.60655
     41       2.00000          -1.123474          -30.57129
     42       2.00000          -1.122742          -30.55136
     43       2.00000          -1.114081          -30.31568
     44       2.00000          -1.113116          -30.28944
     45       2.00000          -1.108205          -30.15580
     46       2.00000          -1.104089          -30.04378
     47       2.00000          -1.103140          -30.01797
     48       2.00000          -1.100148          -29.93655
     49       2.00000          -1.099637          -29.92264
     50       2.00000          -1.096619          -29.84053
     51       2.00000          -1.092419          -29.72622
     52       2.00000          -1.083324          -29.47875
     53       2.00000          -1.082803          -29.46458
     54       2.00000          -1.080232          -29.39460
     55       2.00000          -1.079775          -29.38217
     56       2.00000          -1.078823          -29.35627
     57       2.00000          -1.077294          -29.31465
     58       2.00000          -1.075575          -29.26788
     59       2.00000          -1.073083          -29.20008
     60       2.00000          -1.069920          -29.11401
     61       2.00000          -1.055657          -28.72588
     62       2.00000          -1.050691          -28.59076
     63       2.00000          -1.050474          -28.58484
     64       2.00000          -1.037812          -28.24031
     65       2.00000          -0.713025          -19.40241
     66       2.00000          -0.710720          -19.33968
     67       2.00000          -0.700486          -19.06120
     68       2.00000          -0.690843          -18.79880
     69       2.00000          -0.689532          -18.76311
     70       2.00000          -0.684818          -18.63486
     71       2.00000          -0.679802          -18.49835
     72       2.00000          -0.678248          -18.45606
     73       2.00000          -0.671205          -18.26441
     74       2.00000          -0.665117          -18.09877
     75       2.00000          -0.663505          -18.05489
     76       2.00000          -0.656576          -17.86634
     77       2.00000          -0.653913          -17.79387
     78       2.00000          -0.652306          -17.75015
     79       2.00000          -0.650869          -17.71105
     80       2.00000          -0.647339          -17.61499
     81       2.00000          -0.646072          -17.58052
     82       2.00000          -0.642612          -17.48637
     83       2.00000          -0.640100          -17.41799
     84       2.00000          -0.639529          -17.40248
     85       2.00000          -0.636185          -17.31146
     86       2.00000          -0.632256          -17.20456
     87       2.00000          -0.629432          -17.12773
     88       2.00000          -0.629032          -17.11684
     89       2.00000          -0.627299          -17.06968
     90       2.00000          -0.618423          -16.82814
     91       2.00000          -0.615758          -16.75564
     92       2.00000          -0.613385          -16.69105
     93       2.00000          -0.606235          -16.49649
     94       2.00000          -0.605445          -16.47500
     95       2.00000          -0.595311          -16.19924
     96       2.00000          -0.583529          -15.87862
     97       2.00000          -0.569923          -15.50839
     98       2.00000          -0.563613          -15.33668
     99       2.00000          -0.561518          -15.27968
    100       2.00000          -0.557982          -15.18346
    101       2.00000          -0.556313          -15.13804
    102       2.00000          -0.554364          -15.08501
    103       2.00000          -0.550125          -14.96966
    104       2.00000          -0.546036          -14.85840
    105       2.00000          -0.544811          -14.82507
    106       2.00000          -0.543426          -14.78738
    107       2.00000          -0.541217          -14.72726
    108       2.00000          -0.537743          -14.63274
    109       2.00000          -0.533474          -14.51658
    110       2.00000          -0.531470          -14.46203
    111       2.00000          -0.529320          -14.40353
    112       2.00000          -0.525256          -14.29294
    113       2.00000          -0.521837          -14.19990
    114       2.00000          -0.520248          -14.15668
    115       2.00000          -0.517831          -14.09090
    116       2.00000          -0.515868          -14.03747
    117       2.00000          -0.513986          -13.98627
    118       2.00000          -0.510256          -13.88476
    119       2.00000          -0.509232          -13.85690
    120       2.00000          -0.505261          -13.74886
    121       2.00000          -0.503205          -13.69291
    122       2.00000          -0.499613          -13.59517
    123       2.00000          -0.495408          -13.48075
    124       2.00000          -0.494414          -13.45369
    125       2.00000          -0.492182          -13.39297
    126       2.00000          -0.488370          -13.28921
    127       2.00000          -0.484786          -13.19171
    128       2.00000          -0.480467          -13.07419
    129       2.00000          -0.479883          -13.05827
    130       2.00000          -0.477193          -12.98508
    131       2.00000          -0.475970          -12.95181
    132       2.00000          -0.473852          -12.89418
    133       2.00000          -0.472450          -12.85601
    134       2.00000          -0.471717          -12.83608
    135       2.00000          -0.467314          -12.71625
    136       2.00000          -0.465968          -12.67962
    137       2.00000          -0.464236          -12.63250
    138       2.00000          -0.463298          -12.60697
    139       2.00000          -0.460976          -12.54379
    140       2.00000          -0.460830          -12.53983
    141       2.00000          -0.459331          -12.49903
    142       2.00000          -0.458654          -12.48061
    143       2.00000          -0.457131          -12.43916
    144       2.00000          -0.455506          -12.39494
    145       2.00000          -0.454185          -12.35900
    146       2.00000          -0.452590          -12.31561
    147       2.00000          -0.452094          -12.30211
    148       2.00000          -0.450953          -12.27106
    149       2.00000          -0.450407          -12.25619
    150       2.00000          -0.448696          -12.20964
    151       2.00000          -0.446916          -12.16121
    152       2.00000          -0.444241          -12.08841
    153       2.00000          -0.443141          -12.05848
    154       2.00000          -0.441675          -12.01858
    155       2.00000          -0.441536          -12.01481
    156       2.00000          -0.440977          -11.99958
    157       2.00000          -0.438821          -11.94093
    158       2.00000          -0.437597          -11.90762
    159       2.00000          -0.428858          -11.66982
    160       2.00000          -0.427124          -11.62264
    161       0.00000          -0.176152           -4.79334
    162       0.00000          -0.122639           -3.33717
    163       0.00000          -0.116917           -3.18147
    164       0.00000          -0.110186           -2.99832
    165       0.00000          -0.107880           -2.93556
    166       0.00000          -0.100876           -2.74499
    167       0.00000          -0.097516           -2.65354
    168       0.00000          -0.075916           -2.06579
    169       0.00000          -0.073816           -2.00864
    170       0.00000          -0.066291           -1.80388
    171       0.00000          -0.063378           -1.72460
    172       0.00000          -0.056205           -1.52941
    173       0.00000          -0.054906           -1.49406
    174       0.00000          -0.051449           -1.39999
    175       0.00000          -0.046238           -1.25820
    176       0.00000          -0.042393           -1.15356
    177       0.00000          -0.037226           -1.01297
    178       0.00000          -0.030664           -0.83441
    179       0.00000          -0.026157           -0.71178
    180       0.00000          -0.020356           -0.55391
    181       0.00000          -0.016806           -0.45733
    182       0.00000          -0.006737           -0.18332
    183       0.00000          -0.005194           -0.14133
    184       0.00000          -0.002855           -0.07768
    185       0.00000           0.002489            0.06772
    186       0.00000           0.011266            0.30657
    187       0.00000           0.013254            0.36067
    188       0.00000           0.018208            0.49546
    189       0.00000           0.023409            0.63700
    190       0.00000           0.029899            0.81360
    191       0.00000           0.031508            0.85737
    192       0.00000           0.035890            0.97661
    193       0.00000           0.037190            1.01199
    194       0.00000           0.042139            1.14667
    195       0.00000           0.045542            1.23925
    196       0.00000           0.047833            1.30160
    197       0.00000           0.051505            1.40153
    198       0.00000           0.057439            1.56299
    199       0.00000           0.059277            1.61302
    200       0.00000           0.063281            1.72196
    201       0.00000           0.067124            1.82653
    202       0.00000           0.070911            1.92958
    203       0.00000           0.074681            2.03217
    204       0.00000           0.075664            2.05893
    205       0.00000           0.078438            2.13441
    206       0.00000           0.080908            2.20163
    207       0.00000           0.081390            2.21473
    208       0.00000           0.085000            2.31297
    209       0.00000           0.085608            2.32951
    210       0.00000           0.087271            2.37476
    211       0.00000           0.090533            2.46354
    212       0.00000           0.093165            2.53516
    213       0.00000           0.094308            2.56625
    214       0.00000           0.098797            2.68840
    215       0.00000           0.101569            2.76383
    216       0.00000           0.105927            2.88243
    217       0.00000           0.107492            2.92501
    218       0.00000           0.113500            3.08850
    219       0.00000           0.117717            3.20325
    220       0.00000           0.122569            3.33527
    221       0.00000           0.123952            3.37291
    222       0.00000           0.126864            3.45214
    223       0.00000           0.132794            3.61351
    224       0.00000           0.140019            3.81010
    225       0.00000           0.146839            3.99569
    226       0.00000           0.150962            4.10789
    227       0.00000           0.152844            4.15909
    228       0.00000           0.162682            4.42679
    229       0.00000           0.164341            4.47195
    230       0.00000           0.172893            4.70465
    231       0.00000           0.186526            5.07564
    232       0.00000           0.189458            5.15541
    233       0.00000           0.192346            5.23399
    234       0.00000           0.194739            5.29912
    235       0.00000           0.196582            5.34928
    236       0.00000           0.208645            5.67752
    237       0.00000           0.215319            5.85913
    238       0.00000           0.222814            6.06307
    239       0.00000           0.226796            6.17144
    240       0.00000           0.232900            6.33754
    241       0.00000           0.239593            6.51966
    242       0.00000           0.241433            6.56973
    243       0.00000           0.246629            6.71112
    244       0.00000           0.254957            6.93772
    245       0.00000           0.259299            7.05588
    246       0.00000           0.263920            7.18162
    247       0.00000           0.269421            7.33132
    248       0.00000           0.278878            7.58866
    249       0.00000           0.280346            7.62861
    250       0.00000           0.283916            7.72576
    251       0.00000           0.290342            7.90060
    252       0.00000           0.304958            8.29833
    253       0.00000           0.309542            8.42306
    254       0.00000           0.315544            8.58639
    255       0.00000           0.319290            8.68833
    256       0.00000           0.323319            8.79796
    257       0.00000           0.326916            8.89585
    258       0.00000           0.332838            9.05698
    259       0.00000           0.341253            9.28596
    260       0.00000           0.347330            9.45133
[...]
  |    H      0     4.527807 A      4.527807 A        1.268855E-16 a.u.
  |    H      0     4.527807 A      4.583499 A       -4.900954E-17 a.u.
  |    H      0     4.527807 A      4.583499 A        4.713786E-16 a.u.
  |    H      2     3.678162 A  2.180220E+05 A            0.556529 a.u.
  |    H      1     3.958095 A  1.721251E+08 A            0.841931 a.u.
  |    H      0     4.527807 A  3.866455E+16 A            0.581436 a.u.
  |    O      0     2.043000 A      2.043000 A       -1.436841E-16 a.u.
  |    O      3     3.498446 A      3.498446 A        3.043453E-17 a.u.
  |    O      3     3.498446 A      3.498446 A        1.541443E-16 a.u.
  |    O      0     3.905335 A      3.905335 A        2.173090E-16 a.u.
  |    O      0     3.905335 A      3.905335 A        7.213445E-17 a.u.
  |    O      0     4.101052 A      4.101052 A        2.361718E-16 a.u.
  |    O      1     4.101052 A      4.101052 A        3.235185E-17 a.u.
  |    O      0     4.359549 A      4.359549 A       -5.329475E-17 a.u.
  |    O      1     4.413171 A      4.413171 A        3.261883E-17 a.u.
  |    O      1     4.522403 A      4.522403 A        6.417997E-16 a.u.
  |    O      1     4.522403 A      4.522403 A        4.224783E-16 a.u.
  |    O      2     4.522403 A      4.522403 A       -4.387647E-16 a.u.
  |    O      0     4.522403 A      4.578029 A        2.602039E-16 a.u.
  |    O      0     4.578029 A      4.578029 A        1.226235E-16 a.u.
  |    O      1     4.578029 A      4.578029 A       -6.107316E-16 a.u.
  |    O      1     4.578029 A      4.578029 A       -2.224438E-16 a.u.
  |    O      2     4.578029 A      4.578029 A       -7.020279E-16 a.u.
  |    O      2     4.522403 A      4.578029 A        1.323470E-15 a.u.
  |    O      2     4.578029 A      4.578029 A        7.923696E-16 a.u.
  |    O      2     4.522403 A      4.578029 A       -9.951815E-16 a.u.
  |    O      0     4.578029 A      4.634338 A       -8.813582E-18 a.u.
  |    O      1     4.578029 A      4.634338 A       -3.325386E-17 a.u.
  |    O      1     4.634338 A      4.634338 A        9.588032E-16 a.u.
  |    O      2     4.578029 A      4.634338 A        1.064715E-17 a.u.
  |    O      2     4.578029 A      4.634338 A       -3.770343E-15 a.u.
  |    O      4     3.251020 A  1.511584E+03 A            1.513372 a.u.
  |    O      3     3.541477 A  1.434166E+04 A            4.293220 a.u.
  |    O      2     4.634338 A  5.584435E+05 A            9.352428 a.u.
  |    O      1     4.634338 A  2.821283E+08 A            2.261940 a.u.
  |    O      0     4.578029 A  4.264100E+16 A            0.641234 a.u.

  | Shrink_full_auxil_basis : there are       38  radial auxiliary wave functions
                            accepted and       5 rejected.
  | Shrink_full_auxil_basis : there are totally                4544 partial auxiliary wave functions.
 
  | Maximal number of product basis functions per thread :   256   256
 
  | Minimal total memory requirement for three-center overlap :      10.450 Gbs
  | Number of local auxiliary basis functions on task:      0   256
  | Number of local auxiliary basis functions on task:      1   256
  | Number of local auxiliary basis functions on task:      2   256
  | Number of local auxiliary basis functions on task:      3   256
  | Number of local auxiliary basis functions on task:      4   256
  | Number of local auxiliary basis functions on task:      5   256
  | Number of local auxiliary basis functions on task:      6   256
  | Number of local auxiliary basis functions on task:      7   256
  | Number of local auxiliary basis functions on task:      8   256
  | Number of local auxiliary basis functions on task:      9   256
  | Number of local auxiliary basis functions on task:     10   256
  | Number of local auxiliary basis functions on task:     11   256
  | Number of local auxiliary basis functions on task:     12   256
  | Number of local auxiliary basis functions on task:     13   256
  | Number of local auxiliary basis functions on task:     14   240
  | Number of local auxiliary basis functions on task:     15   240
  | Number of local auxiliary basis functions on task:     16   240
  | Number of local auxiliary basis functions on task:     17   240
  | 2D aux task distribution:      3 X      6
  | 2D block size (nb_aux_2d):     64
 
  Basis pair condensation :    295296  -->     224679
 
 --------------------------------------------
  Constructing auxiliary basis (full product) ...
 
  Product basis:
  | charge radius: extent of product basis function
  | field radius: extent of its Coulomb potential
  | Species   l  charge radius    field radius  multipol momen
  |    H      1     3.910002 A      3.910002 A       -2.487223E-16 a.u.
  |    H      1     3.958095 A      3.958095 A       -2.441841E-16 a.u.
  |    H      0     4.527807 A      4.527807 A        1.268855E-16 a.u.
  |    H      0     4.527807 A      4.583499 A       -4.900954E-17 a.u.
  |    H      0     4.527807 A      4.583499 A        4.713786E-16 a.u.
  |    H      2     3.678162 A  2.180220E+05 A            0.556529 a.u.
  |    H      1     3.958095 A  1.721251E+08 A            0.841931 a.u.
  |    H      0     4.527807 A  3.866455E+16 A            0.581436 a.u.
  |    O      0     2.043000 A      2.043000 A       -1.436841E-16 a.u.
  |    O      3     3.498446 A      3.498446 A        3.043453E-17 a.u.
  |    O      3     3.498446 A      3.498446 A        1.541443E-16 a.u.
  |    O      0     3.905335 A      3.905335 A        2.173090E-16 a.u.
  |    O      0     3.905335 A      3.905335 A        7.213445E-17 a.u.
  |    O      0     4.101052 A      4.101052 A        2.361718E-16 a.u.
  |    O      1     4.101052 A      4.101052 A        3.235185E-17 a.u.
  |    O      0     4.359549 A      4.359549 A       -5.329475E-17 a.u.
  |    O      1     4.413171 A      4.413171 A        3.261883E-17 a.u.
  |    O      1     4.522403 A      4.522403 A        6.417997E-16 a.u.
  |    O      1     4.522403 A      4.522403 A        4.224783E-16 a.u.
  |    O      2     4.522403 A      4.522403 A       -4.387647E-16 a.u.
  |    O      0     4.522403 A      4.578029 A        2.602039E-16 a.u.
  |    O      0     4.578029 A      4.578029 A        1.226235E-16 a.u.
  |    O      1     4.578029 A      4.578029 A       -6.107316E-16 a.u.
  |    O      1     4.578029 A      4.578029 A       -2.224438E-16 a.u.
  |    O      2     4.578029 A      4.578029 A       -7.020279E-16 a.u.
  |    O      2     4.522403 A      4.578029 A        1.323470E-15 a.u.
  |    O      2     4.578029 A      4.578029 A        7.923696E-16 a.u.
  |    O      2     4.522403 A      4.578029 A       -9.951815E-16 a.u.
  |    O      0     4.578029 A      4.634338 A       -8.813582E-18 a.u.
  |    O      1     4.578029 A      4.634338 A       -3.325386E-17 a.u.
  |    O      1     4.634338 A      4.634338 A        9.588032E-16 a.u.
  |    O      2     4.578029 A      4.634338 A        1.064715E-17 a.u.
  |    O      2     4.578029 A      4.634338 A       -3.770343E-15 a.u.
  |    O      4     3.251020 A  1.511584E+03 A            1.513372 a.u.
  |    O      3     3.541477 A  1.434166E+04 A            4.293220 a.u.
  |    O      2     4.634338 A  5.584435E+05 A            9.352428 a.u.
  |    O      1     4.634338 A  2.821283E+08 A            2.261940 a.u.
  |    O      0     4.578029 A  4.264100E+16 A            0.641234 a.u.

  | Shrink_full_auxil_basis : there are       38  radial auxiliary wave functions
                            accepted and       5 rejected.
  | Shrink_full_auxil_basis : there are totally                4544 partial auxiliary wave functions.
 
  | Maximal number of product basis functions per thread :   256   256
 
  | Minimal total memory requirement for three-center overlap :      10.450 Gbs
  | Number of local auxiliary basis functions on task:      0   256
  | Number of local auxiliary basis functions on task:      1   256
  | Number of local auxiliary basis functions on task:      2   256
  | Number of local auxiliary basis functions on task:      3   256
  | Number of local auxiliary basis functions on task:      4   256
  | Number of local auxiliary basis functions on task:      5   256
  | Number of local auxiliary basis functions on task:      6   256
  | Number of local auxiliary basis functions on task:      7   256
  | Number of local auxiliary basis functions on task:      8   256
  | Number of local auxiliary basis functions on task:      9   256
  | Number of local auxiliary basis functions on task:     10   256
  | Number of local auxiliary basis functions on task:     11   256
  | Number of local auxiliary basis functions on task:     12   256
  | Number of local auxiliary basis functions on task:     13   256
  | Number of local auxiliary basis functions on task:     14   240
  | Number of local auxiliary basis functions on task:     15   240
  | Number of local auxiliary basis functions on task:     16   240
  | Number of local auxiliary basis functions on task:     17   240
  | 2D aux task distribution:      3 X      6
  | 2D block size (nb_aux_2d):     64
 
  Basis pair condensation :    295296  -->     224679
dP_dE (Bohr^3) at every cycle:--->
 (355.170918849439,0.000000000000000E+000) (-0.606696891779514,0.000000000000000E+000) (-8.50585185451196,0.000000000000000E+000)
 (-0.611263068121702,0.000000000000000E+000) (369.385404966182,0.000000000000000E+000) (-15.0965645231426,0.000000000000000E+000)
 (-8.51847695777626,0.000000000000000E+000) (-15.1142267331918,0.000000000000000E+000) (366.653584044511,0.000000000000000E+000)
DFPT polarizability (Bohr^3)        xx        yy        zz        xy        xz        yz
  | Polarizability:--->                       355.170918849                  369.385404966                  366.653584045                   -0.606696892                   -8.505851855                  -15.096564523

DFPT for dielectric_constant:--->  # PARSE DFPT_dielectric_tensor
               1.695022834280501            -0.001187226123805            -0.016644834782768
              -0.001196161531111             1.722838716449862            -0.029541993744203
              -0.016669540451471            -0.029576556369228             1.717492901747810

                                               :  max(cpu_time)    wall_clock(cpu1)
  | Time for  dielectric calculation            :        0.000 s           0.000 s
===========================================================================

------------------------------------------------------------------------------
  Final output of selected total energy values:

  The following output summarizes some interesting total energy values
  at the end of a run (AFTER all relaxation, molecular dynamics, etc.).

  | Total energy of the DFT / Hartree-Fock s.c.f. calculation      :         -66111.144949957 eV
  | Final zero-broadening corrected energy (caution - metals only) :         -66111.144949957 eV
  | For reference only, the value of 1 Hartree used in FHI-aims is :             27.211384500 eV
  | For reference only, the overall average (free atom contribution
  | + realspace contribution) of the electrostatic potential after
  | s.c.f. convergence is                                          :             -5.064910630 eV

  Before relying on these values, please be sure to understand exactly which
  total energy value is referred to by a given number. Different objects may
  all carry the same name 'total energy'. Definitions:

  Total energy of the DFT / Hartree-Fock s.c.f. calculation:
  | Note that this energy does not include ANY quantities calculated after the
  | s.c.f. cycle, in particular not ANY RPA, MP2, etc. many-body perturbation terms.

  Final zero-broadening corrected energy:
  | For metallic systems only, a broadening of the occupation numbers at the Fermi
  | level can be extrapolated back to zero broadening by an electron-gas inspired
  | formula. For all systems that are not real metals, this value can be
  | meaningless and should be avoided.

------------------------------------------------------------------------------
  Methods described in the following list of references were used in this FHI-aims run.
  If you publish the results, please make sure to cite these reference if they apply.
  FHI-aims is an academic code, and for our developers (often, Ph.D. students
  and postdocs), scientific credit in the community is essential.
  Thank you for helping us!

  For any use of FHI-aims, please cite:

    Volker Blum, Ralf Gehrke, Felix Hanke, Paula Havu, Ville Havu,
    Xinguo Ren, Karsten Reuter, and Matthias Scheffler
    'Ab initio molecular simulations with numeric atom-centered orbitals'
    Computer Physics Communications 180, 2175-2196 (2009)
    http://doi.org/10.1016/j.cpc.2009.06.022


  For Hartree-Fock, hybrid functionals, or many-body perturbation theory used in your run, please cite:

    Xinguo Ren, Patrick Rinke, Volker Blum, Juergen Wieferink, Alex Tkatchenko,
    Andrea Sanfilippo, Karsten Reuter, and Matthias Scheffler,
    'Resolution-of-identity approach to Hartree-Fock, hybrid density functionals,
    RPA, MP2, and GW with numeric atom-centered orbital basis functions'
    New Journal of Physics 14, 053020 (2012).
    http://doi.org/10.1088/1367-2630/14/5/053020


  The provided symmetry information was generated with SPGlib:

    Atsushi Togo, Yusuke Seto, Dimitar Pashov
    SPGlib 1.7.3 obtained from http://spglib.sourceforge.net
    Copyright (C) 2008 Atsushi Togo


  The DFPT (perturbation by an electric field) part of the code was used.
  Here is the corresponding reference:

    Honghui Shang, Nathaniel Raimbault, Mariana Rossi,
    Christian Carbogno, Patrick Rinke and Matthias Scheffler,
    'All-Electron, Real-Space Perturbation Theory for Homogeneous
    Electric Fields: Theory, Implementation, and Application within dft'
    New Journal of Physics, 20(7):073040, 2018


  The ELSI infrastructure was used in your run to solve the Kohn-Sham electronic structure.
  Please check out http://elsi-interchange.org to learn more.
  If scalability is important for your project, please acknowledge ELSI by citing:

    V. W-z. Yu, F. Corsetti, A. Garcia, W. P. Huhn, M. Jacquelin, W. Jia,
    B. Lange, L. Lin, J. Lu, W. Mi, A. Seifitokaldani, A. Vazquez-Mayagoitia,
    C. Yang, H. Yang, and V. Blum
    'ELSI: A unified software interface for Kohn-Sham electronic structure solvers'
    Computer Physics Communications 222, 267-285 (2018).
    http://doi.org/10.1016/j.cpc.2017.09.007


  For the real-space grid partitioning and parallelization used in this calculation, please cite:

    Ville Havu, Volker Blum, Paula Havu, and Matthias Scheffler,
    'Efficient O(N) integration for all-electron electronic structure calculation'
    'using numerically tabulated basis functions'
    Journal of Computational Physics 228, 8367-8379 (2009).
    http://doi.org/10.1016/j.jcp.2009.08.008


  The high-level electronic structure method used in your calculation
  employed our efficient localized resolution of identity for the Coulomb operator.
  Some calculations, especially large-scale hybrid density functional theory,
  are only possible thanks to this development. For this feature, please cite:

    Arvid Ihrig, Juergen Wieferink, Igor Ying Zhang, Matti Ropo, Xinguo Ren,
    Patrick Rinke, Matthias Scheffler, and Volker Blum,
    'Accurate localized resolution of identity approach for linear-scaling
    hybrid density functionals and for many-body perturbation theory'
    New Journal of Physics 117, 093020 (2015).
    http://doi.org/10.1088/1367-2630/17/9/093020

  Of course, there are many other important community references, e.g., those cited in the
  above references. Our list is limited to references that describe implementations in the
  FHI-aims code. The reason is purely practical (length of this list) - please credit others as well.

------------------------------------------------------------
          Leaving FHI-aims.
          Date     :  20230221, Time     :  145814.050

          Computational steps:
          | Number of self-consistency cycles          :           45
          | Number of SCF (re)initializations          :            1
          | Number of coupled perturbed self-consistency cycles          :            0
          | Number of CPSCF (re)initializations          :            0

          Detailed time accounting                     :  max(cpu_time)    wall_clock(cpu1)
          | Total time                                  :      482.389 s         499.753 s
          | GPU initialization                          :        1.742 s           9.884 s
          | Preparation time                            :        0.070 s           0.067 s
          | Boundary condition initalization            :        1.315 s           1.315 s
          | Grid partitioning                           :        0.437 s           0.437 s
          | Preloading free-atom quantities on grid     :        2.424 s           2.425 s
          | Free-atom superposition energy              :        0.280 s           0.280 s
          | Total time for integrations                 :       12.609 s          12.967 s
          | Product basis setup: Total time             :        0.000 s           0.000 s
          | Product basis: | 2-center integrations     :(       0.000 s)  (       0.000 s)
          | Product basis: | LVL 3-center & coefficient:(       0.000 s)  (       0.000 s)
          | Total time for solution of K.-S. equations  :        3.714 s          10.986 s
          | Total time for density update               :        9.927 s          11.085 s
          | Total time for mixing & preconditioning     :        8.096 s           8.098 s
          | Total time for Hartree multipole update     :        0.110 s           0.110 s
          | Total time for Hartree multipole sum        :       36.436 s          36.451 s
          | Total time for total energy evaluation      :        0.008 s           0.006 s
          | Total time for DFPT                         :      404.366 s         404.515 s
          | Total time first_order_DM                   :        0.286 s           0.281 s
          | Total time first_order_density              :       85.294 s          85.310 s
          | Total time first_order_potential            :       53.212 s          53.232 s
          | Total time first_order_H                    :      168.649 s         168.700 s
          | Total time solving of Sternheimer equations :        0.175 s           0.176 s
          | Total time for dielectric constant          :        0.000 s           0.000 s
          | Total time momentum matrix                  :        0.000 s           0.000 s

          GPU acceleration has been used for charge density update.
          GPU acceleration has been used for real-space Hamiltonian integration.
          Due to GPU usage, wall_clock(cpu1) will give a more reliable estimate for timings.

          Partial memory accounting:
          | Residual value for overall tracked memory usage across tasks:     0.000000 MB (should be 0.000000 MB)
          | Peak values for overall tracked memory usage:
          |   Minimum:      119.469 MB (on task  0 after allocating DFPT_pulay_mixing::pulay_mix::alphas)
          |   Maximum:      119.469 MB (on task  0 after allocating DFPT_pulay_mixing::pulay_mix::alphas)
          |   Average:      119.469 MB
          | Largest tracked array allocation:
          |   Minimum:       42.616 MB (DFPT_pulay_mixing::initialize_pulay_mixing::X_in_diffs on task  0)
          |   Maximum:       42.616 MB (DFPT_pulay_mixing::initialize_pulay_mixing::X_in_diffs on task  0)
          |   Average:       42.616 MB
          Note:  These values currently only include a subset of arrays which are explicitly tracked.
          The "true" memory usage will be greater.

          Have a nice day.
------------------------------------------------------------
