------------------------------------------------------------
          Invoking FHI-aims ...

          When using FHI-aims, please cite the following reference:

            Volker Blum, Ralf Gehrke, Felix Hanke, Paula Havu,
            Ville Havu, Xinguo Ren, Karsten Reuter, and Matthias Scheffler,
            'Ab Initio Molecular Simulations with Numeric Atom-Centered Orbitals',
            Computer Physics Communications 180, 2175-2196 (2009)

          In addition, many other developments in FHI-aims are likely important for
          your particular application. A partial list of references is given at the end of
          this file. Thank you for giving credit to the authors of these developments.

          For any questions about FHI-aims, please visit our slack channel at

            https://fhi-aims.slack.com

          and our main development and support site at

            https://aims-git.rz-berlin.mpg.de .

          The latter site, in particular, has a wiki to collect information, as well
          as an issue tracker to log discussions, suggest improvements, and report issues
          or bugs. https://aims-git.rz-berlin.mpg.de is also the main development site
          of the project and all new and updated code versions can be obtained there.
          Please send an email to aims-coordinators@fhi-berlin.mpg.de and we will add
          you to these sites. They are for you and everyone is welcome there.

------------------------------------------------------------



  Date     :  20230221, Time     :  121529.735
  Time zero on CPU 1             :   0.102609700000000E+01  s.
  Internal wall clock time zero  :           446213729.735  s.

  FHI-aims created a unique identifier for this run for later identification
  aims_uuid : 4492F45B-9ADF-46F7-AA16-004D6EDB8BFA

  Build configuration of the current instance of FHI-aims
  -------------------------------------------------------
  FHI-aims version      : 221103
  Commit number         : 42523251a
  CMake host system     : Linux-5.3.18-150300.59.68-default
  CMake version         : 3.17.0
  Fortran compiler      : /mpcdf/soft/SLE_15/packages/x86_64/intel_oneapi/2021.3/mpi/2021.3.0/bin/mpiifort (Intel) version 20.2.3.20210609
  Fortran compiler flags: -O3 -ip -fp-model precise
  C compiler            : /mpcdf/soft/SLE_15/packages/x86_64/intel/2021.3.0/bin/icc (Intel) version 20.2.3.20210609
  C compiler flags      : -O3 -ip -fp-model precise -std=gnu99
  CUDA compiler         : /mpcdf/soft/SLE_15/packages/x86_64/cuda/11.6.2/bin/nvcc
  CUDA compiler flags   : -O3 -DAdd_ -lcublas
  HIP compiler          :
  HIP compiler flags    :
  HIP GPU arch          :
  ELPA2 kernel          : AVX512
  Using MPI
  Using ScaLAPACK
  Using LibXC
  Using CUDA
  Using i-PI
  Using RLSY
  Linking against: /mpcdf/soft/SLE_15/packages/x86_64/cuda/11.6.2/lib64/libcublas.so
                   /mpcdf/soft/SLE_15/packages/x86_64/cuda/11.6.2/lib64/libcudart.so
                   /mpcdf/soft/SLE_15/packages/x86_64/intel_oneapi/2021.3/mkl/latest/lib/intel64/libmkl_intel_lp64.so
                   /mpcdf/soft/SLE_15/packages/x86_64/intel_oneapi/2021.3/mkl/latest/lib/intel64/libmkl_sequential.so
                   /mpcdf/soft/SLE_15/packages/x86_64/intel_oneapi/2021.3/mkl/latest/lib/intel64/libmkl_core.so
                   /mpcdf/soft/SLE_15/packages/x86_64/intel_oneapi/2021.3/mkl/latest/lib/intel64/libmkl_blacs_intelmpi_lp64.so
                   /mpcdf/soft/SLE_15/packages/x86_64/intel_oneapi/2021.3/mkl/latest/lib/intel64/libmkl_scalapack_lp64.so

  Using       18 parallel tasks.
  Task        0 on host adag040 reporting.
  Task        1 on host adag040 reporting.
  Task        2 on host adag040 reporting.
  Task        3 on host adag040 reporting.
  Task        4 on host adag040 reporting.
  Task        5 on host adag040 reporting.
  Task        6 on host adag040 reporting.
  Task        7 on host adag040 reporting.
  Task        8 on host adag040 reporting.
  Task        9 on host adag040 reporting.
  Task       10 on host adag040 reporting.
  Task       11 on host adag040 reporting.
  Task       12 on host adag040 reporting.
  Task       13 on host adag040 reporting.
  Task       14 on host adag040 reporting.
  Task       15 on host adag040 reporting.
  Task       16 on host adag040 reporting.
  Task       17 on host adag040 reporting.

  Obtaining array dimensions for all initial allocations:
  
  -----------------------------------------------------------------------
  Parsing control.in (first pass over file, find array dimensions only).
  The contents of control.in will be repeated verbatim below
  unless switched off by setting 'verbatim_writeout .false.' .
  in the first line of control.in .
  -----------------------------------------------------------------------
  
  #########################################################################################
  #
  #  Volker Blum, 2017 : Test run input file control.in for simple H2O
  #
  #########################################################################################
  #
  #  Physical model
  #
    xc                 pw-lda
    spin               none
    relativistic       none
    charge             0.
  
    use_gpu
  
    DFPT dielectric
    ri_density_restart write
    ri_rho1 write
  #  ri_density_restart read 0
  #  ri_rho1 read
    ri_full_output .true.
    sc_accuracy_rho    1d-6
  #  use_calculate_fock_matrix_old .false.
  #  wave_threshold 1e-8
    k_grid 1 1 1
  #  output cube eigenstate 160
  #  output cube eigenstate 161
    wave_threshold 1e-8
    default_prodbas_acc 1e-6
    default_max_l_prodbas 6
  #
  #  Relaxation
  #
  #  relax_geometry   bfgs 1.e-2
  #
  
  ################################################################################
  
  
  ################################################################################
  #
  #  FHI-aims code project
  #  VB, Fritz-Haber Institut, 2009
  #
  #  Suggested "light" defaults for H atom (to be pasted into control.in file)
  #  Be sure to double-check any results obtained with these settings for post-processing,
  #  e.g., with the "tight" defaults and larger basis sets.
  #
  ################################################################################
    species        H
  #     global species definitions
      nucleus             1
      mass                1.00794
  #
      l_hartree           4
  #
      cut_pot             3.5  1.5  1.0
      basis_dep_cutoff    1e-4
  #
      radial_base         24 5.0
      radial_multiplier   1
      angular_grids       specified
        division   0.2421   50
        division   0.3822  110
        division   0.4799  194
        division   0.5341  302
  #      division   0.5626  434
  #      division   0.5922  590
  #      division   0.6542  770
  #      division   0.6868 1202
  #      outer_grid  770
        outer_grid  302
  ################################################################################
  #
  #  Definition of "minimal" basis
  #
  ################################################################################
  #     valence basis states
      valence      1  s   1.
  #     ion occupancy
      ion_occ      1  s   0.5
  ################################################################################
  #
  #  Suggested additional basis functions. For production calculations,
  #  uncomment them one after another (the most important basis functions are
  #  listed first).
  #
  #  Basis constructed for dimers: 0.5 A, 0.7 A, 1.0 A, 1.5 A, 2.5 A
  #
  ################################################################################
  #  "First tier" - improvements: -1014.90 meV to -62.69 meV
       hydro 2 s 2.1
       hydro 2 p 3.5
  #  "Second tier" - improvements: -12.89 meV to -1.83 meV
  #     hydro 1 s 0.85
  #     hydro 2 p 3.7
  #     hydro 2 s 1.2
  #     hydro 3 d 7
  #  "Third tier" - improvements: -0.25 meV to -0.12 meV
  #     hydro 4 f 11.2
  #     hydro 3 p 4.8
  #     hydro 4 d 9
  #     hydro 3 s 3.2
  ################################################################################
  #
  #  FHI-aims code project
  #  VB, Fritz-Haber Institut, 2009
  #
  #  Suggested "light" defaults for O atom (to be pasted into control.in file)
  #  Be sure to double-check any results obtained with these settings for post-processing,
  #  e.g., with the "tight" defaults and larger basis sets.
  #
  ################################################################################
    species        O
  #     global species definitions
      nucleus             8
      mass                15.9994
  #
      l_hartree           4
  #
      cut_pot             3.5  1.5  1.0
      basis_dep_cutoff    1e-4
  #
      radial_base         36 5.0
      radial_multiplier   1
       angular_grids specified
        division   0.2659   50
        division   0.4451  110
        division   0.6052  194
        division   0.7543  302
  #      division   0.8014  434
  #      division   0.8507  590
  #      division   0.8762  770
  #      division   0.9023  974
  #      division   1.2339 1202
  #      outer_grid 974
        outer_grid 302
  ################################################################################
  #
  #  Definition of "minimal" basis
  #
  ################################################################################
  #     valence basis states
      valence      2  s   2.
      valence      2  p   4.
  #     ion occupancy
      ion_occ      2  s   1.
      ion_occ      2  p   3.
  ################################################################################
  #
  #  Suggested additional basis functions. For production calculations,
  #  uncomment them one after another (the most important basis functions are
  #  listed first).
  #
  #  Constructed for dimers: 1.0 A, 1.208 A, 1.5 A, 2.0 A, 3.0 A
  #
  ################################################################################
  #  "First tier" - improvements: -699.05 meV to -159.38 meV
       hydro 2 p 1.8
       hydro 3 d 7.6
       hydro 3 s 6.4
  #  "Second tier" - improvements: -49.91 meV to -5.39 meV
  #     hydro 4 f 11.6
  #     hydro 3 p 6.2
  #     hydro 3 d 5.6
  #     hydro 5 g 17.6
  #     hydro 1 s 0.75
  #  "Third tier" - improvements: -2.83 meV to -0.50 meV
  #     ionic 2 p auto
  #     hydro 4 f 10.8
  #     hydro 4 d 4.7
  #     hydro 2 s 6.8
  #  "Fourth tier" - improvements: -0.40 meV to -0.12 meV
  #     hydro 3 p 5
  #     hydro 3 s 3.3
  #     hydro 5 g 15.6
  #     hydro 4 f 17.6
  #     hydro 4 d 14
  # Further basis functions - -0.08 meV and below
  #     hydro 3 s 2.1
  #     hydro 4 d 11.6
  #     hydro 3 p 16
  #     hydro 2 s 17.2
  
  -----------------------------------------------------------------------
  Completed first pass over input file control.in .
  -----------------------------------------------------------------------
  
  
  -----------------------------------------------------------------------
  Parsing geometry.in (first pass over file, find array dimensions only).
  The contents of geometry.in will be repeated verbatim below
  unless switched off by setting 'verbatim_writeout .false.' .
  in the first line of geometry.in .
  -----------------------------------------------------------------------
  
  #=======================================================
  # FHI-aims file: /ada/ptmp/mpsd/alewis/bulk_water/qmdata/data/geoms/16.in
  # Created using the Atomic Simulation Environment (ASE)
  # Tue Feb 21 11:23:37 2023
  #=======================================================
  lattice_vector 9.9732000000000003 0.0000000000000000 0.0000000000000000
  lattice_vector 0.0000000000000000 9.9732000000000003 0.0000000000000000
  lattice_vector 0.0000000000000000 0.0000000000000000 9.9732000000000003
  atom 4.9329999999999998 13.7243999999999993 -0.0024370000000000 O
  atom 4.6851099999999999 13.0571999999999999 0.7195950000000000 H
  atom 4.5751499999999998 14.6331000000000007 0.1909830000000000 H
  atom 5.1898099999999996 6.9122800000000000 0.1807800000000000 O
  atom 5.0503600000000004 7.6601499999999998 -0.3651550000000000 H
  atom 5.1170799999999996 7.5432300000000003 0.9951120000000000 H
  atom -5.0266500000000001 -4.8566300000000000 5.8399999999999999 O
  atom -4.9311299999999996 -4.8450699999999998 6.7351400000000003 H
  atom -5.4574100000000003 -5.6467499999999999 5.8817199999999996 H
  atom 3.4354800000000001 3.5601900000000000 3.6360199999999998 O
  atom 3.6819999999999999 2.8143400000000001 4.3549199999999999 H
  atom 2.5121899999999999 3.5073300000000001 3.2601800000000001 H
  atom -10.8367000000000004 1.3878600000000001 8.5290499999999998 O
  atom -11.3646999999999991 1.8396399999999999 7.9669800000000004 H
  atom -11.1062999999999992 0.6024290000000000 8.0020500000000006 H
  atom -2.1773799999999999 5.3132299999999999 19.3242000000000012 O
  atom -2.4089399999999999 6.2347999999999999 19.4522000000000013 H
  atom -3.0117400000000001 4.9091800000000001 19.7570000000000014 H
  atom 7.6736000000000004 7.9887499999999996 -0.0066490000000000 O
  atom 8.0399300000000000 7.7619100000000003 0.7445670000000000 H
  atom 6.8451300000000002 7.9303200000000000 0.3036290000000000 H
  atom -3.1327099999999999 3.1491300000000000 -2.0563199999999999 O
  atom -3.9772099999999999 3.2090999999999998 -1.5272800000000000 H
  atom -2.6465600000000000 3.9486599999999998 -1.5888300000000000 H
  atom 14.1130999999999993 2.2891400000000002 -4.1209800000000003 O
  atom 13.3676999999999992 1.9658300000000000 -3.5812400000000002 H
  atom 14.8619000000000003 1.6273000000000000 -4.0712200000000003 H
  atom 11.3676999999999992 -7.0528500000000003 9.6598900000000008 O
  atom 11.0254999999999992 -6.1451799999999999 9.6371099999999998 H
  atom 10.5492000000000008 -7.4117800000000003 9.4027600000000007 H
  atom 1.0402600000000000 5.6409000000000002 -0.5478470000000000 O
  atom 0.2599180000000000 5.9872899999999998 -1.1631000000000000 H
  atom 1.6927300000000001 6.2867499999999996 -0.8778770000000000 H
  atom 5.3467000000000002 -0.2803640000000000 6.3874800000000000 O
  atom 6.4135799999999996 -0.5906010000000000 6.3086099999999998 H
  atom 5.1395099999999996 -0.2500290000000000 7.2367499999999998 H
  atom -0.0043660000000000 6.6034600000000001 -3.3890799999999999 O
  atom -0.7163770000000000 6.4393799999999999 -4.1535399999999996 H
  atom 0.7012350000000001 6.7579799999999999 -4.0645600000000002 H
  atom 2.6798000000000002 -0.2933100000000000 2.9671200000000000 O
  atom 2.2235600000000000 -0.0969540000000000 3.7482300000000000 H
  atom 2.9630500000000000 0.3973840000000000 2.5007199999999998 H
  atom -4.6466599999999998 8.8554700000000004 2.6573300000000000 O
  atom -5.2895000000000003 9.1507000000000005 3.3232499999999998 H
  atom -4.0395399999999997 9.5232600000000005 2.4718599999999999 H
  atom -6.4401900000000003 12.0884999999999998 11.5027000000000008 O
  atom -6.3621699999999999 12.5527999999999995 12.3867999999999991 H
  atom -7.3905599999999998 12.2916000000000007 11.2186000000000003 H
  atom 4.4499000000000004 0.2068360000000000 9.5113699999999994 O
  atom 3.5043000000000002 -0.3369830000000000 9.5123400000000000 H
  atom 4.2515299999999998 0.9918580000000000 10.0360999999999994 H
  atom -0.9870450000000000 4.5537900000000002 13.8725000000000005 O
  atom -1.7934399999999999 3.9933200000000002 13.9956999999999994 H
  atom -1.3450200000000001 5.4460499999999996 13.3125999999999998 H
  atom 7.8536799999999998 9.2086900000000007 -3.2702700000000000 O
  atom 8.5349199999999996 8.8650699999999993 -3.8580999999999999 H
  atom 7.7117599999999999 8.5863800000000001 -2.6894000000000000 H
  atom 1.3950499999999999 2.4673300000000000 -3.1669999999999998 O
  atom 1.8873899999999999 2.9770900000000000 -2.3516800000000000 H
  atom 0.5923980000000000 2.2618900000000002 -2.6609400000000001 H
  atom 11.0421999999999993 3.1997200000000001 2.5926300000000002 O
  atom 10.5800999999999998 2.9841899999999999 1.6135900000000001 H
  atom 10.1721000000000004 3.7271700000000001 3.0397400000000001 H
  atom 1.0061400000000000 8.6228499999999997 1.3735100000000000 O
  atom 1.7492099999999999 8.7501400000000000 1.9249700000000001 H
  atom 0.3204760000000000 9.2012699999999992 1.5521499999999999 H
  atom 9.3375299999999992 6.4721799999999998 11.9730000000000008 O
  atom 10.0177999999999994 7.1381600000000001 11.7035000000000000 H
  atom 9.3613599999999995 5.9440499999999998 11.1875999999999998 H
  atom 2.5308000000000002 7.7988099999999996 8.8929799999999997 O
  atom 2.2413400000000001 8.0235199999999995 7.9438100000000000 H
  atom 1.8175500000000000 8.1937700000000007 9.4861699999999995 H
  atom 2.6818900000000001 -3.3776299999999999 4.8351899999999999 O
  atom 2.3942000000000001 -3.4854300000000000 3.8854899999999999 H
  atom 3.4032800000000001 -3.7904100000000001 5.0334099999999999 H
  atom 0.5998470000000000 1.1632100000000001 4.3224900000000002 O
  atom 0.6491940000000000 1.9496599999999999 3.6688200000000002 H
  atom 0.9181560000000000 1.7176300000000000 5.1507300000000003 H
  atom 2.4215700000000000 9.1537799999999994 6.0254000000000003 O
  atom 3.1452100000000001 9.6873000000000005 6.1926899999999998 H
  atom 2.5923900000000000 8.3801900000000007 5.6173599999999997 H
  atom 9.2852999999999994 8.5495400000000004 4.3852000000000002 O
  atom 9.2420700000000000 7.9368600000000002 3.4632999999999998 H
  atom 9.6941500000000005 9.3873099999999994 4.4351900000000004 H
  atom 7.5227700000000004 10.9941999999999993 13.4108000000000001 O
  atom 7.2090699999999996 11.7532999999999994 13.6403999999999996 H
  atom 7.4293899999999997 10.4395000000000007 14.1721000000000004 H
  atom -0.5070830000000000 1.3440000000000001 1.3994800000000001 O
  atom -1.2078000000000000 1.0676399999999999 2.0024799999999998 H
  atom -0.7905290000000000 1.4439599999999999 0.4009500000000000 H
  atom 6.9163699999999997 3.0712000000000002 4.9931099999999997 O
  atom 7.4676900000000002 2.7417099999999999 5.7504200000000001 H
  atom 6.1122600000000000 3.5205899999999999 5.2956700000000003 H
  atom 5.3402799999999999 5.7297700000000003 2.9805999999999999 O
  atom 4.8056799999999997 5.0439900000000000 3.1644600000000001 H
  atom 5.1670199999999999 6.3431400000000000 3.6503299999999999 H
  
  -----------------------------------------------------------------------
  Completed first pass over input file geometry.in .
  -----------------------------------------------------------------------
  

  Basic array size parameters:
  | Number of species                 :        2
  | Number of atoms                   :       96
  | Number of lattice vectors         :        3
  | Max. basis fn. angular momentum   :        2
  | Max. atomic/ionic basis occupied n:        2
  | Max. number of basis fn. types    :        2
  | Max. radial fns per species/type  :        3
  | Max. logarithmic grid size        :     1301
  | Max. radial integration grid size :       36
  | Max. angular integration grid size:      302
  | Max. angular grid division number :        8
  | Radial grid for Hartree potential :     1301
  | Number of spin channels           :        1

------------------------------------------------------------
          Reading file control.in.
------------------------------------------------------------
  XC: Using Perdew-Wang parametrisation of Ceperley-Alder LDA.
  Spin treatment: No spin polarisation.
  Non-relativistic treatment of kinetic energy.
  Charge =   0.000000E+00: Neutral system requested explicitly.
  DFPT calculation will begin after the DFT/HF calculation.
  Convergence accuracy of self-consistent charge density:  0.1000E-05
  Found k-point grid:         1         1         1
  Threshold value for wave function integration:  0.1000E-07
 
  Reading configuration options for species H                   .
  | Found nuclear charge :   1.0000
  | Found atomic mass :    1.00794000000000      amu
  | Found l_max for Hartree potential  :   4
  | Found cutoff potl. onset [A], width [A], scale factor :    3.50000    1.50000    1.00000
  | Threshold for basis-dependent cutoff potential is   0.100000E-03
  | Found data for basic radial integration grid :    24 points, outermost radius =    5.000 A
  | Found multiplier for basic radial grid :   1
  | Found angular grid specification: user-specified.
  | Specified grid contains     5 separate shells.
  | Check grid settings after all constraints further below.
  | Found free-atom valence shell :  1 s   1.000
  | No ionic wave fns used. Skipping ion_occ.
  | Found hydrogenic basis function :  2 s   2.100
  | Found hydrogenic basis function :  2 p   3.500
  Species H                   : Missing cutoff potential type.
  Defaulting to exp(1/x)/(1-x)^2 type cutoff potential.
  Species H : No 'logarithmic' tag. Using default grid for free atom:
  | Default logarithmic grid data [bohr] : 0.1000E-03 0.1000E+03 0.1012E+01
  Species H : On-site basis accuracy parameter (for Gram-Schmidt orthonormalisation) not specified.
  Using default value basis_acc =  0.1000000E-03.
  Species H                   : Using default innermost maximum threshold i_radial=  2 for radial functions.
  Species H                   : Default cutoff onset for free atom density etc. : 0.35000000E+01 AA.
  Species H                   : Basic radial grid will be enhanced according to radial_multiplier =   1, to contain    24 grid points.
 
  Reading configuration options for species O                   .
  | Found nuclear charge :   8.0000
  | Found atomic mass :    15.9994000000000      amu
  | Found l_max for Hartree potential  :   4
  | Found cutoff potl. onset [A], width [A], scale factor :    3.50000    1.50000    1.00000
  | Threshold for basis-dependent cutoff potential is   0.100000E-03
  | Found data for basic radial integration grid :    36 points, outermost radius =    5.000 A
  | Found multiplier for basic radial grid :   1
  | Found angular grid specification: user-specified.
  | Specified grid contains     5 separate shells.
  | Check grid settings after all constraints further below.
  | Found free-atom valence shell :  2 s   2.000
  | Found free-atom valence shell :  2 p   4.000
  | No ionic wave fns used. Skipping ion_occ.
  | No ionic wave fns used. Skipping ion_occ.
  | Found hydrogenic basis function :  2 p   1.800
  | Found hydrogenic basis function :  3 d   7.600
  | Found hydrogenic basis function :  3 s   6.400
  Species O                   : Missing cutoff potential type.
  Defaulting to exp(1/x)/(1-x)^2 type cutoff potential.
  Species O : No 'logarithmic' tag. Using default grid for free atom:
  | Default logarithmic grid data [bohr] : 0.1000E-03 0.1000E+03 0.1012E+01
  Species O : On-site basis accuracy parameter (for Gram-Schmidt orthonormalisation) not specified.
  Using default value basis_acc =  0.1000000E-03.
  Species O                   : Using default innermost maximum threshold i_radial=  2 for radial functions.
  Species O                   : Default cutoff onset for free atom density etc. : 0.35000000E+01 AA.
  Species O                   : Basic radial grid will be enhanced according to radial_multiplier =   1, to contain    36 grid points.
 
  Finished reading input file 'control.in'.
 
------------------------------------------------------------


------------------------------------------------------------
          Reading geometry description geometry.in.
------------------------------------------------------------
  | The smallest distance between any two atoms is         0.85285207 AA.
  | The first atom of this pair is atom number                     85 .
  | The second atom of this pair is atom number                    86 .
  | Wigner-Seitz cell of the first atom image           0     0     0 .
  | (The Wigner-Seitz cell of the second atom is 0 0 0  by definition.)

  Symmetry information by spglib:
  | Precision set to  0.1E-04
  | Number of Operations  : 1
  | Space group           : 1
  | International         : P1
  | Schoenflies           : C1^1
  Input structure read successfully.
  The structure contains       96 atoms,  and a total of        320.000 electrons.

  Input geometry:
  | Unit cell:
  |        9.97320000        0.00000000        0.00000000
  |        0.00000000        9.97320000        0.00000000
  |        0.00000000        0.00000000        9.97320000
  | Atomic structure:
  |       Atom                x [A]            y [A]            z [A]
  |    1: Species O             4.93300000       13.72440000       -0.00243700
  |    2: Species H             4.68511000       13.05720000        0.71959500
  |    3: Species H             4.57515000       14.63310000        0.19098300
  |    4: Species O             5.18981000        6.91228000        0.18078000
  |    5: Species H             5.05036000        7.66015000       -0.36515500
  |    6: Species H             5.11708000        7.54323000        0.99511200
  |    7: Species O            -5.02665000       -4.85663000        5.84000000
  |    8: Species H            -4.93113000       -4.84507000        6.73514000
  |    9: Species H            -5.45741000       -5.64675000        5.88172000
  |   10: Species O             3.43548000        3.56019000        3.63602000
  |   11: Species H             3.68200000        2.81434000        4.35492000
  |   12: Species H             2.51219000        3.50733000        3.26018000
  |   13: Species O           -10.83670000        1.38786000        8.52905000
  |   14: Species H           -11.36470000        1.83964000        7.96698000
  |   15: Species H           -11.10630000        0.60242900        8.00205000
  |   16: Species O            -2.17738000        5.31323000       19.32420000
  |   17: Species H            -2.40894000        6.23480000       19.45220000
  |   18: Species H            -3.01174000        4.90918000       19.75700000
  |   19: Species O             7.67360000        7.98875000       -0.00664900
  |   20: Species H             8.03993000        7.76191000        0.74456700
  |   21: Species H             6.84513000        7.93032000        0.30362900
  |   22: Species O            -3.13271000        3.14913000       -2.05632000
  |   23: Species H            -3.97721000        3.20910000       -1.52728000
  |   24: Species H            -2.64656000        3.94866000       -1.58883000
  |   25: Species O            14.11310000        2.28914000       -4.12098000
  |   26: Species H            13.36770000        1.96583000       -3.58124000
  |   27: Species H            14.86190000        1.62730000       -4.07122000
  |   28: Species O            11.36770000       -7.05285000        9.65989000
  |   29: Species H            11.02550000       -6.14518000        9.63711000
  |   30: Species H            10.54920000       -7.41178000        9.40276000
  |   31: Species O             1.04026000        5.64090000       -0.54784700
  |   32: Species H             0.25991800        5.98729000       -1.16310000
  |   33: Species H             1.69273000        6.28675000       -0.87787700
  |   34: Species O             5.34670000       -0.28036400        6.38748000
  |   35: Species H             6.41358000       -0.59060100        6.30861000
  |   36: Species H             5.13951000       -0.25002900        7.23675000
  |   37: Species O            -0.00436600        6.60346000       -3.38908000
  |   38: Species H            -0.71637700        6.43938000       -4.15354000
  |   39: Species H             0.70123500        6.75798000       -4.06456000
  |   40: Species O             2.67980000       -0.29331000        2.96712000
  |   41: Species H             2.22356000       -0.09695400        3.74823000
  |   42: Species H             2.96305000        0.39738400        2.50072000
  |   43: Species O            -4.64666000        8.85547000        2.65733000
  |   44: Species H            -5.28950000        9.15070000        3.32325000
  |   45: Species H            -4.03954000        9.52326000        2.47186000
  |   46: Species O            -6.44019000       12.08850000       11.50270000
  |   47: Species H            -6.36217000       12.55280000       12.38680000
  |   48: Species H            -7.39056000       12.29160000       11.21860000
  |   49: Species O             4.44990000        0.20683600        9.51137000
  |   50: Species H             3.50430000       -0.33698300        9.51234000
  |   51: Species H             4.25153000        0.99185800       10.03610000
  |   52: Species O            -0.98704500        4.55379000       13.87250000
  |   53: Species H            -1.79344000        3.99332000       13.99570000
  |   54: Species H            -1.34502000        5.44605000       13.31260000
  |   55: Species O             7.85368000        9.20869000       -3.27027000
  |   56: Species H             8.53492000        8.86507000       -3.85810000
  |   57: Species H             7.71176000        8.58638000       -2.68940000
  |   58: Species O             1.39505000        2.46733000       -3.16700000
  |   59: Species H             1.88739000        2.97709000       -2.35168000
  |   60: Species H             0.59239800        2.26189000       -2.66094000
  |   61: Species O            11.04220000        3.19972000        2.59263000
  |   62: Species H            10.58010000        2.98419000        1.61359000
  |   63: Species H            10.17210000        3.72717000        3.03974000
  |   64: Species O             1.00614000        8.62285000        1.37351000
  |   65: Species H             1.74921000        8.75014000        1.92497000
  |   66: Species H             0.32047600        9.20127000        1.55215000
  |   67: Species O             9.33753000        6.47218000       11.97300000
  |   68: Species H            10.01780000        7.13816000       11.70350000
  |   69: Species H             9.36136000        5.94405000       11.18760000
  |   70: Species O             2.53080000        7.79881000        8.89298000
  |   71: Species H             2.24134000        8.02352000        7.94381000
  |   72: Species H             1.81755000        8.19377000        9.48617000
  |   73: Species O             2.68189000       -3.37763000        4.83519000
  |   74: Species H             2.39420000       -3.48543000        3.88549000
  |   75: Species H             3.40328000       -3.79041000        5.03341000
  |   76: Species O             0.59984700        1.16321000        4.32249000
  |   77: Species H             0.64919400        1.94966000        3.66882000
  |   78: Species H             0.91815600        1.71763000        5.15073000
  |   79: Species O             2.42157000        9.15378000        6.02540000
  |   80: Species H             3.14521000        9.68730000        6.19269000
  |   81: Species H             2.59239000        8.38019000        5.61736000
  |   82: Species O             9.28530000        8.54954000        4.38520000
  |   83: Species H             9.24207000        7.93686000        3.46330000
  |   84: Species H             9.69415000        9.38731000        4.43519000
  |   85: Species O             7.52277000       10.99420000       13.41080000
  |   86: Species H             7.20907000       11.75330000       13.64040000
  |   87: Species H             7.42939000       10.43950000       14.17210000
  |   88: Species O            -0.50708300        1.34400000        1.39948000
  |   89: Species H            -1.20780000        1.06764000        2.00248000
  |   90: Species H            -0.79052900        1.44396000        0.40095000
  |   91: Species O             6.91637000        3.07120000        4.99311000
  |   92: Species H             7.46769000        2.74171000        5.75042000
  |   93: Species H             6.11226000        3.52059000        5.29567000
  |   94: Species O             5.34028000        5.72977000        2.98060000
  |   95: Species H             4.80568000        5.04399000        3.16446000
  |   96: Species H             5.16702000        6.34314000        3.65033000

  Lattice parameters for 3D lattice (in Angstroms) :     9.973200    9.973200    9.973200
  Angle(s) between unit vectors (in degrees)       :    90.000000   90.000000   90.000000


  Quantities derived from the lattice vectors (in Angstrom^-1):
  | Reciprocal lattice vector 1:  0.630007  0.000000  0.000000
  | Reciprocal lattice vector 2:  0.000000  0.630007  0.000000
  | Reciprocal lattice vector 3:  0.000000  0.000000  0.630007
  | Unit cell volume                               :   0.991982E+03  Angstrom^3

  Fractional coordinates:
                         L1                L2                L3
       atom_frac         0.49462560        1.37612802       -0.00024435  O
       atom_frac         0.46976998        1.30922873        0.07215287  H
       atom_frac         0.45874444        1.46724221        0.01914962  H
       atom_frac         0.52037561        0.69308547        0.01812658  O
       atom_frac         0.50639313        0.76807344       -0.03661362  H
       atom_frac         0.51308306        0.75635002        0.09977861  H
       atom_frac        -0.50401576       -0.48696807        0.58556933  O
       atom_frac        -0.49443809       -0.48580897        0.67532387  H
       atom_frac        -0.54720752       -0.56619240        0.58975254  H
       atom_frac         0.34447118        0.35697569        0.36457907  O
       atom_frac         0.36918943        0.28219027        0.43666225  H
       atom_frac         0.25189408        0.35167549        0.32689408  H
       atom_frac        -1.08658204        0.13915895        0.85519693  O
       atom_frac        -1.13952392        0.18445835        0.79883889  H
       atom_frac        -1.11361449        0.06040478        0.80235531  H
       atom_frac        -0.21832311        0.53275077        1.93761280  O
       atom_frac        -0.24154133        0.62515542        1.95044720  H
       atom_frac        -0.30198332        0.49223720        1.98100910  H
       atom_frac         0.76942205        0.80102174       -0.00066669  O
       atom_frac         0.80615349        0.77827678        0.07465678  H
       atom_frac         0.68635242        0.79516304        0.03044449  H
       atom_frac        -0.31411282        0.31575923       -0.20618457  O
       atom_frac        -0.39878976        0.32177235       -0.15313841  H
       atom_frac        -0.26536718        0.39592708       -0.15930995  H
       atom_frac         1.41510247        0.22952914       -0.41320539  O
       atom_frac         1.34036217        0.19711126       -0.35908635  H
       atom_frac         1.49018369        0.16316729       -0.40821602  H
       atom_frac         1.13982473       -0.70718024        0.96858481  O
       atom_frac         1.10551277       -0.61616933        0.96630069  H
       atom_frac         1.05775478       -0.74316969        0.94280271  H
       atom_frac         0.10430554        0.56560582       -0.05493192  O
       atom_frac         0.02606165        0.60033791       -0.11662255  H
       atom_frac         0.16972787        0.63036438       -0.08802360  H
       atom_frac         0.53610677       -0.02811174        0.64046444  O
       atom_frac         0.64308146       -0.05921881        0.63255625  H
       atom_frac         0.51533209       -0.02507009        0.72561966  H
       atom_frac        -0.00043777        0.66212048       -0.33981871  O
       atom_frac        -0.07183020        0.64566839       -0.41647014  H
       atom_frac         0.07031194        0.67761401       -0.40754823  H
       atom_frac         0.26870012       -0.02940982        0.29750932  O
       atom_frac         0.22295352       -0.00972145        0.37583023  H
       atom_frac         0.29710123        0.03984519        0.25074399  H
       atom_frac        -0.46591465        0.88792664        0.26644708  O
       atom_frac        -0.53037140        0.91752898        0.33321802  H
       atom_frac        -0.40503951        0.95488509        0.24785024  H
       atom_frac        -0.64574961        1.21209842        1.15336101  O
       atom_frac        -0.63792664        1.25865319        1.24200858  H
       atom_frac        -0.74104199        1.23246300        1.12487466  H
       atom_frac         0.44618578        0.02073918        0.95369290  O
       atom_frac         0.35137168       -0.03378885        0.95379016  H
       atom_frac         0.42629547        0.09945233        1.00630690  H
       atom_frac        -0.09896974        0.45660270        1.39097782  O
       atom_frac        -0.17982593        0.40040509        1.40333093  H
       atom_frac        -0.13486343        0.54606846        1.33483736  H
       atom_frac         0.78747844        0.92334356       -0.32790579  O
       atom_frac         0.85578551        0.88888922       -0.38684675  H
       atom_frac         0.77324831        0.86094533       -0.26966270  H
       atom_frac         0.13987988        0.24739602       -0.31755104  O
       atom_frac         0.18924618        0.29850900       -0.23579994  H
       atom_frac         0.05939899        0.22679682       -0.26680905  H
       atom_frac         1.10718726        0.32083183        0.25995969  O
       atom_frac         1.06085309        0.29922091        0.16179260  H
       atom_frac         1.01994345        0.37371857        0.30479084  H
       atom_frac         0.10088437        0.86460213        0.13772009  O
       atom_frac         0.17539105        0.87736534        0.19301428  H
       atom_frac         0.03213372        0.92259957        0.15563209  H
       atom_frac         0.93626218        0.64895721        1.20051739  O
       atom_frac         1.00447198        0.71573417        1.17349497  H
       atom_frac         0.93865159        0.59600229        1.12176633  H
       atom_frac         0.25376008        0.78197670        0.89168772  O
       atom_frac         0.22473629        0.80450808        0.79651566  H
       atom_frac         0.18224341        0.82157883        0.95116613  H
       atom_frac         0.26890968       -0.33867064        0.48481831  O
       atom_frac         0.24006337       -0.34947961        0.38959311  H
       atom_frac         0.34124253       -0.38005956        0.50469358  H
       atom_frac         0.06014589        0.11663358        0.43341054  O
       atom_frac         0.06509385        0.19548991        0.36786789  H
       atom_frac         0.09206233        0.17222456        0.51645711  H
       atom_frac         0.24280772        0.91783781        0.60415915  O
       atom_frac         0.31536618        0.97133317        0.62093310  H
       atom_frac         0.25993563        0.84027093        0.56324550  H
       atom_frac         0.93102515        0.85725143        0.43969839  O
       atom_frac         0.92669053        0.79581879        0.34726066  H
       atom_frac         0.97202001        0.94125356        0.44471083  H
       atom_frac         0.75429852        1.10237436        1.34468375  O
       atom_frac         0.72284422        1.17848835        1.36770545  H
       atom_frac         0.74493543        1.04675530        1.42101833  H
       atom_frac        -0.05084456        0.13476116        0.14032407  O
       atom_frac        -0.12110456        0.10705090        0.20078611  H
       atom_frac        -0.07926533        0.14478402        0.04020274  H
       atom_frac         0.69349557        0.30794529        0.50065275  O
       atom_frac         0.74877572        0.27490775        0.57658725  H
       atom_frac         0.61286849        0.35300505        0.53099005  H
       atom_frac         0.53546304        0.57451670        0.29886095  O
       atom_frac         0.48185938        0.50575442        0.31729635  H
       atom_frac         0.51809048        0.63601853        0.36601392  H

 
  Finished reading input file 'geometry.in'.
 

 
  Consistency checks for stacksize environment parameter are next.
 
  | Maximum stacksize for task 0: unlimited
  | Maximum stacksize for task 1: unlimited
  | Maximum stacksize for task 2: unlimited
  | Maximum stacksize for task 3: unlimited
  | Maximum stacksize for task 4: unlimited
  | Maximum stacksize for task 5: unlimited
  | Maximum stacksize for task 6: unlimited
  | Maximum stacksize for task 7: unlimited
  | Maximum stacksize for task 8: unlimited
  | Maximum stacksize for task 9: unlimited
  | Maximum stacksize for task 10: unlimited
  | Maximum stacksize for task 11: unlimited
  | Maximum stacksize for task 12: unlimited
  | Maximum stacksize for task 13: unlimited
  | Maximum stacksize for task 14: unlimited
  | Maximum stacksize for task 15: unlimited
  | Maximum stacksize for task 16: unlimited
  | Maximum stacksize for task 17: unlimited
  | Current stacksize for task 0: unlimited
  | Current stacksize for task 1: unlimited
  | Current stacksize for task 2: unlimited
  | Current stacksize for task 3: unlimited
  | Current stacksize for task 4: unlimited
  | Current stacksize for task 5: unlimited
  | Current stacksize for task 6: unlimited
  | Current stacksize for task 7: unlimited
  | Current stacksize for task 8: unlimited
  | Current stacksize for task 9: unlimited
  | Current stacksize for task 10: unlimited
  | Current stacksize for task 11: unlimited
  | Current stacksize for task 12: unlimited
  | Current stacksize for task 13: unlimited
  | Current stacksize for task 14: unlimited
  | Current stacksize for task 15: unlimited
  | Current stacksize for task 16: unlimited
  | Current stacksize for task 17: unlimited
 
  Consistency checks for the contents of control.in are next.
 
  MPI_IN_PLACE appears to work with this MPI implementation.
  | Keeping use_mpi_in_place .true. (see manual).
  Explicit treatment of the Coulomb operator is needed, but the RI method is not specified.
  Coulomb operator: Defaulting to 'LVL fast' resolution of identity - RI_type = LVL_fast
  Species H: Using default value for prodbas_acc =   1.000000E-06.
  Species H: Using default value max_l_prodbas =     6.
  Species O: Using default value for prodbas_acc =   1.000000E-06.
  Species O: Using default value max_l_prodbas =     6.
  Target number of points in a grid batch is not set.  Since GPU acceleration is enabled, defaulting to  200
  Method for grid partitioning is not set. Defaulting to parallel hash+maxmin partitioning.
  Batch size limit is not set. Defaulting to    200
  By default, will store active basis functions for each batch.
  If in need of memory, prune_basis_once .false. can be used to disable this option.
  communication_type for Hartree potential was not specified.
  Defaulting to calc_hartree .
  Defaulting to Pulay charge density mixer.
  Pulay mixer: Number of relevant iterations not set.
  Defaulting to    8 iterations.
  Pulay mixer: Number of initial linear mixing iterations not set.
  Defaulting to    0 iterations.
  Work space size for distributed Hartree potential not set.
  Defaulting to   0.200000E+03 MB.
  Mixing parameter for charge density mixing has not been set.
  Using default: charge_mix_param =     0.0500.
  The mixing parameter will be adjusted in iteration number     2 of the first full s.c.f. cycle only.
  Algorithm-dependent basis array size parameters:
  | n_max_pulay                         :        8
  Maximum number of self-consistency iterations not provided.
  Presetting  1000 iterations.
  Presetting      1001 iterations before the initial mixing cycle
  is restarted anyway using the sc_init_iter criterion / keyword.
  Presetting a factor      1.000 between actual scf density residual
  and density convergence criterion sc_accuracy_rho below which sc_init_iter
  takes no effect.
  Calculation of forces was not defined in control.in. No forces will be calculated.
  Geometry relaxation not requested: no relaxation will be performed.
  No accuracy limit for integral partition fn. given. Defaulting to  0.1000E-14.
  No occupation type (smearing scheme) given. Defaulting to Gaussian broadening, width =  0.1000E-01 eV.
  The width will be adjusted in iteration number     2 of the first full s.c.f. cycle only.
  S.C.F. convergence parameters will be adjusted in iteration number     2 of the first full s.c.f. cycle only.
  No accuracy for occupation numbers given. Defaulting to  0.1000E-12.
  No threshold value for occupation numbers given. Defaulting to  0.0000E+00.
  No accuracy for fermi level given. Defaulting to  0.1000E-19.
  Maximum # of iterations to find E_F not set. Defaulting to  200.
  Preferred method for the eigenvalue solver ('KS_method') not specified in 'control.in'.
  Calling BLACS routine to test compilation state
  Since ScaLAPACK support is enabled, defaulting to ELPA (via ELSI).
  Will not use alltoall communication since running on < 1024 CPUs.
  Threshold for basis singularities not set.
  Default threshold for basis singularities:  0.1000E-04
  partition_type (choice of integration weights) for integrals was not specified.
  | Using a version of the partition function of Stratmann and coworkers ('stratmann_sparse').
  | At each grid point, the set of atoms used to build the partition table is smoothly restricted to
  | only those atoms whose free-atom density would be non-zero at that grid point.
  Partitioning for Hartree potential was not defined. Using partition_type for integrals.
  | Adjusted default value of keyword multip_moments_threshold to:       0.10000000E-11
  | This value may affect high angular momentum components of the Hartree potential in periodic systems.
  Angular momentum expansion for Kerker preconditioner not set explicitly.
  | Using default value of   0
  No explicit requirement for turning off preconditioner.
  | By default, it will be turned off when the charge convergence reaches
  | sc_accuracy_rho  =   0.100000E-05
  No special mixing parameter while Kerker preconditioner is on.
  Using default: charge_mix_param =     0.0500.
  Threshold for auxiliary basis singularities not set.
  Default threshold for auxiliary basis singularities:  0.1000E-04
  No q(lm)/r^(l+1) cutoff set for long-range Hartree potential.
  | Using default value of  0.100000E-09 .
  | Verify using the multipole_threshold keyword.
  Defaulting to new monopole extrapolation.
  Density update method: automatic selection selected.
  Using density matrix based charge density update.
  Using density matrix based charge density update.
  Using packed matrix style: index .
  Defaulting to use time-reversal symmetry for k-point grid.
  Charge integration errors on the 3D integration grid will be compensated
  by explicit normalization and distribution of residual charges.
  Use the "compensate_multipole_errors" flag to change this behaviour.
  Default to 1D ("use_logsbt") integrations for auxiliary 2-center integrals.
  Default onset of logarithmic r-grid for SBT is -38.000000000000
  Default onset of logarithmic k-grid for SBT is -25.000000000000
  Default range of logarithmic r- and k-grid for SBT is  45.000000000000
  Default number of logarithmic r- and k-grid for SBT is   4096
  Default of use_2d_corr is to use the efficient 2D distribution where possible
 
  Consistency checks for the contents of geometry.in are next.
 

  Range separation radius for Ewald summation (hartree_convergence_parameter):      3.01618798 bohr.
  Number of empty states per atom not set in control.in .
  | Since you are using a method that relies on the unoccupied spectrum
  | (MP2,GW,RPA et al.), will use the full Hamiltonian size (see below)
  | as the max. possible number of states (occupied plus empty).

  Structure-dependent array size parameters: 
  | Maximum number of distinct radial functions  :        9
  | Maximum number of basis functions            :      768
  | Number of Kohn-Sham states (occupied + empty):      768
------------------------------------------------------------

  Performing system and environment tests:
  | Environment variable OMP_NUM_THREADS correctly set to 1.
  | Checking for ScaLAPACK...
  | Testing pdtran()...
  | All pdtran() tests passed.
CUDA runtime version: 11060
CUDA driver version: 11060
  Initializing GPUs...

  Number of GPUs available to MPI task         0 :   1
  Number of GPUs available to MPI task         1 :   1
  Number of GPUs available to MPI task         2 :   1
  Number of GPUs available to MPI task         3 :   1
  Number of GPUs available to MPI task         4 :   1
  Number of GPUs available to MPI task         5 :   1
  Number of GPUs available to MPI task         6 :   1
  Number of GPUs available to MPI task         7 :   1
  Number of GPUs available to MPI task         8 :   1
  Number of GPUs available to MPI task         9 :   1
  Number of GPUs available to MPI task        10 :   1
  Number of GPUs available to MPI task        11 :   1
  Number of GPUs available to MPI task        12 :   1
  Number of GPUs available to MPI task        13 :   1
  Number of GPUs available to MPI task        14 :   1
  Number of GPUs available to MPI task        15 :   1
  Number of GPUs available to MPI task        16 :   1
  Number of GPUs available to MPI task        17 :   1

  | MPI task         0, GPU activated = T, Device Name = NVIDIA A100-SXM4-80GB
  | MPI task         1, GPU activated = T, Device Name = NVIDIA A100-SXM4-80GB
  | MPI task         2, GPU activated = T, Device Name = NVIDIA A100-SXM4-80GB
  | MPI task         3, GPU activated = T, Device Name = NVIDIA A100-SXM4-80GB
  | MPI task         4, GPU activated = T, Device Name = NVIDIA A100-SXM4-80GB
  | MPI task         5, GPU activated = T, Device Name = NVIDIA A100-SXM4-80GB
  | MPI task         6, GPU activated = T, Device Name = NVIDIA A100-SXM4-80GB
  | MPI task         7, GPU activated = T, Device Name = NVIDIA A100-SXM4-80GB
  | MPI task         8, GPU activated = T, Device Name = NVIDIA A100-SXM4-80GB
  | MPI task         9, GPU activated = T, Device Name = NVIDIA A100-SXM4-80GB
  | MPI task        10, GPU activated = T, Device Name = NVIDIA A100-SXM4-80GB
  | MPI task        11, GPU activated = T, Device Name = NVIDIA A100-SXM4-80GB
  | MPI task        12, GPU activated = T, Device Name = NVIDIA A100-SXM4-80GB
  | MPI task        13, GPU activated = T, Device Name = NVIDIA A100-SXM4-80GB
  | MPI task        14, GPU activated = T, Device Name = NVIDIA A100-SXM4-80GB
  | MPI task        15, GPU activated = T, Device Name = NVIDIA A100-SXM4-80GB
  | MPI task        16, GPU activated = T, Device Name = NVIDIA A100-SXM4-80GB
  | MPI task        17, GPU activated = T, Device Name = NVIDIA A100-SXM4-80GB

------------------------------------------------------------
          Preparing all fixed parts of the calculation.
------------------------------------------------------------
  Determining machine precision:
    2.225073858507201E-308
  Setting up grids for atomic and cluster calculations.

  Creating wave function, potential, and density for free atoms.
  Runtime choices for atomic solver:
  | atomic solver xc        : PW-LDA
  | compute density gradient: 0
  | compute kinetic density : F

  Species: H

  List of occupied orbitals and eigenvalues:
    n    l              occ      energy [Ha]    energy [eV]
    1    0           1.0000        -0.232375        -6.3233


  Species: O

  List of occupied orbitals and eigenvalues:
    n    l              occ      energy [Ha]    energy [eV]
    1    0           2.0000       -18.757744      -510.4242
    2    0           2.0000        -0.870917       -23.6989
    2    1           4.0000        -0.337950        -9.1961


  Adding cutoff potential to free-atom effective potential.
  Creating fixed part of basis set: Ionic, confined, hydrogenic.
 
  H                    hydrogenic:
 
  List of hydrogenic basis orbitals: 
    n    l      effective z      eigenvalue [eV]  inner max. [A]     outer max. [A]     outer radius [A]   
    2    0         2.100000       -14.9728           0.193243           1.317208           4.696947
    2    1         3.500000       -41.6669           0.602369           0.602369           3.862494
 
 
  O                    hydrogenic:
 
  List of hydrogenic basis orbitals: 
    n    l      effective z      eigenvalue [eV]  inner max. [A]     outer max. [A]     outer radius [A]   
    2    1         1.800000       -10.9749           1.164242           1.164242           4.691341
    3    2         7.600000       -87.3180           0.624125           0.624125           3.413946
    3    0         6.400000       -61.9207           0.061167           1.081902           4.151495
 
  Creating atomic-like basis functions for current effective potential.

  Species H                   :

  List of atomic basis orbitals and eigenvalues:
    n    l      energy [Ha]    energy [eV]    outer radius [A]
    1    0        -0.232375        -6.3233       4.696947


  Species O                   :

  List of atomic basis orbitals and eigenvalues:
    n    l      energy [Ha]    energy [eV]    outer radius [A]
    1    0       -18.757744      -510.4242       1.830144
    2    0        -0.870917       -23.6989       4.578029
    2    1        -0.337950        -9.1961       4.634338

  Assembling full basis from fixed parts.
  | Species H :   atomic orbital   1 s accepted.
  | Species H :    hydro orbital   2 s accepted.
  | Species H :    hydro orbital   2 p accepted.
  | Species O :   atomic orbital   1 s accepted.
  | Species O :    hydro orbital   3 s accepted.
  | Species O :   atomic orbital   2 s accepted.
  | Species O :   atomic orbital   2 p accepted.
  | Species O :    hydro orbital   2 p accepted.
  | Species O :    hydro orbital   3 d accepted.
 
  Basis size parameters after reduction:
  | Total number of radial functions:        9
  | Total number of basis functions :      768
 
  Per-task memory consumption for arrays in subroutine allocate_ext:
  |           2.268304MB.
  Testing on-site integration grid accuracy.
  |  Species  Function  <phi|h_atom|phi> (log., in eV)  <phi|h_atom|phi> (rad., in eV)
           1        1                 -6.3245358373                 -6.3232436907
           1        2                 14.1326137532                 14.1384481100
           1        3                 25.3627025200                 25.3628451197
           2        4               -510.4241781764               -510.4240769407
           2        5                 14.9072942213                 14.9072945271
           2        6                -21.2004736474                -21.2005650551
           2        7                 -9.1962086505                 -9.1963509834
           2        8                  8.1896755006                  8.1702200081
           2        9                 45.7920584937                 45.7920228520

  Preparing densities etc. for the partition functions (integrals / Hartree potential).

  Preparations completed.
  max(cpu_time)          :      0.076 s.
  Wall clock time (cpu1) :      0.067 s.
------------------------------------------------------------

  Initializing index lists of integration centers etc. from given atomic structure:
  Mapping all atomic coordinates to central unit cell.

  Initializing the k-points
  Using symmetry for reducing the k-points
  | k-points reduced from:        1 to        1
  | Number of k-points                             :         1
  | Consuming          0 KiB for k_phase_exx.
  The eigenvectors in the calculations are REAL.
  | Number of basis functions in the Hamiltonian integrals :      4208
  | Number of basis functions in a single unit cell        :       768
  | Number of centers in hartree potential         :      2673
  | Number of centers in hartree multipole         :      1943
  | Number of centers in electron density summation:      1516
  | Number of centers in basis integrals           :      1587
  | Number of centers in integrals                 :       676
  | Number of centers in hamiltonian               :      1516
  | Consuming          0 KiB for k_phase.
  | Number of super-cells (origin) [n_cells]                     :         125
  | Number of super-cells (after PM_index) [n_cells]             :          28
  | Number of super-cells in hamiltonian [n_cells_in_hamiltonian]:          28
  | Size of matrix packed + index [n_hamiltonian_matrix_size] :      765722
  | Size of matrix packed + index (no_symmetry):     1530675

------------------------------------------------------------
          Begin self-consistency loop: Initialization.

          Date     :  20230221, Time     :  121608.546
------------------------------------------------------------
  | Estimated reciprocal-space cutoff momentum G_max:         3.13264065 bohr^-1 .
  | Reciprocal lattice points for long-range Hartree potential:    3430
  Using simple linear distribution as default method for k-point parallelism.
  * Using 18 tasks for Scalapack Eigenvalue solver.
  Detailed listing of tasks and assigned k-points:
   Task     0 k-point     1 on adag040
   Task     1 k-point     1 on adag040
   Task     2 k-point     1 on adag040
   Task     3 k-point     1 on adag040
   Task     4 k-point     1 on adag040
   Task     5 k-point     1 on adag040
   Task     6 k-point     1 on adag040
   Task     7 k-point     1 on adag040
   Task     8 k-point     1 on adag040
   Task     9 k-point     1 on adag040
   Task    10 k-point     1 on adag040
   Task    11 k-point     1 on adag040
   Task    12 k-point     1 on adag040
   Task    13 k-point     1 on adag040
   Task    14 k-point     1 on adag040
   Task    15 k-point     1 on adag040
   Task    16 k-point     1 on adag040
   Task    17 k-point     1 on adag040
  K-point:     1 Tasks:    18 split into      6 X      3 BLACS grid
  Calculating block size based on n_basis =          768  max_nprow =            6  max_npcol =            3
  ScaLAPACK block size set to:           16
  Allocating        0.250 MB for ovlp
  Allocating        0.250 MB for ham
  Allocating        0.250 MB for eigenvec
  Required Scalapack workspace - INTEGER:            1  REAL:             1
  Partitioning the integration grid into batches with parallel hashing+maxmin method.
  | Number of batches:     3783
  | Maximal batch size:     200
  | Minimal batch size:      99
  | Average batch size:     134.699
  | Standard deviation of batch sizes:      27.313

  Integration load balanced across    18 MPI tasks.
  Work distribution over tasks is as follows:
  Task     0 has      28360 integration points.
  Task     1 has      28305 integration points.
  Task     2 has      28255 integration points.
  Task     3 has      28317 integration points.
  Task     4 has      28258 integration points.
  Task     5 has      28253 integration points.
  Task     6 has      28351 integration points.
  Task     7 has      28260 integration points.
  Task     8 has      28367 integration points.
  Task     9 has      28366 integration points.
  Task    10 has      28243 integration points.
  Task    11 has      28349 integration points.
  Task    12 has      28320 integration points.
  Task    13 has      28306 integration points.
  Task    14 has      28389 integration points.
  Task    15 has      28248 integration points.
  Task    16 has      28260 integration points.
  Task    17 has      28361 integration points.
  Initializing partition tables, free-atom densities, potentials, etc. across the integration grid (initialize_grid_storage).
  | initialize_grid_storage: Actual outermost partition radius vs. multipole_radius_free
  | (-- VB: in principle, multipole_radius_free should be larger, hence this output)
  | Species        1: Confinement radius =              4.999999999999999 AA, multipole_radius_free =              5.054417573612229 AA.
  | Species        1: outer_partition_radius set to              5.054417573612229 AA .
  | Species        2: Confinement radius =              4.999999999999999 AA, multipole_radius_free =              5.048384829883283 AA.
  | Species        2: outer_partition_radius set to              5.048384829883283 AA .
  | The sparse table of interatomic distances needs       5142.47 kbyte instead of     20148.55 kbyte of memory.
  | Net number of integration points:   509568
  | of which are non-zero points    :   407066
  | Numerical average free-atom electrostatic potential    :     -5.25339063 eV
  Renormalizing the initial density to the exact electron count on the 3D integration grid.
  | Initial density: Formal number of electrons (from input files) :     320.0000000000
  | Integrated number of electrons on 3D grid     :     319.9970039126
  | Charge integration error                      :      -0.0029960874
  | Normalization factor for density and gradient :       1.0000093629
  Renormalizing the free-atom superposition density to the exact electron count on the 3D integration grid.
  | Formal number of electrons (from input files) :     320.0000000000
  | Integrated number of electrons on 3D grid     :     319.9970039126
  | Charge integration error                      :      -0.0029960874
  | Normalization factor for density and gradient :       1.0000093629
  Obtaining max. number of non-zero basis functions in each batch (get_n_compute_maxes).
  | Maximal number of non-zero basis functions:      404 in task     0
  | Maximal number of non-zero basis functions:      427 in task     1
  | Maximal number of non-zero basis functions:      417 in task     2
  | Maximal number of non-zero basis functions:      421 in task     3
  | Maximal number of non-zero basis functions:      430 in task     4
  | Maximal number of non-zero basis functions:      414 in task     5
  | Maximal number of non-zero basis functions:      406 in task     6
  | Maximal number of non-zero basis functions:      428 in task     7
  | Maximal number of non-zero basis functions:      412 in task     8
  | Maximal number of non-zero basis functions:      412 in task     9
  | Maximal number of non-zero basis functions:      409 in task    10
  | Maximal number of non-zero basis functions:      417 in task    11
  | Maximal number of non-zero basis functions:      401 in task    12
  | Maximal number of non-zero basis functions:      436 in task    13
  | Maximal number of non-zero basis functions:      414 in task    14
  | Maximal number of non-zero basis functions:      435 in task    15
  | Maximal number of non-zero basis functions:      418 in task    16
  | Maximal number of non-zero basis functions:      426 in task    17
  Integrating Hamiltonian matrix: batch-based integration.
  GPU acceleration will be used when integrating the Hamiltonian matrix.
  Reporting GPU memory usage by myid 0.  Note that it is likely not the only MPI task binding to its GPU!
  Allocating        1.306 MB on GPU for hamiltonian_shell
  Allocating        0.646 MB on GPU for wave
  Allocating        0.002 MB on GPU for partition
  Allocating        0.646 MB on GPU for h_times_psi
  Time summed over all CPUs for integration: real work       14.199 s, elapsed       14.690 s
  Deallocating memory used on GPU for Hamiltonian integration.
  Integrating overlap matrix.
  Time summed over all CPUs for integration: real work       11.651 s, elapsed       12.221 s
  Deallocating overlap matrix.

  Updating Kohn-Sham eigenvalues and eigenvectors using ELSI and the ELPA eigensolver.
  Singularity check in k-point 1 (analysis for other k-points may follow below):
  Overlap matrix is not singular
  | Lowest and highest eigenvalues :  0.2636E-02,  0.7323E+01
  Finished singularity check of overlap matrix
  | Time :     0.150 s
  Starting ELPA eigensolver (GPU)
  Finished Cholesky decomposition
  | Time :     0.034 s
  Finished transformation to standard eigenproblem
  | Time :     0.059 s
  Finished solving standard eigenproblem
  | Time :     0.761 s
  Finished back-transformation of eigenvectors
  | Time :     0.066 s

  Obtaining occupation numbers and electronic chemical potential using ELSI.
  | Note that, for insulating systems, the printed 'chemical potential' value is not uniquely defined.
  | It can be anywhere in the energy gap, as long as it correctly separates occupied and unoccupied states.
  | In systems with a gap, the physically relevant chemical potential is the VBM or HOMO.

  | Chemical potential (Fermi level):    -7.54067302 eV
  Writing Kohn-Sham eigenvalues.

  State    Occupation    Eigenvalue [Ha]    Eigenvalue [eV]
      1       2.00000         -18.919476         -514.82514
      2       2.00000         -18.907911         -514.51043
      3       2.00000         -18.907890         -514.50986
      4       2.00000         -18.907530         -514.50008
      5       2.00000         -18.905269         -514.43854
      6       2.00000         -18.902441         -514.36160
      7       2.00000         -18.899662         -514.28597
      8       2.00000         -18.896612         -514.20298
      9       2.00000         -18.894546         -514.14676
     10       2.00000         -18.889947         -514.02161
     11       2.00000         -18.882080         -513.80753
     12       2.00000         -18.881370         -513.78823
     13       2.00000         -18.875276         -513.62240
     14       2.00000         -18.872824         -513.55566
     15       2.00000         -18.870280         -513.48644
     16       2.00000         -18.869150         -513.45569
     17       2.00000         -18.867976         -513.42375
     18       2.00000         -18.866241         -513.37654
     19       2.00000         -18.862710         -513.28046
     20       2.00000         -18.859983         -513.20625
     21       2.00000         -18.858614         -513.16900
     22       2.00000         -18.858003         -513.15237
     23       2.00000         -18.857907         -513.14975
     24       2.00000         -18.857086         -513.12742
     25       2.00000         -18.855732         -513.09059
     26       2.00000         -18.854211         -513.04919
     27       2.00000         -18.852046         -512.99027
     28       2.00000         -18.851141         -512.96564
     29       2.00000         -18.851000         -512.96181
     30       2.00000         -18.848676         -512.89858
     31       2.00000         -18.847671         -512.87122
     32       2.00000         -18.836309         -512.56205
     33       2.00000          -1.190895          -32.40589
     34       2.00000          -1.169434          -31.82191
     35       2.00000          -1.160382          -31.57561
     36       2.00000          -1.159527          -31.55233
     37       2.00000          -1.155075          -31.43118
     38       2.00000          -1.147148          -31.21548
     39       2.00000          -1.146614          -31.20096
     40       2.00000          -1.144684          -31.14844
     41       2.00000          -1.134643          -30.87521
     42       2.00000          -1.131447          -30.78823
     43       2.00000          -1.129049          -30.72300
     44       2.00000          -1.112804          -30.28093
     45       2.00000          -1.110232          -30.21095
     46       2.00000          -1.105835          -30.09131
     47       2.00000          -1.103974          -30.04067
     48       2.00000          -1.099625          -29.92231
     49       2.00000          -1.097414          -29.86217
     50       2.00000          -1.094937          -29.79476
     51       2.00000          -1.091145          -29.69156
     52       2.00000          -1.087346          -29.58818
     53       2.00000          -1.077480          -29.31971
     54       2.00000          -1.075746          -29.27255
     55       2.00000          -1.075370          -29.26230
     56       2.00000          -1.073342          -29.20713
     57       2.00000          -1.070395          -29.12693
     58       2.00000          -1.069687          -29.10767
     59       2.00000          -1.068175          -29.06653
     60       2.00000          -1.065911          -29.00492
     61       2.00000          -1.064341          -28.96220
     62       2.00000          -1.061275          -28.87875
     63       2.00000          -1.058064          -28.79138
     64       2.00000          -1.033549          -28.12430
     65       2.00000          -0.717233          -19.51690
     66       2.00000          -0.712269          -19.38183
     67       2.00000          -0.698111          -18.99656
     68       2.00000          -0.697943          -18.99199
     69       2.00000          -0.694600          -18.90103
     70       2.00000          -0.692538          -18.84491
     71       2.00000          -0.691346          -18.81248
     72       2.00000          -0.685090          -18.64225
     73       2.00000          -0.670139          -18.23541
     74       2.00000          -0.667719          -18.16956
     75       2.00000          -0.655929          -17.84873
     76       2.00000          -0.652673          -17.76014
     77       2.00000          -0.649722          -17.67985
     78       2.00000          -0.649291          -17.66811
     79       2.00000          -0.645332          -17.56039
     80       2.00000          -0.643571          -17.51247
     81       2.00000          -0.640549          -17.43022
     82       2.00000          -0.638075          -17.36290
     83       2.00000          -0.635785          -17.30059
     84       2.00000          -0.633835          -17.24753
     85       2.00000          -0.631999          -17.19757
     86       2.00000          -0.626374          -17.04450
     87       2.00000          -0.622440          -16.93744
     88       2.00000          -0.609217          -16.57764
     89       2.00000          -0.608149          -16.54858
     90       2.00000          -0.603803          -16.43031
     91       2.00000          -0.601935          -16.37948
     92       2.00000          -0.601560          -16.36928
     93       2.00000          -0.594935          -16.18901
     94       2.00000          -0.590407          -16.06580
     95       2.00000          -0.583472          -15.87709
     96       2.00000          -0.582302          -15.84524
     97       2.00000          -0.577464          -15.71361
     98       2.00000          -0.576121          -15.67704
     99       2.00000          -0.574225          -15.62545
    100       2.00000          -0.567698          -15.44784
    101       2.00000          -0.558983          -15.21071
    102       2.00000          -0.556393          -15.14023
    103       2.00000          -0.554873          -15.09886
    104       2.00000          -0.551795          -15.01511
    105       2.00000          -0.550558          -14.98145
    106       2.00000          -0.546111          -14.86044
    107       2.00000          -0.541792          -14.74292
    108       2.00000          -0.540912          -14.71898
    109       2.00000          -0.537223          -14.61857
    110       2.00000          -0.536041          -14.58641
    111       2.00000          -0.534559          -14.54609
    112       2.00000          -0.532422          -14.48794
    113       2.00000          -0.530635          -14.43933
    114       2.00000          -0.527645          -14.35794
    115       2.00000          -0.526067          -14.31501
    116       2.00000          -0.522700          -14.22340
    117       2.00000          -0.520817          -14.17215
    118       2.00000          -0.518058          -14.09708
    119       2.00000          -0.517232          -14.07459
    120       2.00000          -0.515862          -14.03733
    121       2.00000          -0.511463          -13.91762
    122       2.00000          -0.509673          -13.86891
    123       2.00000          -0.502767          -13.68098
    124       2.00000          -0.499754          -13.59900
    125       2.00000          -0.498607          -13.56780
    126       2.00000          -0.494246          -13.44911
    127       2.00000          -0.490898          -13.35802
    128       2.00000          -0.486592          -13.24085
    129       2.00000          -0.485781          -13.21878
    130       2.00000          -0.483252          -13.14996
    131       2.00000          -0.482617          -13.13267
    132       2.00000          -0.480888          -13.08563
    133       2.00000          -0.479326          -13.04314
    134       2.00000          -0.476198          -12.95800
    135       2.00000          -0.473408          -12.88209
    136       2.00000          -0.473087          -12.87335
    137       2.00000          -0.471521          -12.83073
    138       2.00000          -0.470139          -12.79314
    139       2.00000          -0.465524          -12.66754
    140       2.00000          -0.461355          -12.55410
    141       2.00000          -0.459531          -12.50449
    142       2.00000          -0.458359          -12.47259
    143       2.00000          -0.456132          -12.41198
    144       2.00000          -0.454936          -12.37943
    145       2.00000          -0.453490          -12.34009
    146       2.00000          -0.452946          -12.32529
    147       2.00000          -0.452354          -12.30918
    148       2.00000          -0.449012          -12.21825
    149       2.00000          -0.447531          -12.17794
    150       2.00000          -0.445847          -12.13212
    151       2.00000          -0.444888          -12.10602
    152       2.00000          -0.442130          -12.03096
    153       2.00000          -0.440879          -11.99693
    154       2.00000          -0.440282          -11.98067
    155       2.00000          -0.436613          -11.88085
    156       2.00000          -0.436351          -11.87371
    157       2.00000          -0.435963          -11.86316
    158       2.00000          -0.434828          -11.83228
    159       2.00000          -0.431059          -11.72971
    160       2.00000          -0.429043          -11.67486
    161       0.00000          -0.174858           -4.75812
    162       0.00000          -0.121453           -3.30492
    163       0.00000          -0.117501           -3.19737
    164       0.00000          -0.109944           -2.99172
    165       0.00000          -0.105302           -2.86541
    166       0.00000          -0.105053           -2.85865
    167       0.00000          -0.102687           -2.79425
    168       0.00000          -0.074744           -2.03389
    169       0.00000          -0.073482           -1.99953
    170       0.00000          -0.068621           -1.86726
    171       0.00000          -0.062707           -1.70634
    172       0.00000          -0.062525           -1.70139
    173       0.00000          -0.057306           -1.55937
    174       0.00000          -0.053018           -1.44270
    175       0.00000          -0.048004           -1.30627
    176       0.00000          -0.045849           -1.24761
    177       0.00000          -0.043099           -1.17278
    178       0.00000          -0.037752           -1.02728
    179       0.00000          -0.032749           -0.89114
    180       0.00000          -0.025928           -0.70555
    181       0.00000          -0.019315           -0.52559
    182       0.00000          -0.015239           -0.41469
    183       0.00000          -0.006664           -0.18133
    184       0.00000          -0.003693           -0.10050
    185       0.00000          -0.001409           -0.03835
    186       0.00000           0.000849            0.02310
    187       0.00000           0.011024            0.29997
    188       0.00000           0.014646            0.39854
    189       0.00000           0.019851            0.54018
    190       0.00000           0.021911            0.59622
    191       0.00000           0.028164            0.76639
    192       0.00000           0.028943            0.78758
    193       0.00000           0.033642            0.91546
    194       0.00000           0.036359            0.98937
    195       0.00000           0.041649            1.13333
    196       0.00000           0.043009            1.17032
    197       0.00000           0.044969            1.22367
    198       0.00000           0.047479            1.29196
    199       0.00000           0.052142            1.41885
    200       0.00000           0.054879            1.49335
    201       0.00000           0.058293            1.58623
    202       0.00000           0.059661            1.62346
    203       0.00000           0.061925            1.68508
    204       0.00000           0.068324            1.85918
    205       0.00000           0.070549            1.91974
    206       0.00000           0.073486            1.99967
    207       0.00000           0.075245            2.04752
    208       0.00000           0.078801            2.14428
    209       0.00000           0.085170            2.31758
    210       0.00000           0.090105            2.45187
    211       0.00000           0.091212            2.48200
    212       0.00000           0.094223            2.56394
    213       0.00000           0.096184            2.61731
    214       0.00000           0.098749            2.68710
    215       0.00000           0.101048            2.74966
    216       0.00000           0.103603            2.81919
    217       0.00000           0.108764            2.95962
    218       0.00000           0.112399            3.05854
    219       0.00000           0.114676            3.12048
    220       0.00000           0.115561            3.14456
    221       0.00000           0.120445            3.27747
    222       0.00000           0.123453            3.35932
    223       0.00000           0.126286            3.43643
    224       0.00000           0.133926            3.64430
    225       0.00000           0.135794            3.69515
    226       0.00000           0.150710            4.10104
    227       0.00000           0.158119            4.30265
    228       0.00000           0.158458            4.31186
    229       0.00000           0.164874            4.48644
    230       0.00000           0.173110            4.71055
    231       0.00000           0.177990            4.84335
    232       0.00000           0.190086            5.17250
    233       0.00000           0.192571            5.24014
    234       0.00000           0.198971            5.41428
    235       0.00000           0.205830            5.60092
    236       0.00000           0.211905            5.76622
    237       0.00000           0.213780            5.81724
    238       0.00000           0.216849            5.90076
    239       0.00000           0.223808            6.09013
    240       0.00000           0.228960            6.23032
    241       0.00000           0.231510            6.29971
    242       0.00000           0.240409            6.54187
    243       0.00000           0.243008            6.61257
    244       0.00000           0.245722            6.68644
    245       0.00000           0.255734            6.95888
    246       0.00000           0.263522            7.17079
    247       0.00000           0.268069            7.29453
    248       0.00000           0.270588            7.36306
    249       0.00000           0.275721            7.50275
    250       0.00000           0.281523            7.66062
    251       0.00000           0.287047            7.81095
    252       0.00000           0.291204            7.92407
    253       0.00000           0.293172            7.97763
    254       0.00000           0.303221            8.25107
    255       0.00000           0.308409            8.39224
    256       0.00000           0.317526            8.64032
    257       0.00000           0.324633            8.83372
    258       0.00000           0.330497            8.99327
    259       0.00000           0.332989            9.06109
    260       0.00000           0.343860            9.35690
    261       0.00000           0.348520            9.48371
    262       0.00000           0.351531            9.56564
[...]
  |    H      0     4.527807 A      4.527807 A        1.268855E-16 a.u.
  |    H      0     4.527807 A      4.583499 A       -4.900954E-17 a.u.
  |    H      0     4.527807 A      4.583499 A        4.713786E-16 a.u.
  |    H      2     3.678162 A  2.180220E+05 A            0.556529 a.u.
  |    H      1     3.958095 A  1.721251E+08 A            0.841931 a.u.
  |    H      0     4.527807 A  3.866455E+16 A            0.581436 a.u.
  |    O      0     2.043000 A      2.043000 A       -1.436841E-16 a.u.
  |    O      3     3.498446 A      3.498446 A        3.043453E-17 a.u.
  |    O      3     3.498446 A      3.498446 A        1.541443E-16 a.u.
  |    O      0     3.905335 A      3.905335 A        2.173090E-16 a.u.
  |    O      0     3.905335 A      3.905335 A        7.213445E-17 a.u.
  |    O      0     4.101052 A      4.101052 A        2.361718E-16 a.u.
  |    O      1     4.101052 A      4.101052 A        3.235185E-17 a.u.
  |    O      0     4.359549 A      4.359549 A       -5.329475E-17 a.u.
  |    O      1     4.413171 A      4.413171 A        3.261883E-17 a.u.
  |    O      1     4.522403 A      4.522403 A        6.417997E-16 a.u.
  |    O      1     4.522403 A      4.522403 A        4.224783E-16 a.u.
  |    O      2     4.522403 A      4.522403 A       -4.387647E-16 a.u.
  |    O      0     4.522403 A      4.578029 A        2.602039E-16 a.u.
  |    O      0     4.578029 A      4.578029 A        1.226235E-16 a.u.
  |    O      1     4.578029 A      4.578029 A       -6.107316E-16 a.u.
  |    O      1     4.578029 A      4.578029 A       -2.224438E-16 a.u.
  |    O      2     4.578029 A      4.578029 A       -7.020279E-16 a.u.
  |    O      2     4.522403 A      4.578029 A        1.323470E-15 a.u.
  |    O      2     4.578029 A      4.578029 A        7.923696E-16 a.u.
  |    O      2     4.522403 A      4.578029 A       -9.951815E-16 a.u.
  |    O      0     4.578029 A      4.634338 A       -8.813582E-18 a.u.
  |    O      1     4.578029 A      4.634338 A       -3.325386E-17 a.u.
  |    O      1     4.634338 A      4.634338 A        9.588032E-16 a.u.
  |    O      2     4.578029 A      4.634338 A        1.064715E-17 a.u.
  |    O      2     4.578029 A      4.634338 A       -3.770343E-15 a.u.
  |    O      4     3.251020 A  1.511584E+03 A            1.513372 a.u.
  |    O      3     3.541477 A  1.434166E+04 A            4.293220 a.u.
  |    O      2     4.634338 A  5.584435E+05 A            9.352428 a.u.
  |    O      1     4.634338 A  2.821283E+08 A            2.261940 a.u.
  |    O      0     4.578029 A  4.264100E+16 A            0.641234 a.u.

  | Shrink_full_auxil_basis : there are       38  radial auxiliary wave functions
                            accepted and       5 rejected.
  | Shrink_full_auxil_basis : there are totally                4544 partial auxiliary wave functions.
 
  | Maximal number of product basis functions per thread :   256   256
 
  | Minimal total memory requirement for three-center overlap :      10.450 Gbs
  | Number of local auxiliary basis functions on task:      0   256
  | Number of local auxiliary basis functions on task:      1   256
  | Number of local auxiliary basis functions on task:      2   256
  | Number of local auxiliary basis functions on task:      3   256
  | Number of local auxiliary basis functions on task:      4   256
  | Number of local auxiliary basis functions on task:      5   256
  | Number of local auxiliary basis functions on task:      6   256
  | Number of local auxiliary basis functions on task:      7   256
  | Number of local auxiliary basis functions on task:      8   256
  | Number of local auxiliary basis functions on task:      9   256
  | Number of local auxiliary basis functions on task:     10   256
  | Number of local auxiliary basis functions on task:     11   256
  | Number of local auxiliary basis functions on task:     12   256
  | Number of local auxiliary basis functions on task:     13   256
  | Number of local auxiliary basis functions on task:     14   240
  | Number of local auxiliary basis functions on task:     15   240
  | Number of local auxiliary basis functions on task:     16   240
  | Number of local auxiliary basis functions on task:     17   240
  | 2D aux task distribution:      3 X      6
  | 2D block size (nb_aux_2d):     64
 
  Basis pair condensation :    295296  -->     220566
 
 --------------------------------------------
  Constructing auxiliary basis (full product) ...
 
  Product basis:
  | charge radius: extent of product basis function
  | field radius: extent of its Coulomb potential
  | Species   l  charge radius    field radius  multipol momen
  |    H      1     3.910002 A      3.910002 A       -2.487223E-16 a.u.
  |    H      1     3.958095 A      3.958095 A       -2.441841E-16 a.u.
  |    H      0     4.527807 A      4.527807 A        1.268855E-16 a.u.
  |    H      0     4.527807 A      4.583499 A       -4.900954E-17 a.u.
  |    H      0     4.527807 A      4.583499 A        4.713786E-16 a.u.
  |    H      2     3.678162 A  2.180220E+05 A            0.556529 a.u.
  |    H      1     3.958095 A  1.721251E+08 A            0.841931 a.u.
  |    H      0     4.527807 A  3.866455E+16 A            0.581436 a.u.
  |    O      0     2.043000 A      2.043000 A       -1.436841E-16 a.u.
  |    O      3     3.498446 A      3.498446 A        3.043453E-17 a.u.
  |    O      3     3.498446 A      3.498446 A        1.541443E-16 a.u.
  |    O      0     3.905335 A      3.905335 A        2.173090E-16 a.u.
  |    O      0     3.905335 A      3.905335 A        7.213445E-17 a.u.
  |    O      0     4.101052 A      4.101052 A        2.361718E-16 a.u.
  |    O      1     4.101052 A      4.101052 A        3.235185E-17 a.u.
  |    O      0     4.359549 A      4.359549 A       -5.329475E-17 a.u.
  |    O      1     4.413171 A      4.413171 A        3.261883E-17 a.u.
  |    O      1     4.522403 A      4.522403 A        6.417997E-16 a.u.
  |    O      1     4.522403 A      4.522403 A        4.224783E-16 a.u.
  |    O      2     4.522403 A      4.522403 A       -4.387647E-16 a.u.
  |    O      0     4.522403 A      4.578029 A        2.602039E-16 a.u.
  |    O      0     4.578029 A      4.578029 A        1.226235E-16 a.u.
  |    O      1     4.578029 A      4.578029 A       -6.107316E-16 a.u.
  |    O      1     4.578029 A      4.578029 A       -2.224438E-16 a.u.
  |    O      2     4.578029 A      4.578029 A       -7.020279E-16 a.u.
  |    O      2     4.522403 A      4.578029 A        1.323470E-15 a.u.
  |    O      2     4.578029 A      4.578029 A        7.923696E-16 a.u.
  |    O      2     4.522403 A      4.578029 A       -9.951815E-16 a.u.
  |    O      0     4.578029 A      4.634338 A       -8.813582E-18 a.u.
  |    O      1     4.578029 A      4.634338 A       -3.325386E-17 a.u.
  |    O      1     4.634338 A      4.634338 A        9.588032E-16 a.u.
  |    O      2     4.578029 A      4.634338 A        1.064715E-17 a.u.
  |    O      2     4.578029 A      4.634338 A       -3.770343E-15 a.u.
  |    O      4     3.251020 A  1.511584E+03 A            1.513372 a.u.
  |    O      3     3.541477 A  1.434166E+04 A            4.293220 a.u.
  |    O      2     4.634338 A  5.584435E+05 A            9.352428 a.u.
  |    O      1     4.634338 A  2.821283E+08 A            2.261940 a.u.
  |    O      0     4.578029 A  4.264100E+16 A            0.641234 a.u.

  | Shrink_full_auxil_basis : there are       38  radial auxiliary wave functions
                            accepted and       5 rejected.
  | Shrink_full_auxil_basis : there are totally                4544 partial auxiliary wave functions.
 
  | Maximal number of product basis functions per thread :   256   256
 
  | Minimal total memory requirement for three-center overlap :      10.450 Gbs
  | Number of local auxiliary basis functions on task:      0   256
  | Number of local auxiliary basis functions on task:      1   256
  | Number of local auxiliary basis functions on task:      2   256
  | Number of local auxiliary basis functions on task:      3   256
  | Number of local auxiliary basis functions on task:      4   256
  | Number of local auxiliary basis functions on task:      5   256
  | Number of local auxiliary basis functions on task:      6   256
  | Number of local auxiliary basis functions on task:      7   256
  | Number of local auxiliary basis functions on task:      8   256
  | Number of local auxiliary basis functions on task:      9   256
  | Number of local auxiliary basis functions on task:     10   256
  | Number of local auxiliary basis functions on task:     11   256
  | Number of local auxiliary basis functions on task:     12   256
  | Number of local auxiliary basis functions on task:     13   256
  | Number of local auxiliary basis functions on task:     14   240
  | Number of local auxiliary basis functions on task:     15   240
  | Number of local auxiliary basis functions on task:     16   240
  | Number of local auxiliary basis functions on task:     17   240
  | 2D aux task distribution:      3 X      6
  | 2D block size (nb_aux_2d):     64
 
  Basis pair condensation :    295296  -->     220566
dP_dE (Bohr^3) at every cycle:--->
 (341.400247007046,0.000000000000000E+000) (11.5266508358723,0.000000000000000E+000) (-9.92339062677541,0.000000000000000E+000)
 (11.5351661141299,0.000000000000000E+000) (346.776566793164,0.000000000000000E+000) (8.24996919424389,0.000000000000000E+000)
 (-9.91957161749359,0.000000000000000E+000) (8.24896211953519,0.000000000000000E+000) (361.528903683098,0.000000000000000E+000)
DFPT polarizability (Bohr^3)        xx        yy        zz        xy        xz        yz
  | Polarizability:--->                       341.400247007                  346.776566793                  361.528903683                   11.526650836                   -9.923390627                    8.249969194

DFPT for dielectric_constant:--->  # PARSE DFPT_dielectric_tensor
               1.640875259944038             0.021637785606439            -0.018628151570522
               0.021653770454765             1.650967667230433             0.015486811149795
              -0.018620982540659             0.015484920672938             1.678660698568289

                                               :  max(cpu_time)    wall_clock(cpu1)
  | Time for  dielectric calculation            :        0.000 s           0.000 s
===========================================================================

------------------------------------------------------------------------------
  Final output of selected total energy values:

  The following output summarizes some interesting total energy values
  at the end of a run (AFTER all relaxation, molecular dynamics, etc.).

  | Total energy of the DFT / Hartree-Fock s.c.f. calculation      :         -66107.936170676 eV
  | Final zero-broadening corrected energy (caution - metals only) :         -66107.936170676 eV
  | For reference only, the value of 1 Hartree used in FHI-aims is :             27.211384500 eV
  | For reference only, the overall average (free atom contribution
  | + realspace contribution) of the electrostatic potential after
  | s.c.f. convergence is                                          :             -4.834622540 eV

  Before relying on these values, please be sure to understand exactly which
  total energy value is referred to by a given number. Different objects may
  all carry the same name 'total energy'. Definitions:

  Total energy of the DFT / Hartree-Fock s.c.f. calculation:
  | Note that this energy does not include ANY quantities calculated after the
  | s.c.f. cycle, in particular not ANY RPA, MP2, etc. many-body perturbation terms.

  Final zero-broadening corrected energy:
  | For metallic systems only, a broadening of the occupation numbers at the Fermi
  | level can be extrapolated back to zero broadening by an electron-gas inspired
  | formula. For all systems that are not real metals, this value can be
  | meaningless and should be avoided.

------------------------------------------------------------------------------
  Methods described in the following list of references were used in this FHI-aims run.
  If you publish the results, please make sure to cite these reference if they apply.
  FHI-aims is an academic code, and for our developers (often, Ph.D. students
  and postdocs), scientific credit in the community is essential.
  Thank you for helping us!

  For any use of FHI-aims, please cite:

    Volker Blum, Ralf Gehrke, Felix Hanke, Paula Havu, Ville Havu,
    Xinguo Ren, Karsten Reuter, and Matthias Scheffler
    'Ab initio molecular simulations with numeric atom-centered orbitals'
    Computer Physics Communications 180, 2175-2196 (2009)
    http://doi.org/10.1016/j.cpc.2009.06.022


  For Hartree-Fock, hybrid functionals, or many-body perturbation theory used in your run, please cite:

    Xinguo Ren, Patrick Rinke, Volker Blum, Juergen Wieferink, Alex Tkatchenko,
    Andrea Sanfilippo, Karsten Reuter, and Matthias Scheffler,
    'Resolution-of-identity approach to Hartree-Fock, hybrid density functionals,
    RPA, MP2, and GW with numeric atom-centered orbital basis functions'
    New Journal of Physics 14, 053020 (2012).
    http://doi.org/10.1088/1367-2630/14/5/053020


  The provided symmetry information was generated with SPGlib:

    Atsushi Togo, Yusuke Seto, Dimitar Pashov
    SPGlib 1.7.3 obtained from http://spglib.sourceforge.net
    Copyright (C) 2008 Atsushi Togo


  The DFPT (perturbation by an electric field) part of the code was used.
  Here is the corresponding reference:

    Honghui Shang, Nathaniel Raimbault, Mariana Rossi,
    Christian Carbogno, Patrick Rinke and Matthias Scheffler,
    'All-Electron, Real-Space Perturbation Theory for Homogeneous
    Electric Fields: Theory, Implementation, and Application within dft'
    New Journal of Physics, 20(7):073040, 2018


  The ELSI infrastructure was used in your run to solve the Kohn-Sham electronic structure.
  Please check out http://elsi-interchange.org to learn more.
  If scalability is important for your project, please acknowledge ELSI by citing:

    V. W-z. Yu, F. Corsetti, A. Garcia, W. P. Huhn, M. Jacquelin, W. Jia,
    B. Lange, L. Lin, J. Lu, W. Mi, A. Seifitokaldani, A. Vazquez-Mayagoitia,
    C. Yang, H. Yang, and V. Blum
    'ELSI: A unified software interface for Kohn-Sham electronic structure solvers'
    Computer Physics Communications 222, 267-285 (2018).
    http://doi.org/10.1016/j.cpc.2017.09.007


  For the real-space grid partitioning and parallelization used in this calculation, please cite:

    Ville Havu, Volker Blum, Paula Havu, and Matthias Scheffler,
    'Efficient O(N) integration for all-electron electronic structure calculation'
    'using numerically tabulated basis functions'
    Journal of Computational Physics 228, 8367-8379 (2009).
    http://doi.org/10.1016/j.jcp.2009.08.008


  The high-level electronic structure method used in your calculation
  employed our efficient localized resolution of identity for the Coulomb operator.
  Some calculations, especially large-scale hybrid density functional theory,
  are only possible thanks to this development. For this feature, please cite:

    Arvid Ihrig, Juergen Wieferink, Igor Ying Zhang, Matti Ropo, Xinguo Ren,
    Patrick Rinke, Matthias Scheffler, and Volker Blum,
    'Accurate localized resolution of identity approach for linear-scaling
    hybrid density functionals and for many-body perturbation theory'
    New Journal of Physics 117, 093020 (2015).
    http://doi.org/10.1088/1367-2630/17/9/093020

  Of course, there are many other important community references, e.g., those cited in the
  above references. Our list is limited to references that describe implementations in the
  FHI-aims code. The reason is purely practical (length of this list) - please credit others as well.

------------------------------------------------------------
          Leaving FHI-aims.
          Date     :  20230221, Time     :  122414.811

          Computational steps:
          | Number of self-consistency cycles          :           45
          | Number of SCF (re)initializations          :            1
          | Number of coupled perturbed self-consistency cycles          :            0
          | Number of CPSCF (re)initializations          :            0

          Detailed time accounting                     :  max(cpu_time)    wall_clock(cpu1)
          | Total time                                  :      486.596 s         525.076 s
          | GPU initialization                          :        4.718 s          34.728 s
          | Preparation time                            :        0.076 s           0.067 s
          | Boundary condition initalization            :        1.271 s           1.271 s
          | Grid partitioning                           :        0.425 s           0.425 s
          | Preloading free-atom quantities on grid     :        2.317 s           2.315 s
          | Free-atom superposition energy              :        0.309 s           0.309 s
          | Total time for integrations                 :       12.988 s          13.205 s
          | Product basis setup: Total time             :        0.000 s           0.000 s
          | Product basis: | 2-center integrations     :(       0.000 s)  (       0.000 s)
          | Product basis: | LVL 3-center & coefficient:(       0.000 s)  (       0.000 s)
          | Total time for solution of K.-S. equations  :        2.681 s           6.413 s
          | Total time for density update               :        9.266 s           9.821 s
          | Total time for mixing & preconditioning     :        8.720 s           8.724 s
          | Total time for Hartree multipole update     :        0.107 s           0.108 s
          | Total time for Hartree multipole sum        :       38.533 s          38.549 s
          | Total time for total energy evaluation      :        0.008 s           0.008 s
          | Total time for DFPT                         :      400.648 s         400.811 s
          | Total time first_order_DM                   :        0.277 s           0.275 s
          | Total time first_order_density              :       76.844 s          76.859 s
          | Total time first_order_potential            :       52.654 s          52.672 s
          | Total time first_order_H                    :      152.491 s         152.541 s
          | Total time solving of Sternheimer equations :        0.169 s           0.169 s
          | Total time for dielectric constant          :        0.000 s           0.000 s
          | Total time momentum matrix                  :        0.000 s           0.000 s

          GPU acceleration has been used for charge density update.
          GPU acceleration has been used for real-space Hamiltonian integration.
          Due to GPU usage, wall_clock(cpu1) will give a more reliable estimate for timings.

          Partial memory accounting:
          | Residual value for overall tracked memory usage across tasks:     0.000000 MB (should be 0.000000 MB)
          | Peak values for overall tracked memory usage:
          |   Minimum:      114.671 MB (on task  0 after allocating DFPT_pulay_mixing::pulay_mix::alphas)
          |   Maximum:      114.671 MB (on task  0 after allocating DFPT_pulay_mixing::pulay_mix::alphas)
          |   Average:      114.671 MB
          | Largest tracked array allocation:
          |   Minimum:       40.894 MB (DFPT_pulay_mixing::initialize_pulay_mixing::X_in_diffs on task  0)
          |   Maximum:       40.894 MB (DFPT_pulay_mixing::initialize_pulay_mixing::X_in_diffs on task  0)
          |   Average:       40.894 MB
          Note:  These values currently only include a subset of arrays which are explicitly tracked.
          The "true" memory usage will be greater.

          Have a nice day.
------------------------------------------------------------
