------------------------------------------------------------
          Invoking FHI-aims ...

          When using FHI-aims, please cite the following reference:

            Volker Blum, Ralf Gehrke, Felix Hanke, Paula Havu,
            Ville Havu, Xinguo Ren, Karsten Reuter, and Matthias Scheffler,
            'Ab Initio Molecular Simulations with Numeric Atom-Centered Orbitals',
            Computer Physics Communications 180, 2175-2196 (2009)

          In addition, many other developments in FHI-aims are likely important for
          your particular application. A partial list of references is given at the end of
          this file. Thank you for giving credit to the authors of these developments.

          For any questions about FHI-aims, please visit our slack channel at

            https://fhi-aims.slack.com

          and our main development and support site at

            https://aims-git.rz-berlin.mpg.de .

          The latter site, in particular, has a wiki to collect information, as well
          as an issue tracker to log discussions, suggest improvements, and report issues
          or bugs. https://aims-git.rz-berlin.mpg.de is also the main development site
          of the project and all new and updated code versions can be obtained there.
          Please send an email to aims-coordinators@fhi-berlin.mpg.de and we will add
          you to these sites. They are for you and everyone is welcome there.

------------------------------------------------------------



  Date     :  20230221, Time     :  155644.639
  Time zero on CPU 1             :   0.422952000000000E+00  s.
  Internal wall clock time zero  :           446227004.639  s.

  FHI-aims created a unique identifier for this run for later identification
  aims_uuid : 277E2DDD-596A-45E0-A4BD-90FE872911D6

  Build configuration of the current instance of FHI-aims
  -------------------------------------------------------
  FHI-aims version      : 221103
  Commit number         : 42523251a
  CMake host system     : Linux-5.3.18-150300.59.68-default
  CMake version         : 3.17.0
  Fortran compiler      : /mpcdf/soft/SLE_15/packages/x86_64/intel_oneapi/2021.3/mpi/2021.3.0/bin/mpiifort (Intel) version 20.2.3.20210609
  Fortran compiler flags: -O3 -ip -fp-model precise
  C compiler            : /mpcdf/soft/SLE_15/packages/x86_64/intel/2021.3.0/bin/icc (Intel) version 20.2.3.20210609
  C compiler flags      : -O3 -ip -fp-model precise -std=gnu99
  CUDA compiler         : /mpcdf/soft/SLE_15/packages/x86_64/cuda/11.6.2/bin/nvcc
  CUDA compiler flags   : -O3 -DAdd_ -lcublas
  HIP compiler          :
  HIP compiler flags    :
  HIP GPU arch          :
  ELPA2 kernel          : AVX512
  Using MPI
  Using ScaLAPACK
  Using LibXC
  Using CUDA
  Using i-PI
  Using RLSY
  Linking against: /mpcdf/soft/SLE_15/packages/x86_64/cuda/11.6.2/lib64/libcublas.so
                   /mpcdf/soft/SLE_15/packages/x86_64/cuda/11.6.2/lib64/libcudart.so
                   /mpcdf/soft/SLE_15/packages/x86_64/intel_oneapi/2021.3/mkl/latest/lib/intel64/libmkl_intel_lp64.so
                   /mpcdf/soft/SLE_15/packages/x86_64/intel_oneapi/2021.3/mkl/latest/lib/intel64/libmkl_sequential.so
                   /mpcdf/soft/SLE_15/packages/x86_64/intel_oneapi/2021.3/mkl/latest/lib/intel64/libmkl_core.so
                   /mpcdf/soft/SLE_15/packages/x86_64/intel_oneapi/2021.3/mkl/latest/lib/intel64/libmkl_blacs_intelmpi_lp64.so
                   /mpcdf/soft/SLE_15/packages/x86_64/intel_oneapi/2021.3/mkl/latest/lib/intel64/libmkl_scalapack_lp64.so

  Using       18 parallel tasks.
  Task        0 on host adag040 reporting.
  Task        1 on host adag040 reporting.
  Task        2 on host adag040 reporting.
  Task        3 on host adag040 reporting.
  Task        4 on host adag040 reporting.
  Task        5 on host adag040 reporting.
  Task        6 on host adag040 reporting.
  Task        7 on host adag040 reporting.
  Task        8 on host adag040 reporting.
  Task        9 on host adag040 reporting.
  Task       10 on host adag040 reporting.
  Task       11 on host adag040 reporting.
  Task       12 on host adag040 reporting.
  Task       13 on host adag040 reporting.
  Task       14 on host adag040 reporting.
  Task       15 on host adag040 reporting.
  Task       16 on host adag040 reporting.
  Task       17 on host adag040 reporting.

  Obtaining array dimensions for all initial allocations:
  
  -----------------------------------------------------------------------
  Parsing control.in (first pass over file, find array dimensions only).
  The contents of control.in will be repeated verbatim below
  unless switched off by setting 'verbatim_writeout .false.' .
  in the first line of control.in .
  -----------------------------------------------------------------------
  
  #########################################################################################
  #
  #  Volker Blum, 2017 : Test run input file control.in for simple H2O
  #
  #########################################################################################
  #
  #  Physical model
  #
    xc                 pw-lda
    spin               none
    relativistic       none
    charge             0.
  
    use_gpu
  
    DFPT dielectric
    ri_density_restart write
    ri_rho1 write
  #  ri_density_restart read 0
  #  ri_rho1 read
    ri_full_output .true.
    sc_accuracy_rho    1d-6
  #  use_calculate_fock_matrix_old .false.
  #  wave_threshold 1e-8
    k_grid 1 1 1
  #  output cube eigenstate 160
  #  output cube eigenstate 161
    wave_threshold 1e-8
    default_prodbas_acc 1e-6
    default_max_l_prodbas 6
  #
  #  Relaxation
  #
  #  relax_geometry   bfgs 1.e-2
  #
  
  ################################################################################
  
  
  ################################################################################
  #
  #  FHI-aims code project
  #  VB, Fritz-Haber Institut, 2009
  #
  #  Suggested "light" defaults for H atom (to be pasted into control.in file)
  #  Be sure to double-check any results obtained with these settings for post-processing,
  #  e.g., with the "tight" defaults and larger basis sets.
  #
  ################################################################################
    species        H
  #     global species definitions
      nucleus             1
      mass                1.00794
  #
      l_hartree           4
  #
      cut_pot             3.5  1.5  1.0
      basis_dep_cutoff    1e-4
  #
      radial_base         24 5.0
      radial_multiplier   1
      angular_grids       specified
        division   0.2421   50
        division   0.3822  110
        division   0.4799  194
        division   0.5341  302
  #      division   0.5626  434
  #      division   0.5922  590
  #      division   0.6542  770
  #      division   0.6868 1202
  #      outer_grid  770
        outer_grid  302
  ################################################################################
  #
  #  Definition of "minimal" basis
  #
  ################################################################################
  #     valence basis states
      valence      1  s   1.
  #     ion occupancy
      ion_occ      1  s   0.5
  ################################################################################
  #
  #  Suggested additional basis functions. For production calculations,
  #  uncomment them one after another (the most important basis functions are
  #  listed first).
  #
  #  Basis constructed for dimers: 0.5 A, 0.7 A, 1.0 A, 1.5 A, 2.5 A
  #
  ################################################################################
  #  "First tier" - improvements: -1014.90 meV to -62.69 meV
       hydro 2 s 2.1
       hydro 2 p 3.5
  #  "Second tier" - improvements: -12.89 meV to -1.83 meV
  #     hydro 1 s 0.85
  #     hydro 2 p 3.7
  #     hydro 2 s 1.2
  #     hydro 3 d 7
  #  "Third tier" - improvements: -0.25 meV to -0.12 meV
  #     hydro 4 f 11.2
  #     hydro 3 p 4.8
  #     hydro 4 d 9
  #     hydro 3 s 3.2
  ################################################################################
  #
  #  FHI-aims code project
  #  VB, Fritz-Haber Institut, 2009
  #
  #  Suggested "light" defaults for O atom (to be pasted into control.in file)
  #  Be sure to double-check any results obtained with these settings for post-processing,
  #  e.g., with the "tight" defaults and larger basis sets.
  #
  ################################################################################
    species        O
  #     global species definitions
      nucleus             8
      mass                15.9994
  #
      l_hartree           4
  #
      cut_pot             3.5  1.5  1.0
      basis_dep_cutoff    1e-4
  #
      radial_base         36 5.0
      radial_multiplier   1
       angular_grids specified
        division   0.2659   50
        division   0.4451  110
        division   0.6052  194
        division   0.7543  302
  #      division   0.8014  434
  #      division   0.8507  590
  #      division   0.8762  770
  #      division   0.9023  974
  #      division   1.2339 1202
  #      outer_grid 974
        outer_grid 302
  ################################################################################
  #
  #  Definition of "minimal" basis
  #
  ################################################################################
  #     valence basis states
      valence      2  s   2.
      valence      2  p   4.
  #     ion occupancy
      ion_occ      2  s   1.
      ion_occ      2  p   3.
  ################################################################################
  #
  #  Suggested additional basis functions. For production calculations,
  #  uncomment them one after another (the most important basis functions are
  #  listed first).
  #
  #  Constructed for dimers: 1.0 A, 1.208 A, 1.5 A, 2.0 A, 3.0 A
  #
  ################################################################################
  #  "First tier" - improvements: -699.05 meV to -159.38 meV
       hydro 2 p 1.8
       hydro 3 d 7.6
       hydro 3 s 6.4
  #  "Second tier" - improvements: -49.91 meV to -5.39 meV
  #     hydro 4 f 11.6
  #     hydro 3 p 6.2
  #     hydro 3 d 5.6
  #     hydro 5 g 17.6
  #     hydro 1 s 0.75
  #  "Third tier" - improvements: -2.83 meV to -0.50 meV
  #     ionic 2 p auto
  #     hydro 4 f 10.8
  #     hydro 4 d 4.7
  #     hydro 2 s 6.8
  #  "Fourth tier" - improvements: -0.40 meV to -0.12 meV
  #     hydro 3 p 5
  #     hydro 3 s 3.3
  #     hydro 5 g 15.6
  #     hydro 4 f 17.6
  #     hydro 4 d 14
  # Further basis functions - -0.08 meV and below
  #     hydro 3 s 2.1
  #     hydro 4 d 11.6
  #     hydro 3 p 16
  #     hydro 2 s 17.2
  
  -----------------------------------------------------------------------
  Completed first pass over input file control.in .
  -----------------------------------------------------------------------
  
  
  -----------------------------------------------------------------------
  Parsing geometry.in (first pass over file, find array dimensions only).
  The contents of geometry.in will be repeated verbatim below
  unless switched off by setting 'verbatim_writeout .false.' .
  in the first line of geometry.in .
  -----------------------------------------------------------------------
  
  #=======================================================
  # FHI-aims file: /ada/ptmp/mpsd/alewis/bulk_water/qmdata/data/geoms/170.in
  # Created using the Atomic Simulation Environment (ASE)
  # Tue Feb 21 11:23:37 2023
  #=======================================================
  lattice_vector 9.6775500000000001 0.0000000000000000 0.0000000000000000
  lattice_vector 0.0000000000000000 9.6775500000000001 0.0000000000000000
  lattice_vector 0.0000000000000000 0.0000000000000000 9.6775500000000001
  atom 6.0601900000000004 4.5324999999999998 -6.4309399999999997 O
  atom 5.5456399999999997 4.8282100000000003 -7.2590399999999997 H
  atom 7.0291499999999996 4.8822799999999997 -6.7154400000000001 H
  atom 24.9143000000000008 19.4024999999999999 4.5408499999999998 O
  atom 25.0809999999999995 20.3317000000000014 4.2240000000000002 H
  atom 25.6750000000000007 18.8030000000000008 4.8029500000000001 H
  atom 10.6056000000000008 -9.4763599999999997 2.4582999999999999 O
  atom 10.3008000000000006 -8.6737699999999993 2.7229100000000002 H
  atom 9.7807899999999997 -9.9733599999999996 2.4847999999999999 H
  atom -1.2158500000000001 -4.1684700000000001 2.8880400000000002 O
  atom -1.1365400000000001 -4.2642100000000003 3.8629300000000000 H
  atom -0.9539020000000000 -4.9612499999999997 2.4402100000000000 H
  atom -12.5408000000000008 1.7639600000000000 9.8942099999999993 O
  atom -13.3972999999999995 2.2062800000000000 10.5000999999999998 H
  atom -12.5413999999999994 0.7124000000000000 9.8938600000000001 H
  atom 4.9761300000000004 -3.2464499999999998 10.7635000000000005 O
  atom 4.1639400000000002 -3.1162100000000001 11.1012000000000004 H
  atom 5.4861599999999999 -2.5495299999999999 10.8413000000000004 H
  atom 3.1087300000000000 14.4354999999999993 7.2953200000000002 O
  atom 3.0074600000000000 14.1974999999999998 6.5026200000000003 H
  atom 3.1078000000000001 13.4923999999999999 7.5799099999999999 H
  atom 9.6524500000000000 -2.2230599999999998 10.6304999999999996 O
  atom 9.6779700000000002 -2.8326899999999999 9.8753700000000002 H
  atom 8.9660299999999999 -2.2421199999999999 11.3811000000000000 H
  atom 4.5490500000000003 -6.9665200000000000 -14.5298999999999996 O
  atom 4.9151699999999998 -6.2161400000000002 -15.1944999999999997 H
  atom 4.9882499999999999 -6.8187600000000002 -13.6978000000000009 H
  atom 6.3438800000000004 -0.8526370000000000 0.7780589999999999 O
  atom 5.4994199999999998 -0.5639390000000000 1.2625000000000000 H
  atom 6.7831099999999998 -0.8209390000000000 1.5418300000000000 H
  atom 2.3698600000000001 16.2361000000000004 -17.1095000000000006 O
  atom 1.6032400000000000 16.6742999999999988 -17.5062999999999995 H
  atom 2.4497599999999999 16.6143999999999998 -16.2027999999999999 H
  atom -20.6457000000000015 -7.7215900000000000 14.0263000000000009 O
  atom -20.8658000000000001 -6.9436400000000003 14.2805000000000000 H
  atom -19.5966999999999985 -7.5195600000000002 14.1844000000000001 H
  atom 0.0038840000000000 0.2960680000000000 9.5806299999999993 O
  atom 0.3632150000000000 0.4683020000000000 10.4590999999999994 H
  atom 0.1613560000000000 -0.6077050000000001 9.8335200000000000 H
  atom 3.8870100000000001 2.1742599999999999 0.9449540000000000 O
  atom 3.7749999999999999 1.5528100000000000 1.7190700000000001 H
  atom 3.3749400000000001 3.0048699999999999 1.3203300000000000 H
  atom -9.3635900000000003 -0.1619000000000000 -12.6646999999999998 O
  atom -8.5311000000000003 0.2779070000000000 -13.0283999999999995 H
  atom -9.4467300000000005 0.0756930000000000 -11.7269000000000005 H
  atom 0.4862200000000000 16.3800999999999988 -2.6965599999999998 O
  atom 0.4431860000000000 17.3016000000000005 -2.9584899999999998 H
  atom -0.2209240000000000 16.2985000000000007 -2.0154600000000000 H
  atom -6.3120799999999999 11.9440000000000008 7.9648000000000003 O
  atom -6.0398199999999997 11.6067999999999998 8.8258500000000009 H
  atom -6.4780600000000002 11.1073000000000004 7.5490700000000004 H
  atom -2.1044600000000000 8.4694900000000004 5.7477499999999999 O
  atom -2.3350599999999999 7.9516600000000004 6.4584700000000002 H
  atom -1.4798300000000000 9.0115599999999993 6.1942300000000001 H
  atom 26.2458999999999989 2.8951600000000002 16.6651999999999987 O
  atom 25.8726999999999983 3.5725099999999999 17.1679999999999993 H
  atom 26.1814999999999998 2.0674000000000001 17.1302999999999983 H
  atom -29.7898999999999994 12.6569000000000003 1.8848800000000001 O
  atom -30.2541000000000011 12.1918000000000006 1.0124400000000000 H
  atom -30.1954999999999991 12.3046000000000006 2.5755400000000002 H
  atom -17.7883999999999993 2.4125999999999999 14.0373000000000001 O
  atom -16.9344999999999999 2.2735099999999999 14.2871000000000006 H
  atom -17.7535999999999987 3.0813700000000002 13.5023000000000000 H
  atom -0.2480170000000000 22.4965000000000011 8.1927800000000008 O
  atom -1.1609000000000000 22.1941999999999986 7.7845599999999999 H
  atom 0.0431200000000000 21.6802999999999990 8.4049899999999997 H
  atom 3.1679400000000002 6.9607099999999997 -4.4675900000000004 O
  atom 4.0408700000000000 6.8288599999999997 -4.3076699999999999 H
  atom 2.7480400000000000 6.7516999999999996 -3.5566300000000002 H
  atom 4.0891099999999998 -0.4916810000000000 11.9736999999999991 O
  atom 3.2361800000000001 -0.6229800000000000 12.0520999999999994 H
  atom 4.3363500000000004 -0.4357150000000000 12.9072999999999993 H
  atom -3.7951100000000002 -3.6512199999999999 5.5490100000000000 O
  atom -3.0656699999999999 -4.0271299999999997 5.9154000000000000 H
  atom -3.9121400000000000 -4.0678299999999998 4.7321299999999997 H
  atom 17.7801000000000009 -10.3330000000000002 3.0359400000000001 O
  atom 17.7104999999999997 -10.7542000000000009 3.7311600000000000 H
  atom 18.0794999999999995 -9.3984699999999997 3.1685099999999999 H
  atom 25.0391000000000012 14.6698000000000004 27.7414999999999985 O
  atom 24.7905000000000015 15.0915999999999997 28.6552000000000007 H
  atom 24.1635999999999989 14.7294999999999998 27.5533999999999999 H
  atom 26.8380000000000010 7.4001999999999999 17.8175999999999988 O
  atom 26.5559000000000012 7.7707400000000000 18.7134000000000000 H
  atom 26.2796999999999983 6.5372199999999996 17.8801999999999985 H
  atom 2.2791199999999998 4.0304300000000000 1.7705700000000000 O
  atom 1.5556000000000001 4.1560499999999996 1.1009599999999999 H
  atom 2.3676300000000001 4.8558800000000000 2.0779700000000001 H
  atom -10.7248000000000001 5.0373599999999996 -4.1336300000000001 O
  atom -10.4002999999999997 4.2444899999999999 -3.7321200000000001 H
  atom -10.0854999999999997 5.7434900000000004 -3.7745000000000002 H
  atom 10.5518000000000001 5.1799200000000001 -0.2210890000000000 O
  atom 11.2260000000000009 5.3799200000000003 -0.9102130000000000 H
  atom 10.1263000000000005 4.4207400000000003 -0.6402190000000000 H
  atom 12.7787000000000006 9.9373000000000005 6.0401699999999998 O
  atom 13.6736000000000004 10.2094000000000005 5.6631400000000003 H
  atom 12.6083999999999996 9.0376300000000001 5.7849199999999996 H
  
  -----------------------------------------------------------------------
  Completed first pass over input file geometry.in .
  -----------------------------------------------------------------------
  

  Basic array size parameters:
  | Number of species                 :        2
  | Number of atoms                   :       96
  | Number of lattice vectors         :        3
  | Max. basis fn. angular momentum   :        2
  | Max. atomic/ionic basis occupied n:        2
  | Max. number of basis fn. types    :        2
  | Max. radial fns per species/type  :        3
  | Max. logarithmic grid size        :     1301
  | Max. radial integration grid size :       36
  | Max. angular integration grid size:      302
  | Max. angular grid division number :        8
  | Radial grid for Hartree potential :     1301
  | Number of spin channels           :        1

------------------------------------------------------------
          Reading file control.in.
------------------------------------------------------------
  XC: Using Perdew-Wang parametrisation of Ceperley-Alder LDA.
  Spin treatment: No spin polarisation.
  Non-relativistic treatment of kinetic energy.
  Charge =   0.000000E+00: Neutral system requested explicitly.
  DFPT calculation will begin after the DFT/HF calculation.
  Convergence accuracy of self-consistent charge density:  0.1000E-05
  Found k-point grid:         1         1         1
  Threshold value for wave function integration:  0.1000E-07
 
  Reading configuration options for species H                   .
  | Found nuclear charge :   1.0000
  | Found atomic mass :    1.00794000000000      amu
  | Found l_max for Hartree potential  :   4
  | Found cutoff potl. onset [A], width [A], scale factor :    3.50000    1.50000    1.00000
  | Threshold for basis-dependent cutoff potential is   0.100000E-03
  | Found data for basic radial integration grid :    24 points, outermost radius =    5.000 A
  | Found multiplier for basic radial grid :   1
  | Found angular grid specification: user-specified.
  | Specified grid contains     5 separate shells.
  | Check grid settings after all constraints further below.
  | Found free-atom valence shell :  1 s   1.000
  | No ionic wave fns used. Skipping ion_occ.
  | Found hydrogenic basis function :  2 s   2.100
  | Found hydrogenic basis function :  2 p   3.500
  Species H                   : Missing cutoff potential type.
  Defaulting to exp(1/x)/(1-x)^2 type cutoff potential.
  Species H : No 'logarithmic' tag. Using default grid for free atom:
  | Default logarithmic grid data [bohr] : 0.1000E-03 0.1000E+03 0.1012E+01
  Species H : On-site basis accuracy parameter (for Gram-Schmidt orthonormalisation) not specified.
  Using default value basis_acc =  0.1000000E-03.
  Species H                   : Using default innermost maximum threshold i_radial=  2 for radial functions.
  Species H                   : Default cutoff onset for free atom density etc. : 0.35000000E+01 AA.
  Species H                   : Basic radial grid will be enhanced according to radial_multiplier =   1, to contain    24 grid points.
 
  Reading configuration options for species O                   .
  | Found nuclear charge :   8.0000
  | Found atomic mass :    15.9994000000000      amu
  | Found l_max for Hartree potential  :   4
  | Found cutoff potl. onset [A], width [A], scale factor :    3.50000    1.50000    1.00000
  | Threshold for basis-dependent cutoff potential is   0.100000E-03
  | Found data for basic radial integration grid :    36 points, outermost radius =    5.000 A
  | Found multiplier for basic radial grid :   1
  | Found angular grid specification: user-specified.
  | Specified grid contains     5 separate shells.
  | Check grid settings after all constraints further below.
  | Found free-atom valence shell :  2 s   2.000
  | Found free-atom valence shell :  2 p   4.000
  | No ionic wave fns used. Skipping ion_occ.
  | No ionic wave fns used. Skipping ion_occ.
  | Found hydrogenic basis function :  2 p   1.800
  | Found hydrogenic basis function :  3 d   7.600
  | Found hydrogenic basis function :  3 s   6.400
  Species O                   : Missing cutoff potential type.
  Defaulting to exp(1/x)/(1-x)^2 type cutoff potential.
  Species O : No 'logarithmic' tag. Using default grid for free atom:
  | Default logarithmic grid data [bohr] : 0.1000E-03 0.1000E+03 0.1012E+01
  Species O : On-site basis accuracy parameter (for Gram-Schmidt orthonormalisation) not specified.
  Using default value basis_acc =  0.1000000E-03.
  Species O                   : Using default innermost maximum threshold i_radial=  2 for radial functions.
  Species O                   : Default cutoff onset for free atom density etc. : 0.35000000E+01 AA.
  Species O                   : Basic radial grid will be enhanced according to radial_multiplier =   1, to contain    36 grid points.
 
  Finished reading input file 'control.in'.
 
------------------------------------------------------------


------------------------------------------------------------
          Reading geometry description geometry.in.
------------------------------------------------------------
  | The smallest distance between any two atoms is         0.81583359 AA.
  | The first atom of this pair is atom number                     76 .
  | The second atom of this pair is atom number                    77 .
  | Wigner-Seitz cell of the first atom image           0     0     0 .
  | (The Wigner-Seitz cell of the second atom is 0 0 0  by definition.)

  Symmetry information by spglib:
  | Precision set to  0.1E-04
  | Number of Operations  : 1
  | Space group           : 1
  | International         : P1       F
  | Schoenflies           : C1^1
  Input structure read successfully.
  The structure contains       96 atoms,  and a total of        320.000 electrons.

  Input geometry:
  | Unit cell:
  |        9.67755000        0.00000000        0.00000000
  |        0.00000000        9.67755000        0.00000000
  |        0.00000000        0.00000000        9.67755000
  | Atomic structure:
  |       Atom                x [A]            y [A]            z [A]
  |    1: Species O             6.06019000        4.53250000       -6.43094000
  |    2: Species H             5.54564000        4.82821000       -7.25904000
  |    3: Species H             7.02915000        4.88228000       -6.71544000
  |    4: Species O            24.91430000       19.40250000        4.54085000
  |    5: Species H            25.08100000       20.33170000        4.22400000
  |    6: Species H            25.67500000       18.80300000        4.80295000
  |    7: Species O            10.60560000       -9.47636000        2.45830000
  |    8: Species H            10.30080000       -8.67377000        2.72291000
  |    9: Species H             9.78079000       -9.97336000        2.48480000
  |   10: Species O            -1.21585000       -4.16847000        2.88804000
  |   11: Species H            -1.13654000       -4.26421000        3.86293000
  |   12: Species H            -0.95390200       -4.96125000        2.44021000
  |   13: Species O           -12.54080000        1.76396000        9.89421000
  |   14: Species H           -13.39730000        2.20628000       10.50010000
  |   15: Species H           -12.54140000        0.71240000        9.89386000
  |   16: Species O             4.97613000       -3.24645000       10.76350000
  |   17: Species H             4.16394000       -3.11621000       11.10120000
  |   18: Species H             5.48616000       -2.54953000       10.84130000
  |   19: Species O             3.10873000       14.43550000        7.29532000
  |   20: Species H             3.00746000       14.19750000        6.50262000
  |   21: Species H             3.10780000       13.49240000        7.57991000
  |   22: Species O             9.65245000       -2.22306000       10.63050000
  |   23: Species H             9.67797000       -2.83269000        9.87537000
  |   24: Species H             8.96603000       -2.24212000       11.38110000
  |   25: Species O             4.54905000       -6.96652000      -14.52990000
  |   26: Species H             4.91517000       -6.21614000      -15.19450000
  |   27: Species H             4.98825000       -6.81876000      -13.69780000
  |   28: Species O             6.34388000       -0.85263700        0.77805900
  |   29: Species H             5.49942000       -0.56393900        1.26250000
  |   30: Species H             6.78311000       -0.82093900        1.54183000
  |   31: Species O             2.36986000       16.23610000      -17.10950000
  |   32: Species H             1.60324000       16.67430000      -17.50630000
  |   33: Species H             2.44976000       16.61440000      -16.20280000
  |   34: Species O           -20.64570000       -7.72159000       14.02630000
  |   35: Species H           -20.86580000       -6.94364000       14.28050000
  |   36: Species H           -19.59670000       -7.51956000       14.18440000
  |   37: Species O             0.00388400        0.29606800        9.58063000
  |   38: Species H             0.36321500        0.46830200       10.45910000
  |   39: Species H             0.16135600       -0.60770500        9.83352000
  |   40: Species O             3.88701000        2.17426000        0.94495400
  |   41: Species H             3.77500000        1.55281000        1.71907000
  |   42: Species H             3.37494000        3.00487000        1.32033000
  |   43: Species O            -9.36359000       -0.16190000      -12.66470000
  |   44: Species H            -8.53110000        0.27790700      -13.02840000
  |   45: Species H            -9.44673000        0.07569300      -11.72690000
  |   46: Species O             0.48622000       16.38010000       -2.69656000
  |   47: Species H             0.44318600       17.30160000       -2.95849000
  |   48: Species H            -0.22092400       16.29850000       -2.01546000
  |   49: Species O            -6.31208000       11.94400000        7.96480000
  |   50: Species H            -6.03982000       11.60680000        8.82585000
  |   51: Species H            -6.47806000       11.10730000        7.54907000
  |   52: Species O            -2.10446000        8.46949000        5.74775000
  |   53: Species H            -2.33506000        7.95166000        6.45847000
  |   54: Species H            -1.47983000        9.01156000        6.19423000
  |   55: Species O            26.24590000        2.89516000       16.66520000
  |   56: Species H            25.87270000        3.57251000       17.16800000
  |   57: Species H            26.18150000        2.06740000       17.13030000
  |   58: Species O           -29.78990000       12.65690000        1.88488000
  |   59: Species H           -30.25410000       12.19180000        1.01244000
  |   60: Species H           -30.19550000       12.30460000        2.57554000
  |   61: Species O           -17.78840000        2.41260000       14.03730000
  |   62: Species H           -16.93450000        2.27351000       14.28710000
  |   63: Species H           -17.75360000        3.08137000       13.50230000
  |   64: Species O            -0.24801700       22.49650000        8.19278000
  |   65: Species H            -1.16090000       22.19420000        7.78456000
  |   66: Species H             0.04312000       21.68030000        8.40499000
  |   67: Species O             3.16794000        6.96071000       -4.46759000
  |   68: Species H             4.04087000        6.82886000       -4.30767000
  |   69: Species H             2.74804000        6.75170000       -3.55663000
  |   70: Species O             4.08911000       -0.49168100       11.97370000
  |   71: Species H             3.23618000       -0.62298000       12.05210000
  |   72: Species H             4.33635000       -0.43571500       12.90730000
  |   73: Species O            -3.79511000       -3.65122000        5.54901000
  |   74: Species H            -3.06567000       -4.02713000        5.91540000
  |   75: Species H            -3.91214000       -4.06783000        4.73213000
  |   76: Species O            17.78010000      -10.33300000        3.03594000
  |   77: Species H            17.71050000      -10.75420000        3.73116000
  |   78: Species H            18.07950000       -9.39847000        3.16851000
  |   79: Species O            25.03910000       14.66980000       27.74150000
  |   80: Species H            24.79050000       15.09160000       28.65520000
  |   81: Species H            24.16360000       14.72950000       27.55340000
  |   82: Species O            26.83800000        7.40020000       17.81760000
  |   83: Species H            26.55590000        7.77074000       18.71340000
  |   84: Species H            26.27970000        6.53722000       17.88020000
  |   85: Species O             2.27912000        4.03043000        1.77057000
  |   86: Species H             1.55560000        4.15605000        1.10096000
  |   87: Species H             2.36763000        4.85588000        2.07797000
  |   88: Species O           -10.72480000        5.03736000       -4.13363000
  |   89: Species H           -10.40030000        4.24449000       -3.73212000
  |   90: Species H           -10.08550000        5.74349000       -3.77450000
  |   91: Species O            10.55180000        5.17992000       -0.22108900
  |   92: Species H            11.22600000        5.37992000       -0.91021300
  |   93: Species H            10.12630000        4.42074000       -0.64021900
  |   94: Species O            12.77870000        9.93730000        6.04017000
  |   95: Species H            13.67360000       10.20940000        5.66314000
  |   96: Species H            12.60840000        9.03763000        5.78492000

  Lattice parameters for 3D lattice (in Angstroms) :     9.677550    9.677550    9.677550
  Angle(s) between unit vectors (in degrees)       :    90.000000   90.000000   90.000000


  Quantities derived from the lattice vectors (in Angstrom^-1):
  | Reciprocal lattice vector 1:  0.649254  0.000000  0.000000
  | Reciprocal lattice vector 2:  0.000000  0.649254  0.000000
  | Reciprocal lattice vector 3:  0.000000  0.000000  0.649254
  | Unit cell volume                               :   0.906351E+03  Angstrom^3

  Fractional coordinates:
                         L1                L2                L3
       atom_frac         0.62621118        0.46835201       -0.66452150  O
       atom_frac         0.57304173        0.49890830       -0.75009067  H
       atom_frac         0.72633569        0.50449546       -0.69391943  H
       atom_frac         2.57444291        2.00489793        0.46921483  O
       atom_frac         2.59166835        2.10091397        0.43647411  H
       atom_frac         2.65304752        1.94295044        0.49629813  H
       atom_frac         1.09589721       -0.97921065        0.25402090  O
       atom_frac         1.06440163       -0.89627747        0.28136357  H
       atom_frac         1.01066799       -1.03056662        0.25675920  H
       atom_frac        -0.12563614       -0.43073609        0.29842677  O
       atom_frac        -0.11744088       -0.44062908        0.39916404  H
       atom_frac        -0.09856854       -0.51265558        0.25215163  H
       atom_frac        -1.29586517        0.18227341        1.02238790  O
       atom_frac        -1.38436898        0.22797919        1.08499569  H
       atom_frac        -1.29592717        0.07361367        1.02235173  H
       atom_frac         0.51419316       -0.33546197        1.11221332  O
       atom_frac         0.43026799       -0.32200402        1.14710851  H
       atom_frac         0.56689555       -0.26344788        1.12025254  H
       atom_frac         0.32123110        1.49164820        0.75383956  O
       atom_frac         0.31076667        1.46705519        0.67192833  H
       atom_frac         0.32113500        1.39419585        0.78324679  H
       atom_frac         0.99740637       -0.22971310        1.09847017  O
       atom_frac         1.00004340       -0.29270735        1.02044112  H
       atom_frac         0.92647726       -0.23168261        1.17603112  H
       atom_frac         0.47006215       -0.71986402       -1.50140273  O
       atom_frac         0.50789404       -0.64232580       -1.57007714  H
       atom_frac         0.51544554       -0.70459569       -1.41542023  H
       atom_frac         0.65552542       -0.08810463        0.08039834  O
       atom_frac         0.56826573       -0.05827291        0.13045657  H
       atom_frac         0.70091190       -0.08482922        0.15932028  H
       atom_frac         0.24488223        1.67770768       -1.76795780  O
       atom_frac         0.16566590        1.72298774       -1.80895991  H
       atom_frac         0.25313845        1.71679816       -1.67426673  H
       atom_frac        -2.13336020       -0.79788686        1.44936477  O
       atom_frac        -2.15610356       -0.71749978        1.47563175  H
       atom_frac        -2.02496500       -0.77701071        1.46570155  H
       atom_frac         0.00040134        0.03059328        0.98998507  O
       atom_frac         0.03753171        0.04839055        1.08075908  H
       atom_frac         0.01667323       -0.06279534        1.01611668  H
       atom_frac         0.40165228        0.22467050        0.09764393  O
       atom_frac         0.39007807        0.16045487        0.17763484  H
       atom_frac         0.34873909        0.31049904        0.13643226  H
       atom_frac        -0.96755790       -0.01672944       -1.30866800  O
       atom_frac        -0.88153510        0.02871667       -1.34624983  H
       atom_frac        -0.97614892        0.00782150       -1.21176331  H
       atom_frac         0.05024206        1.69258748       -0.27864077  O
       atom_frac         0.04579527        1.78780786       -0.30570651  H
       atom_frac        -0.02282851        1.68415560       -0.20826139  H
       atom_frac        -0.65223946        1.23419667        0.82301822  O
       atom_frac        -0.62410631        1.19935314        0.91199219  H
       atom_frac        -0.66939050        1.14773884        0.78006004  H
       atom_frac        -0.21745793        0.87516882        0.59392615  O
       atom_frac        -0.24128628        0.82166044        0.66736622  H
       atom_frac        -0.15291370        0.93118196        0.64006179  H
       atom_frac         2.71203972        0.29916249        1.72204742  O
       atom_frac         2.67347624        0.36915438        1.77400272  H
       atom_frac         2.70538514        0.21362845        1.77010710  H
       atom_frac        -3.07824811        1.30786201        0.19476830  O
       atom_frac        -3.12621480        1.25980233        0.10461739  H
       atom_frac        -3.12015954        1.27145817        0.26613554  H
       atom_frac        -1.83810985        0.24929863        1.45050142  O
       atom_frac        -1.74987471        0.23492620        1.47631374  H
       atom_frac        -1.83451390        0.31840393        1.39521883  H
       atom_frac        -0.02562808        2.32460695        0.84657584  O
       atom_frac        -0.11995805        2.29336971        0.80439367  H
       atom_frac         0.00445567        2.24026742        0.86850391  H
       atom_frac         0.32734938        0.71926366       -0.46164473  O
       atom_frac         0.41755093        0.70563934       -0.44511989  H
       atom_frac         0.28396030        0.69766625       -0.36751347  H
       atom_frac         0.42253566       -0.05080635        1.23726563  O
       atom_frac         0.33440075       -0.06437373        1.24536685  H
       atom_frac         0.44808345       -0.04502328        1.33373633  H
       atom_frac        -0.39215607       -0.37728764        0.57338996  O
       atom_frac        -0.31678162       -0.41613115        0.61124975  H
       atom_frac        -0.40424901       -0.42033676        0.48898017  H
       atom_frac         1.83725220       -1.06772892        0.31370956  O
       atom_frac         1.83006029       -1.11125233        0.38554800  H
       atom_frac         1.86818978       -0.97116212        0.32740828  H
       atom_frac         2.58733874        1.51585887        2.86658297  O
       atom_frac         2.56165042        1.55944428        2.96099736  H
       atom_frac         2.49687163        1.52202779        2.84714623  H
       atom_frac         2.77322256        0.76467701        1.84112714  O
       atom_frac         2.74407262        0.80296563        1.93369190  H
       atom_frac         2.71553234        0.67550361        1.84759572  H
       atom_frac         0.23550589        0.41647214        0.18295643  O
       atom_frac         0.16074316        0.42945270        0.11376433  H
       atom_frac         0.24465180        0.50176749        0.21472067  H
       atom_frac        -1.10821437        0.52052017       -0.42713600  O
       atom_frac        -1.07468316        0.43859138       -0.38564719  H
       atom_frac        -1.04215426        0.59348595       -0.39002640  H
       atom_frac         1.09033795        0.53525117       -0.02284555  O
       atom_frac         1.16000434        0.55591756       -0.09405407  H
       atom_frac         1.04637021        0.45680363       -0.06615507  H
       atom_frac         1.32044784        1.02684047        0.62414247  O
       atom_frac         1.41291959        1.05495709        0.58518323  H
       atom_frac         1.30285041        0.93387583        0.59776700  H

 
  Finished reading input file 'geometry.in'.
 

 
  Consistency checks for stacksize environment parameter are next.
 
  | Maximum stacksize for task 0: unlimited
  | Maximum stacksize for task 1: unlimited
  | Maximum stacksize for task 2: unlimited
  | Maximum stacksize for task 3: unlimited
  | Maximum stacksize for task 4: unlimited
  | Maximum stacksize for task 5: unlimited
  | Maximum stacksize for task 6: unlimited
  | Maximum stacksize for task 7: unlimited
  | Maximum stacksize for task 8: unlimited
  | Maximum stacksize for task 9: unlimited
  | Maximum stacksize for task 10: unlimited
  | Maximum stacksize for task 11: unlimited
  | Maximum stacksize for task 12: unlimited
  | Maximum stacksize for task 13: unlimited
  | Maximum stacksize for task 14: unlimited
  | Maximum stacksize for task 15: unlimited
  | Maximum stacksize for task 16: unlimited
  | Maximum stacksize for task 17: unlimited
  | Current stacksize for task 0: unlimited
  | Current stacksize for task 1: unlimited
  | Current stacksize for task 2: unlimited
  | Current stacksize for task 3: unlimited
  | Current stacksize for task 4: unlimited
  | Current stacksize for task 5: unlimited
  | Current stacksize for task 6: unlimited
  | Current stacksize for task 7: unlimited
  | Current stacksize for task 8: unlimited
  | Current stacksize for task 9: unlimited
  | Current stacksize for task 10: unlimited
  | Current stacksize for task 11: unlimited
  | Current stacksize for task 12: unlimited
  | Current stacksize for task 13: unlimited
  | Current stacksize for task 14: unlimited
  | Current stacksize for task 15: unlimited
  | Current stacksize for task 16: unlimited
  | Current stacksize for task 17: unlimited
 
  Consistency checks for the contents of control.in are next.
 
  MPI_IN_PLACE appears to work with this MPI implementation.
  | Keeping use_mpi_in_place .true. (see manual).
  Explicit treatment of the Coulomb operator is needed, but the RI method is not specified.
  Coulomb operator: Defaulting to 'LVL fast' resolution of identity - RI_type = LVL_fast
  Species H: Using default value for prodbas_acc =   1.000000E-06.
  Species H: Using default value max_l_prodbas =     6.
  Species O: Using default value for prodbas_acc =   1.000000E-06.
  Species O: Using default value max_l_prodbas =     6.
  Target number of points in a grid batch is not set.  Since GPU acceleration is enabled, defaulting to  200
  Method for grid partitioning is not set. Defaulting to parallel hash+maxmin partitioning.
  Batch size limit is not set. Defaulting to    200
  By default, will store active basis functions for each batch.
  If in need of memory, prune_basis_once .false. can be used to disable this option.
  communication_type for Hartree potential was not specified.
  Defaulting to calc_hartree .
  Defaulting to Pulay charge density mixer.
  Pulay mixer: Number of relevant iterations not set.
  Defaulting to    8 iterations.
  Pulay mixer: Number of initial linear mixing iterations not set.
  Defaulting to    0 iterations.
  Work space size for distributed Hartree potential not set.
  Defaulting to   0.200000E+03 MB.
  Mixing parameter for charge density mixing has not been set.
  Using default: charge_mix_param =     0.0500.
  The mixing parameter will be adjusted in iteration number     2 of the first full s.c.f. cycle only.
  Algorithm-dependent basis array size parameters:
  | n_max_pulay                         :        8
  Maximum number of self-consistency iterations not provided.
  Presetting  1000 iterations.
  Presetting      1001 iterations before the initial mixing cycle
  is restarted anyway using the sc_init_iter criterion / keyword.
  Presetting a factor      1.000 between actual scf density residual
  and density convergence criterion sc_accuracy_rho below which sc_init_iter
  takes no effect.
  Calculation of forces was not defined in control.in. No forces will be calculated.
  Geometry relaxation not requested: no relaxation will be performed.
  No accuracy limit for integral partition fn. given. Defaulting to  0.1000E-14.
  No occupation type (smearing scheme) given. Defaulting to Gaussian broadening, width =  0.1000E-01 eV.
  The width will be adjusted in iteration number     2 of the first full s.c.f. cycle only.
  S.C.F. convergence parameters will be adjusted in iteration number     2 of the first full s.c.f. cycle only.
  No accuracy for occupation numbers given. Defaulting to  0.1000E-12.
  No threshold value for occupation numbers given. Defaulting to  0.0000E+00.
  No accuracy for fermi level given. Defaulting to  0.1000E-19.
  Maximum # of iterations to find E_F not set. Defaulting to  200.
  Preferred method for the eigenvalue solver ('KS_method') not specified in 'control.in'.
  Calling BLACS routine to test compilation state
  Since ScaLAPACK support is enabled, defaulting to ELPA (via ELSI).
  Will not use alltoall communication since running on < 1024 CPUs.
  Threshold for basis singularities not set.
  Default threshold for basis singularities:  0.1000E-04
  partition_type (choice of integration weights) for integrals was not specified.
  | Using a version of the partition function of Stratmann and coworkers ('stratmann_sparse').
  | At each grid point, the set of atoms used to build the partition table is smoothly restricted to
  | only those atoms whose free-atom density would be non-zero at that grid point.
  Partitioning for Hartree potential was not defined. Using partition_type for integrals.
  | Adjusted default value of keyword multip_moments_threshold to:       0.10000000E-11
  | This value may affect high angular momentum components of the Hartree potential in periodic systems.
  Angular momentum expansion for Kerker preconditioner not set explicitly.
  | Using default value of   0
  No explicit requirement for turning off preconditioner.
  | By default, it will be turned off when the charge convergence reaches
  | sc_accuracy_rho  =   0.100000E-05
  No special mixing parameter while Kerker preconditioner is on.
  Using default: charge_mix_param =     0.0500.
  Threshold for auxiliary basis singularities not set.
  Default threshold for auxiliary basis singularities:  0.1000E-04
  No q(lm)/r^(l+1) cutoff set for long-range Hartree potential.
  | Using default value of  0.100000E-09 .
  | Verify using the multipole_threshold keyword.
  Defaulting to new monopole extrapolation.
  Density update method: automatic selection selected.
  Using density matrix based charge density update.
  Using density matrix based charge density update.
  Using packed matrix style: index .
  Defaulting to use time-reversal symmetry for k-point grid.
  Charge integration errors on the 3D integration grid will be compensated
  by explicit normalization and distribution of residual charges.
  Use the "compensate_multipole_errors" flag to change this behaviour.
  Default to 1D ("use_logsbt") integrations for auxiliary 2-center integrals.
  Default onset of logarithmic r-grid for SBT is -38.000000000000
  Default onset of logarithmic k-grid for SBT is -25.000000000000
  Default range of logarithmic r- and k-grid for SBT is  45.000000000000
  Default number of logarithmic r- and k-grid for SBT is   4096
  Default of use_2d_corr is to use the efficient 2D distribution where possible
 
  Consistency checks for the contents of geometry.in are next.
 

  Range separation radius for Ewald summation (hartree_convergence_parameter):      2.90641686 bohr.
  Number of empty states per atom not set in control.in .
  | Since you are using a method that relies on the unoccupied spectrum
  | (MP2,GW,RPA et al.), will use the full Hamiltonian size (see below)
  | as the max. possible number of states (occupied plus empty).

  Structure-dependent array size parameters: 
  | Maximum number of distinct radial functions  :        9
  | Maximum number of basis functions            :      768
  | Number of Kohn-Sham states (occupied + empty):      768
------------------------------------------------------------

  Performing system and environment tests:
  | Environment variable OMP_NUM_THREADS correctly set to 1.
  | Checking for ScaLAPACK...
  | Testing pdtran()...
  | All pdtran() tests passed.
CUDA runtime version: 11060
CUDA driver version: 11060
  Initializing GPUs...

  Number of GPUs available to MPI task         0 :   1
  Number of GPUs available to MPI task         1 :   1
  Number of GPUs available to MPI task         2 :   1
  Number of GPUs available to MPI task         3 :   1
  Number of GPUs available to MPI task         4 :   1
  Number of GPUs available to MPI task         5 :   1
  Number of GPUs available to MPI task         6 :   1
  Number of GPUs available to MPI task         7 :   1
  Number of GPUs available to MPI task         8 :   1
  Number of GPUs available to MPI task         9 :   1
  Number of GPUs available to MPI task        10 :   1
  Number of GPUs available to MPI task        11 :   1
  Number of GPUs available to MPI task        12 :   1
  Number of GPUs available to MPI task        13 :   1
  Number of GPUs available to MPI task        14 :   1
  Number of GPUs available to MPI task        15 :   1
  Number of GPUs available to MPI task        16 :   1
  Number of GPUs available to MPI task        17 :   1

  | MPI task         0, GPU activated = T, Device Name = NVIDIA A100-SXM4-80GB
  | MPI task         1, GPU activated = T, Device Name = NVIDIA A100-SXM4-80GB
  | MPI task         2, GPU activated = T, Device Name = NVIDIA A100-SXM4-80GB
  | MPI task         3, GPU activated = T, Device Name = NVIDIA A100-SXM4-80GB
  | MPI task         4, GPU activated = T, Device Name = NVIDIA A100-SXM4-80GB
  | MPI task         5, GPU activated = T, Device Name = NVIDIA A100-SXM4-80GB
  | MPI task         6, GPU activated = T, Device Name = NVIDIA A100-SXM4-80GB
  | MPI task         7, GPU activated = T, Device Name = NVIDIA A100-SXM4-80GB
  | MPI task         8, GPU activated = T, Device Name = NVIDIA A100-SXM4-80GB
  | MPI task         9, GPU activated = T, Device Name = NVIDIA A100-SXM4-80GB
  | MPI task        10, GPU activated = T, Device Name = NVIDIA A100-SXM4-80GB
  | MPI task        11, GPU activated = T, Device Name = NVIDIA A100-SXM4-80GB
  | MPI task        12, GPU activated = T, Device Name = NVIDIA A100-SXM4-80GB
  | MPI task        13, GPU activated = T, Device Name = NVIDIA A100-SXM4-80GB
  | MPI task        14, GPU activated = T, Device Name = NVIDIA A100-SXM4-80GB
  | MPI task        15, GPU activated = T, Device Name = NVIDIA A100-SXM4-80GB
  | MPI task        16, GPU activated = T, Device Name = NVIDIA A100-SXM4-80GB
  | MPI task        17, GPU activated = T, Device Name = NVIDIA A100-SXM4-80GB

------------------------------------------------------------
          Preparing all fixed parts of the calculation.
------------------------------------------------------------
  Determining machine precision:
    2.225073858507201E-308
  Setting up grids for atomic and cluster calculations.

  Creating wave function, potential, and density for free atoms.
  Runtime choices for atomic solver:
  | atomic solver xc        : PW-LDA
  | compute density gradient: 0
  | compute kinetic density : F

  Species: H

  List of occupied orbitals and eigenvalues:
    n    l              occ      energy [Ha]    energy [eV]
    1    0           1.0000        -0.232375        -6.3233


  Species: O

  List of occupied orbitals and eigenvalues:
    n    l              occ      energy [Ha]    energy [eV]
    1    0           2.0000       -18.757744      -510.4242
    2    0           2.0000        -0.870917       -23.6989
    2    1           4.0000        -0.337950        -9.1961


  Adding cutoff potential to free-atom effective potential.
  Creating fixed part of basis set: Ionic, confined, hydrogenic.
 
  H                    hydrogenic:
 
  List of hydrogenic basis orbitals: 
    n    l      effective z      eigenvalue [eV]  inner max. [A]     outer max. [A]     outer radius [A]   
    2    0         2.100000       -14.9728           0.193243           1.317208           4.696947
    2    1         3.500000       -41.6669           0.602369           0.602369           3.862494
 
 
  O                    hydrogenic:
 
  List of hydrogenic basis orbitals: 
    n    l      effective z      eigenvalue [eV]  inner max. [A]     outer max. [A]     outer radius [A]   
    2    1         1.800000       -10.9749           1.164242           1.164242           4.691341
    3    2         7.600000       -87.3180           0.624125           0.624125           3.413946
    3    0         6.400000       -61.9207           0.061167           1.081902           4.151495
 
  Creating atomic-like basis functions for current effective potential.

  Species H                   :

  List of atomic basis orbitals and eigenvalues:
    n    l      energy [Ha]    energy [eV]    outer radius [A]
    1    0        -0.232375        -6.3233       4.696947


  Species O                   :

  List of atomic basis orbitals and eigenvalues:
    n    l      energy [Ha]    energy [eV]    outer radius [A]
    1    0       -18.757744      -510.4242       1.830144
    2    0        -0.870917       -23.6989       4.578029
    2    1        -0.337950        -9.1961       4.634338

  Assembling full basis from fixed parts.
  | Species H :   atomic orbital   1 s accepted.
  | Species H :    hydro orbital   2 s accepted.
  | Species H :    hydro orbital   2 p accepted.
  | Species O :   atomic orbital   1 s accepted.
  | Species O :    hydro orbital   3 s accepted.
  | Species O :   atomic orbital   2 s accepted.
  | Species O :   atomic orbital   2 p accepted.
  | Species O :    hydro orbital   2 p accepted.
  | Species O :    hydro orbital   3 d accepted.
 
  Basis size parameters after reduction:
  | Total number of radial functions:        9
  | Total number of basis functions :      768
 
  Per-task memory consumption for arrays in subroutine allocate_ext:
  |           2.268304MB.
  Testing on-site integration grid accuracy.
  |  Species  Function  <phi|h_atom|phi> (log., in eV)  <phi|h_atom|phi> (rad., in eV)
           1        1                 -6.3245358373                 -6.3232436907
           1        2                 14.1326137532                 14.1384481100
           1        3                 25.3627025200                 25.3628451197
           2        4               -510.4241781764               -510.4240769407
           2        5                 14.9072942213                 14.9072945271
           2        6                -21.2004736474                -21.2005650551
           2        7                 -9.1962086505                 -9.1963509834
           2        8                  8.1896755006                  8.1702200081
           2        9                 45.7920584937                 45.7920228520

  Preparing densities etc. for the partition functions (integrals / Hartree potential).

  Preparations completed.
  max(cpu_time)          :      0.079 s.
  Wall clock time (cpu1) :      0.065 s.
------------------------------------------------------------

  Initializing index lists of integration centers etc. from given atomic structure:
  Mapping all atomic coordinates to central unit cell.

  Initializing the k-points
  Using symmetry for reducing the k-points
  | k-points reduced from:        1 to        1
  | Number of k-points                             :         1
  | Consuming          0 KiB for k_phase_exx.
  The eigenvectors in the calculations are REAL.
  | Number of basis functions in the Hamiltonian integrals :      4511
  | Number of basis functions in a single unit cell        :       768
  | Number of centers in hartree potential         :      2685
  | Number of centers in hartree multipole         :      2027
  | Number of centers in electron density summation:      1591
  | Number of centers in basis integrals           :      1702
  | Number of centers in integrals                 :       713
  | Number of centers in hamiltonian               :      1591
  | Consuming          0 KiB for k_phase.
  | Number of super-cells (origin) [n_cells]                     :         125
  | Number of super-cells (after PM_index) [n_cells]             :          28
  | Number of super-cells in hamiltonian [n_cells_in_hamiltonian]:          28
  | Size of matrix packed + index [n_hamiltonian_matrix_size] :      835755
  | Size of matrix packed + index (no_symmetry):     1670741

------------------------------------------------------------
          Begin self-consistency loop: Initialization.

          Date     :  20230221, Time     :  155655.101
------------------------------------------------------------
  | Estimated reciprocal-space cutoff momentum G_max:         3.25660378 bohr^-1 .
  | Reciprocal lattice points for long-range Hartree potential:    3574
  Using simple linear distribution as default method for k-point parallelism.
  * Using 18 tasks for Scalapack Eigenvalue solver.
  Detailed listing of tasks and assigned k-points:
   Task     0 k-point     1 on adag040
   Task     1 k-point     1 on adag040
   Task     2 k-point     1 on adag040
   Task     3 k-point     1 on adag040
   Task     4 k-point     1 on adag040
   Task     5 k-point     1 on adag040
   Task     6 k-point     1 on adag040
   Task     7 k-point     1 on adag040
   Task     8 k-point     1 on adag040
   Task     9 k-point     1 on adag040
   Task    10 k-point     1 on adag040
   Task    11 k-point     1 on adag040
   Task    12 k-point     1 on adag040
   Task    13 k-point     1 on adag040
   Task    14 k-point     1 on adag040
   Task    15 k-point     1 on adag040
   Task    16 k-point     1 on adag040
   Task    17 k-point     1 on adag040
  K-point:     1 Tasks:    18 split into      6 X      3 BLACS grid
  Calculating block size based on n_basis =          768  max_nprow =            6  max_npcol =            3
  ScaLAPACK block size set to:           16
  Allocating        0.250 MB for ovlp
  Allocating        0.250 MB for ham
  Allocating        0.250 MB for eigenvec
  Required Scalapack workspace - INTEGER:            1  REAL:             1
  Partitioning the integration grid into batches with parallel hashing+maxmin method.
  | Number of batches:     4168
  | Maximal batch size:     200
  | Minimal batch size:      99
  | Average batch size:     122.257
  | Standard deviation of batch sizes:      21.384

  Integration load balanced across    18 MPI tasks.
  Work distribution over tasks is as follows:
  Task     0 has      28293 integration points.
  Task     1 has      28352 integration points.
  Task     2 has      28284 integration points.
  Task     3 has      28290 integration points.
  Task     4 has      28321 integration points.
  Task     5 has      28296 integration points.
  Task     6 has      28344 integration points.
  Task     7 has      28320 integration points.
  Task     8 has      28297 integration points.
  Task     9 has      28280 integration points.
  Task    10 has      28303 integration points.
  Task    11 has      28317 integration points.
  Task    12 has      28237 integration points.
  Task    13 has      28322 integration points.
  Task    14 has      28303 integration points.
  Task    15 has      28344 integration points.
  Task    16 has      28332 integration points.
  Task    17 has      28333 integration points.
  Initializing partition tables, free-atom densities, potentials, etc. across the integration grid (initialize_grid_storage).
  | initialize_grid_storage: Actual outermost partition radius vs. multipole_radius_free
  | (-- VB: in principle, multipole_radius_free should be larger, hence this output)
  | Species        1: Confinement radius =              4.999999999999999 AA, multipole_radius_free =              5.054417573612229 AA.
  | Species        1: outer_partition_radius set to              5.054417573612229 AA .
  | Species        2: Confinement radius =              4.999999999999999 AA, multipole_radius_free =              5.048384829883283 AA.
  | Species        2: outer_partition_radius set to              5.048384829883283 AA .
  | The sparse table of interatomic distances needs       6031.05 kbyte instead of     23174.43 kbyte of memory.
  | Net number of integration points:   509568
  | of which are non-zero points    :   403063
  | Numerical average free-atom electrostatic potential    :     -5.74983944 eV
  Renormalizing the initial density to the exact electron count on the 3D integration grid.
  | Initial density: Formal number of electrons (from input files) :     320.0000000000
  | Integrated number of electrons on 3D grid     :     320.0026545873
  | Charge integration error                      :       0.0026545873
  | Normalization factor for density and gradient :       0.9999917045
  Renormalizing the free-atom superposition density to the exact electron count on the 3D integration grid.
  | Formal number of electrons (from input files) :     320.0000000000
  | Integrated number of electrons on 3D grid     :     320.0026545873
  | Charge integration error                      :       0.0026545873
  | Normalization factor for density and gradient :       0.9999917045
  Obtaining max. number of non-zero basis functions in each batch (get_n_compute_maxes).
  | Maximal number of non-zero basis functions:      450 in task     0
  | Maximal number of non-zero basis functions:      440 in task     1
  | Maximal number of non-zero basis functions:      431 in task     2
  | Maximal number of non-zero basis functions:      428 in task     3
  | Maximal number of non-zero basis functions:      433 in task     4
  | Maximal number of non-zero basis functions:      444 in task     5
  | Maximal number of non-zero basis functions:      452 in task     6
  | Maximal number of non-zero basis functions:      452 in task     7
  | Maximal number of non-zero basis functions:      452 in task     8
  | Maximal number of non-zero basis functions:      445 in task     9
  | Maximal number of non-zero basis functions:      432 in task    10
  | Maximal number of non-zero basis functions:      467 in task    11
  | Maximal number of non-zero basis functions:      446 in task    12
  | Maximal number of non-zero basis functions:      458 in task    13
  | Maximal number of non-zero basis functions:      442 in task    14
  | Maximal number of non-zero basis functions:      442 in task    15
  | Maximal number of non-zero basis functions:      469 in task    16
  | Maximal number of non-zero basis functions:      445 in task    17
  Integrating Hamiltonian matrix: batch-based integration.
  GPU acceleration will be used when integrating the Hamiltonian matrix.
  Reporting GPU memory usage by myid 0.  Note that it is likely not the only MPI task binding to its GPU!
  Allocating        1.620 MB on GPU for hamiltonian_shell
  Allocating        0.720 MB on GPU for wave
  Allocating        0.002 MB on GPU for partition
  Allocating        0.720 MB on GPU for h_times_psi
  Time summed over all CPUs for integration: real work       11.683 s, elapsed       12.051 s
  Deallocating memory used on GPU for Hamiltonian integration.
  Integrating overlap matrix.
  Time summed over all CPUs for integration: real work        9.864 s, elapsed        9.977 s
  Deallocating overlap matrix.

  Updating Kohn-Sham eigenvalues and eigenvectors using ELSI and the ELPA eigensolver.
  Singularity check in k-point 1 (analysis for other k-points may follow below):
  Overlap matrix is not singular
  | Lowest and highest eigenvalues :  0.1791E-02,  0.7705E+01
  Finished singularity check of overlap matrix
  | Time :     0.152 s
  Starting ELPA eigensolver (GPU)
  Finished Cholesky decomposition
  | Time :     0.006 s
  Finished transformation to standard eigenproblem
  | Time :     0.026 s
  Finished solving standard eigenproblem
  | Time :     0.185 s
  Finished back-transformation of eigenvectors
  | Time :     0.015 s

  Obtaining occupation numbers and electronic chemical potential using ELSI.
  | Note that, for insulating systems, the printed 'chemical potential' value is not uniquely defined.
  | It can be anywhere in the energy gap, as long as it correctly separates occupied and unoccupied states.
  | In systems with a gap, the physically relevant chemical potential is the VBM or HOMO.

  | Chemical potential (Fermi level):    -8.35582004 eV
  Writing Kohn-Sham eigenvalues.

  State    Occupation    Eigenvalue [Ha]    Eigenvalue [eV]
      1       2.00000         -18.918880         -514.80892
      2       2.00000         -18.918375         -514.79518
      3       2.00000         -18.914754         -514.69663
      4       2.00000         -18.906643         -514.47592
      5       2.00000         -18.901131         -514.32595
      6       2.00000         -18.898496         -514.25425
      7       2.00000         -18.895888         -514.18327
      8       2.00000         -18.892920         -514.10250
      9       2.00000         -18.892131         -514.08103
     10       2.00000         -18.890142         -514.02691
     11       2.00000         -18.887773         -513.96246
     12       2.00000         -18.887125         -513.94483
     13       2.00000         -18.881226         -513.78429
     14       2.00000         -18.879760         -513.74440
     15       2.00000         -18.879190         -513.72891
     16       2.00000         -18.878693         -513.71539
     17       2.00000         -18.878395         -513.70728
     18       2.00000         -18.876929         -513.66737
     19       2.00000         -18.876403         -513.65307
     20       2.00000         -18.873800         -513.58224
     21       2.00000         -18.872729         -513.55307
     22       2.00000         -18.872715         -513.55271
     23       2.00000         -18.870829         -513.50139
     24       2.00000         -18.870149         -513.48288
     25       2.00000         -18.865944         -513.36845
     26       2.00000         -18.865789         -513.36423
     27       2.00000         -18.862217         -513.26704
     28       2.00000         -18.858507         -513.16607
     29       2.00000         -18.855286         -513.07843
     30       2.00000         -18.854276         -513.05095
     31       2.00000         -18.848979         -512.90681
     32       2.00000         -18.831564         -512.43292
     33       2.00000          -1.175472          -31.98621
     34       2.00000          -1.172838          -31.91455
     35       2.00000          -1.171678          -31.88298
     36       2.00000          -1.169753          -31.83059
     37       2.00000          -1.153492          -31.38813
     38       2.00000          -1.147849          -31.23457
     39       2.00000          -1.144774          -31.15088
     40       2.00000          -1.143904          -31.12720
     41       2.00000          -1.141551          -31.06318
     42       2.00000          -1.141102          -31.05097
     43       2.00000          -1.138522          -30.98076
     44       2.00000          -1.130174          -30.75359
     45       2.00000          -1.125164          -30.61726
     46       2.00000          -1.123429          -30.57006
     47       2.00000          -1.119250          -30.45633
     48       2.00000          -1.119013          -30.44989
     49       2.00000          -1.117505          -30.40885
     50       2.00000          -1.114330          -30.32247
     51       2.00000          -1.110901          -30.22915
     52       2.00000          -1.106555          -30.11090
     53       2.00000          -1.102976          -30.01352
     54       2.00000          -1.099373          -29.91547
     55       2.00000          -1.096917          -29.84864
     56       2.00000          -1.093994          -29.76910
     57       2.00000          -1.085918          -29.54932
     58       2.00000          -1.080127          -29.39175
     59       2.00000          -1.079606          -29.37758
     60       2.00000          -1.074988          -29.25191
     61       2.00000          -1.073778          -29.21899
     62       2.00000          -1.071295          -29.15142
     63       2.00000          -1.060018          -28.84455
     64       2.00000          -1.026807          -27.94085
     65       2.00000          -0.730440          -19.87628
     66       2.00000          -0.722221          -19.65262
     67       2.00000          -0.712147          -19.37850
     68       2.00000          -0.691811          -18.82512
     69       2.00000          -0.680116          -18.50691
     70       2.00000          -0.680019          -18.50427
     71       2.00000          -0.673186          -18.31833
     72       2.00000          -0.671860          -18.28225
     73       2.00000          -0.671489          -18.27216
     74       2.00000          -0.671036          -18.25981
     75       2.00000          -0.668549          -18.19214
     76       2.00000          -0.661891          -18.01098
     77       2.00000          -0.660339          -17.96874
     78       2.00000          -0.655923          -17.84857
     79       2.00000          -0.650687          -17.70609
     80       2.00000          -0.646558          -17.59375
     81       2.00000          -0.646152          -17.58269
     82       2.00000          -0.645124          -17.55471
     83       2.00000          -0.643275          -17.50439
     84       2.00000          -0.643040          -17.49800
     85       2.00000          -0.640363          -17.42516
     86       2.00000          -0.637957          -17.35970
     87       2.00000          -0.635805          -17.30113
     88       2.00000          -0.632749          -17.21798
     89       2.00000          -0.631192          -17.17560
     90       2.00000          -0.624995          -17.00699
     91       2.00000          -0.622806          -16.94742
     92       2.00000          -0.621093          -16.90081
     93       2.00000          -0.610596          -16.61515
     94       2.00000          -0.607284          -16.52505
     95       2.00000          -0.601598          -16.37032
     96       2.00000          -0.591669          -16.10013
     97       2.00000          -0.590257          -16.06170
     98       2.00000          -0.580088          -15.78500
     99       2.00000          -0.577798          -15.72267
    100       2.00000          -0.576628          -15.69084
    101       2.00000          -0.573889          -15.61631
    102       2.00000          -0.571140          -15.54151
    103       2.00000          -0.568047          -15.45734
    104       2.00000          -0.559824          -15.23359
    105       2.00000          -0.557177          -15.16155
    106       2.00000          -0.553222          -15.05394
    107       2.00000          -0.548757          -14.93245
    108       2.00000          -0.547938          -14.91015
    109       2.00000          -0.546637          -14.87475
    110       2.00000          -0.542697          -14.76754
    111       2.00000          -0.540751          -14.71458
    112       2.00000          -0.539556          -14.68206
    113       2.00000          -0.536182          -14.59025
    114       2.00000          -0.533925          -14.52884
    115       2.00000          -0.532220          -14.48245
    116       2.00000          -0.529071          -14.39677
    117       2.00000          -0.528015          -14.36802
    118       2.00000          -0.526606          -14.32968
    119       2.00000          -0.523777          -14.25270
    120       2.00000          -0.523036          -14.23253
    121       2.00000          -0.516896          -14.06547
    122       2.00000          -0.514279          -13.99425
    123       2.00000          -0.510667          -13.89595
    124       2.00000          -0.507228          -13.80237
    125       2.00000          -0.504447          -13.72670
    126       2.00000          -0.497188          -13.52918
    127       2.00000          -0.496434          -13.50866
    128       2.00000          -0.491872          -13.38453
    129       2.00000          -0.490777          -13.35471
    130       2.00000          -0.487806          -13.27388
    131       2.00000          -0.487288          -13.25977
    132       2.00000          -0.483165          -13.14760
    133       2.00000          -0.479699          -13.05327
    134       2.00000          -0.476154          -12.95680
    135       2.00000          -0.474656          -12.91606
    136       2.00000          -0.472861          -12.86721
    137       2.00000          -0.471927          -12.84179
    138       2.00000          -0.471770          -12.83752
    139       2.00000          -0.469125          -12.76553
    140       2.00000          -0.466211          -12.68626
    141       2.00000          -0.465187          -12.65837
    142       2.00000          -0.463313          -12.60740
    143       2.00000          -0.462438          -12.58358
    144       2.00000          -0.461943          -12.57010
    145       2.00000          -0.461066          -12.54626
    146       2.00000          -0.459583          -12.50589
    147       2.00000          -0.458257          -12.46981
    148       2.00000          -0.457547          -12.45049
    149       2.00000          -0.456933          -12.43378
    150       2.00000          -0.455343          -12.39051
    151       2.00000          -0.454661          -12.37196
    152       2.00000          -0.454173          -12.35869
    153       2.00000          -0.451383          -12.28277
    154       2.00000          -0.450318          -12.25376
    155       2.00000          -0.449967          -12.24422
    156       2.00000          -0.443737          -12.07471
    157       2.00000          -0.442674          -12.04578
    158       2.00000          -0.440642          -11.99048
    159       2.00000          -0.438290          -11.92648
    160       2.00000          -0.422855          -11.50648
    161       0.00000          -0.173588           -4.72357
    162       0.00000          -0.111594           -3.03663
    163       0.00000          -0.110670           -3.01148
    164       0.00000          -0.108525           -2.95313
    165       0.00000          -0.105103           -2.85999
    166       0.00000          -0.098751           -2.68714
    167       0.00000          -0.092376           -2.51368
    168       0.00000          -0.064617           -1.75831
    169       0.00000          -0.061843           -1.68283
    170       0.00000          -0.058806           -1.60020
    171       0.00000          -0.057604           -1.56749
    172       0.00000          -0.056615           -1.54056
    173       0.00000          -0.045206           -1.23012
    174       0.00000          -0.042403           -1.15385
    175       0.00000          -0.041508           -1.12949
    176       0.00000          -0.037285           -1.01457
    177       0.00000          -0.033336           -0.90712
    178       0.00000          -0.029784           -0.81048
    179       0.00000          -0.016278           -0.44295
    180       0.00000          -0.011844           -0.32230
    181       0.00000          -0.007509           -0.20433
    182       0.00000          -0.004445           -0.12096
    183       0.00000           0.005253            0.14294
    184       0.00000           0.006230            0.16952
    185       0.00000           0.010235            0.27850
    186       0.00000           0.013281            0.36139
    187       0.00000           0.021877            0.59531
    188       0.00000           0.030249            0.82311
    189       0.00000           0.033090            0.90043
    190       0.00000           0.038870            1.05770
    191       0.00000           0.039908            1.08596
    192       0.00000           0.042475            1.15580
    193       0.00000           0.049584            1.34925
    194       0.00000           0.050185            1.36560
    195       0.00000           0.054889            1.49361
    196       0.00000           0.056458            1.53631
    197       0.00000           0.059921            1.63052
    198       0.00000           0.062470            1.69990
    199       0.00000           0.064260            1.74861
    200       0.00000           0.064860            1.76493
    201       0.00000           0.070474            1.91769
    202       0.00000           0.071990            1.95894
    203       0.00000           0.072460            1.97174
    204       0.00000           0.077522            2.10947
    205       0.00000           0.078788            2.14393
    206       0.00000           0.080510            2.19078
    207       0.00000           0.088543            2.40937
    208       0.00000           0.090023            2.44964
    209       0.00000           0.090858            2.47238
    210       0.00000           0.093472            2.54349
    211       0.00000           0.096262            2.61942
    212       0.00000           0.099021            2.69449
    213       0.00000           0.102712            2.79493
    214       0.00000           0.105702            2.87629
    215       0.00000           0.106221            2.89041
    216       0.00000           0.109156            2.97029
    217       0.00000           0.113914            3.09977
    218       0.00000           0.115144            3.13323
    219       0.00000           0.115876            3.15316
    220       0.00000           0.119877            3.26201
    221       0.00000           0.123929            3.37228
    222       0.00000           0.125580            3.41720
    223       0.00000           0.128131            3.48662
    224       0.00000           0.141683            3.85540
    225       0.00000           0.145469            3.95843
    226       0.00000           0.154516            4.20460
    227       0.00000           0.163053            4.43689
    228       0.00000           0.170483            4.63908
    229       0.00000           0.172894            4.70467
    230       0.00000           0.174472            4.74762
    231       0.00000           0.179677            4.88926
    232       0.00000           0.189255            5.14988
    233       0.00000           0.194190            5.28419
    234       0.00000           0.196111            5.33646
    235       0.00000           0.200975            5.46880
    236       0.00000           0.207316            5.64136
    237       0.00000           0.220866            6.01007
    238       0.00000           0.225427            6.13417
    239       0.00000           0.232133            6.31666
    240       0.00000           0.236404            6.43287
    241       0.00000           0.238108            6.47925
    242       0.00000           0.247527            6.73556
    243       0.00000           0.252239            6.86377
    244       0.00000           0.259009            7.04798
    245       0.00000           0.267144            7.26936
    246       0.00000           0.267888            7.28960
    247       0.00000           0.271276            7.38178
    248       0.00000           0.281442            7.65843
    249       0.00000           0.294564            8.01549
    250       0.00000           0.299868            8.15981
    251       0.00000           0.306517            8.34074
    252       0.00000           0.313313            8.52569
    253       0.00000           0.314577            8.56008
    254       0.00000           0.324164            8.82095
    255       0.00000           0.330797            9.00144
    256       0.00000           0.332705            9.05335
    257       0.00000           0.343686            9.35217
    258       0.00000           0.348309            9.47797
    259       0.00000           0.355106            9.66292
    260       0.00000           0.363561            9.89301
[...]
  |    H      0     4.527807 A      4.527807 A        1.268855E-16 a.u.
  |    H      0     4.527807 A      4.583499 A       -4.900954E-17 a.u.
  |    H      0     4.527807 A      4.583499 A        4.713786E-16 a.u.
  |    H      2     3.678162 A  2.180220E+05 A            0.556529 a.u.
  |    H      1     3.958095 A  1.721251E+08 A            0.841931 a.u.
  |    H      0     4.527807 A  3.866455E+16 A            0.581436 a.u.
  |    O      0     2.043000 A      2.043000 A       -1.436841E-16 a.u.
  |    O      3     3.498446 A      3.498446 A        3.043453E-17 a.u.
  |    O      3     3.498446 A      3.498446 A        1.541443E-16 a.u.
  |    O      0     3.905335 A      3.905335 A        2.173090E-16 a.u.
  |    O      0     3.905335 A      3.905335 A        7.213445E-17 a.u.
  |    O      0     4.101052 A      4.101052 A        2.361718E-16 a.u.
  |    O      1     4.101052 A      4.101052 A        3.235185E-17 a.u.
  |    O      0     4.359549 A      4.359549 A       -5.329475E-17 a.u.
  |    O      1     4.413171 A      4.413171 A        3.261883E-17 a.u.
  |    O      1     4.522403 A      4.522403 A        6.417997E-16 a.u.
  |    O      1     4.522403 A      4.522403 A        4.224783E-16 a.u.
  |    O      2     4.522403 A      4.522403 A       -4.387647E-16 a.u.
  |    O      0     4.522403 A      4.578029 A        2.602039E-16 a.u.
  |    O      0     4.578029 A      4.578029 A        1.226235E-16 a.u.
  |    O      1     4.578029 A      4.578029 A       -6.107316E-16 a.u.
  |    O      1     4.578029 A      4.578029 A       -2.224438E-16 a.u.
  |    O      2     4.578029 A      4.578029 A       -7.020279E-16 a.u.
  |    O      2     4.522403 A      4.578029 A        1.323470E-15 a.u.
  |    O      2     4.578029 A      4.578029 A        7.923696E-16 a.u.
  |    O      2     4.522403 A      4.578029 A       -9.951815E-16 a.u.
  |    O      0     4.578029 A      4.634338 A       -8.813582E-18 a.u.
  |    O      1     4.578029 A      4.634338 A       -3.325386E-17 a.u.
  |    O      1     4.634338 A      4.634338 A        9.588032E-16 a.u.
  |    O      2     4.578029 A      4.634338 A        1.064715E-17 a.u.
  |    O      2     4.578029 A      4.634338 A       -3.770343E-15 a.u.
  |    O      4     3.251020 A  1.511584E+03 A            1.513372 a.u.
  |    O      3     3.541477 A  1.434166E+04 A            4.293220 a.u.
  |    O      2     4.634338 A  5.584435E+05 A            9.352428 a.u.
  |    O      1     4.634338 A  2.821283E+08 A            2.261940 a.u.
  |    O      0     4.578029 A  4.264100E+16 A            0.641234 a.u.

  | Shrink_full_auxil_basis : there are       38  radial auxiliary wave functions
                            accepted and       5 rejected.
  | Shrink_full_auxil_basis : there are totally                4544 partial auxiliary wave functions.
 
  | Maximal number of product basis functions per thread :   256   256
 
  | Minimal total memory requirement for three-center overlap :      10.450 Gbs
  | Number of local auxiliary basis functions on task:      0   256
  | Number of local auxiliary basis functions on task:      1   256
  | Number of local auxiliary basis functions on task:      2   256
  | Number of local auxiliary basis functions on task:      3   256
  | Number of local auxiliary basis functions on task:      4   256
  | Number of local auxiliary basis functions on task:      5   256
  | Number of local auxiliary basis functions on task:      6   256
  | Number of local auxiliary basis functions on task:      7   256
  | Number of local auxiliary basis functions on task:      8   256
  | Number of local auxiliary basis functions on task:      9   256
  | Number of local auxiliary basis functions on task:     10   256
  | Number of local auxiliary basis functions on task:     11   256
  | Number of local auxiliary basis functions on task:     12   256
  | Number of local auxiliary basis functions on task:     13   256
  | Number of local auxiliary basis functions on task:     14   240
  | Number of local auxiliary basis functions on task:     15   240
  | Number of local auxiliary basis functions on task:     16   240
  | Number of local auxiliary basis functions on task:     17   240
  | 2D aux task distribution:      3 X      6
  | 2D block size (nb_aux_2d):     64
 
  Basis pair condensation :    295296  -->     227909
 
 --------------------------------------------
  Constructing auxiliary basis (full product) ...
 
  Product basis:
  | charge radius: extent of product basis function
  | field radius: extent of its Coulomb potential
  | Species   l  charge radius    field radius  multipol momen
  |    H      1     3.910002 A      3.910002 A       -2.487223E-16 a.u.
  |    H      1     3.958095 A      3.958095 A       -2.441841E-16 a.u.
  |    H      0     4.527807 A      4.527807 A        1.268855E-16 a.u.
  |    H      0     4.527807 A      4.583499 A       -4.900954E-17 a.u.
  |    H      0     4.527807 A      4.583499 A        4.713786E-16 a.u.
  |    H      2     3.678162 A  2.180220E+05 A            0.556529 a.u.
  |    H      1     3.958095 A  1.721251E+08 A            0.841931 a.u.
  |    H      0     4.527807 A  3.866455E+16 A            0.581436 a.u.
  |    O      0     2.043000 A      2.043000 A       -1.436841E-16 a.u.
  |    O      3     3.498446 A      3.498446 A        3.043453E-17 a.u.
  |    O      3     3.498446 A      3.498446 A        1.541443E-16 a.u.
  |    O      0     3.905335 A      3.905335 A        2.173090E-16 a.u.
  |    O      0     3.905335 A      3.905335 A        7.213445E-17 a.u.
  |    O      0     4.101052 A      4.101052 A        2.361718E-16 a.u.
  |    O      1     4.101052 A      4.101052 A        3.235185E-17 a.u.
  |    O      0     4.359549 A      4.359549 A       -5.329475E-17 a.u.
  |    O      1     4.413171 A      4.413171 A        3.261883E-17 a.u.
  |    O      1     4.522403 A      4.522403 A        6.417997E-16 a.u.
  |    O      1     4.522403 A      4.522403 A        4.224783E-16 a.u.
  |    O      2     4.522403 A      4.522403 A       -4.387647E-16 a.u.
  |    O      0     4.522403 A      4.578029 A        2.602039E-16 a.u.
  |    O      0     4.578029 A      4.578029 A        1.226235E-16 a.u.
  |    O      1     4.578029 A      4.578029 A       -6.107316E-16 a.u.
  |    O      1     4.578029 A      4.578029 A       -2.224438E-16 a.u.
  |    O      2     4.578029 A      4.578029 A       -7.020279E-16 a.u.
  |    O      2     4.522403 A      4.578029 A        1.323470E-15 a.u.
  |    O      2     4.578029 A      4.578029 A        7.923696E-16 a.u.
  |    O      2     4.522403 A      4.578029 A       -9.951815E-16 a.u.
  |    O      0     4.578029 A      4.634338 A       -8.813582E-18 a.u.
  |    O      1     4.578029 A      4.634338 A       -3.325386E-17 a.u.
  |    O      1     4.634338 A      4.634338 A        9.588032E-16 a.u.
  |    O      2     4.578029 A      4.634338 A        1.064715E-17 a.u.
  |    O      2     4.578029 A      4.634338 A       -3.770343E-15 a.u.
  |    O      4     3.251020 A  1.511584E+03 A            1.513372 a.u.
  |    O      3     3.541477 A  1.434166E+04 A            4.293220 a.u.
  |    O      2     4.634338 A  5.584435E+05 A            9.352428 a.u.
  |    O      1     4.634338 A  2.821283E+08 A            2.261940 a.u.
  |    O      0     4.578029 A  4.264100E+16 A            0.641234 a.u.

  | Shrink_full_auxil_basis : there are       38  radial auxiliary wave functions
                            accepted and       5 rejected.
  | Shrink_full_auxil_basis : there are totally                4544 partial auxiliary wave functions.
 
  | Maximal number of product basis functions per thread :   256   256
 
  | Minimal total memory requirement for three-center overlap :      10.450 Gbs
  | Number of local auxiliary basis functions on task:      0   256
  | Number of local auxiliary basis functions on task:      1   256
  | Number of local auxiliary basis functions on task:      2   256
  | Number of local auxiliary basis functions on task:      3   256
  | Number of local auxiliary basis functions on task:      4   256
  | Number of local auxiliary basis functions on task:      5   256
  | Number of local auxiliary basis functions on task:      6   256
  | Number of local auxiliary basis functions on task:      7   256
  | Number of local auxiliary basis functions on task:      8   256
  | Number of local auxiliary basis functions on task:      9   256
  | Number of local auxiliary basis functions on task:     10   256
  | Number of local auxiliary basis functions on task:     11   256
  | Number of local auxiliary basis functions on task:     12   256
  | Number of local auxiliary basis functions on task:     13   256
  | Number of local auxiliary basis functions on task:     14   240
  | Number of local auxiliary basis functions on task:     15   240
  | Number of local auxiliary basis functions on task:     16   240
  | Number of local auxiliary basis functions on task:     17   240
  | 2D aux task distribution:      3 X      6
  | 2D block size (nb_aux_2d):     64
 
  Basis pair condensation :    295296  -->     227909
dP_dE (Bohr^3) at every cycle:--->
 (350.583163838184,0.000000000000000E+000) (4.74288807488932,0.000000000000000E+000) (-1.08786982867371,0.000000000000000E+000)
 (4.72886693449551,0.000000000000000E+000) (343.364582143868,0.000000000000000E+000) (3.46701925082832,0.000000000000000E+000)
 (-1.08188499228750,0.000000000000000E+000) (3.47058971855153,0.000000000000000E+000) (340.216996084830,0.000000000000000E+000)
DFPT polarizability (Bohr^3)        xx        yy        zz        xy        xz        yz
  | Polarizability:--->                       350.583163838                  343.364582144                  340.216996085                    4.742888075                   -1.087869829                    3.467019251

DFPT for dielectric_constant:--->  # PARSE DFPT_dielectric_tensor
               1.720291094363329             0.009744506851109            -0.002235084368689
               0.009715699698912             1.705460147972674             0.007123168902402
              -0.002222788215323             0.007130504611498             1.698993270949129

                                               :  max(cpu_time)    wall_clock(cpu1)
  | Time for  dielectric calculation            :        0.000 s           0.000 s
===========================================================================

------------------------------------------------------------------------------
  Final output of selected total energy values:

  The following output summarizes some interesting total energy values
  at the end of a run (AFTER all relaxation, molecular dynamics, etc.).

  | Total energy of the DFT / Hartree-Fock s.c.f. calculation      :         -66109.811146283 eV
  | Final zero-broadening corrected energy (caution - metals only) :         -66109.811146283 eV
  | For reference only, the value of 1 Hartree used in FHI-aims is :             27.211384500 eV
  | For reference only, the overall average (free atom contribution
  | + realspace contribution) of the electrostatic potential after
  | s.c.f. convergence is                                          :             -5.310396808 eV

  Before relying on these values, please be sure to understand exactly which
  total energy value is referred to by a given number. Different objects may
  all carry the same name 'total energy'. Definitions:

  Total energy of the DFT / Hartree-Fock s.c.f. calculation:
  | Note that this energy does not include ANY quantities calculated after the
  | s.c.f. cycle, in particular not ANY RPA, MP2, etc. many-body perturbation terms.

  Final zero-broadening corrected energy:
  | For metallic systems only, a broadening of the occupation numbers at the Fermi
  | level can be extrapolated back to zero broadening by an electron-gas inspired
  | formula. For all systems that are not real metals, this value can be
  | meaningless and should be avoided.

------------------------------------------------------------------------------
  Methods described in the following list of references were used in this FHI-aims run.
  If you publish the results, please make sure to cite these reference if they apply.
  FHI-aims is an academic code, and for our developers (often, Ph.D. students
  and postdocs), scientific credit in the community is essential.
  Thank you for helping us!

  For any use of FHI-aims, please cite:

    Volker Blum, Ralf Gehrke, Felix Hanke, Paula Havu, Ville Havu,
    Xinguo Ren, Karsten Reuter, and Matthias Scheffler
    'Ab initio molecular simulations with numeric atom-centered orbitals'
    Computer Physics Communications 180, 2175-2196 (2009)
    http://doi.org/10.1016/j.cpc.2009.06.022


  For Hartree-Fock, hybrid functionals, or many-body perturbation theory used in your run, please cite:

    Xinguo Ren, Patrick Rinke, Volker Blum, Juergen Wieferink, Alex Tkatchenko,
    Andrea Sanfilippo, Karsten Reuter, and Matthias Scheffler,
    'Resolution-of-identity approach to Hartree-Fock, hybrid density functionals,
    RPA, MP2, and GW with numeric atom-centered orbital basis functions'
    New Journal of Physics 14, 053020 (2012).
    http://doi.org/10.1088/1367-2630/14/5/053020


  The provided symmetry information was generated with SPGlib:

    Atsushi Togo, Yusuke Seto, Dimitar Pashov
    SPGlib 1.7.3 obtained from http://spglib.sourceforge.net
    Copyright (C) 2008 Atsushi Togo


  The DFPT (perturbation by an electric field) part of the code was used.
  Here is the corresponding reference:

    Honghui Shang, Nathaniel Raimbault, Mariana Rossi,
    Christian Carbogno, Patrick Rinke and Matthias Scheffler,
    'All-Electron, Real-Space Perturbation Theory for Homogeneous
    Electric Fields: Theory, Implementation, and Application within dft'
    New Journal of Physics, 20(7):073040, 2018


  The ELSI infrastructure was used in your run to solve the Kohn-Sham electronic structure.
  Please check out http://elsi-interchange.org to learn more.
  If scalability is important for your project, please acknowledge ELSI by citing:

    V. W-z. Yu, F. Corsetti, A. Garcia, W. P. Huhn, M. Jacquelin, W. Jia,
    B. Lange, L. Lin, J. Lu, W. Mi, A. Seifitokaldani, A. Vazquez-Mayagoitia,
    C. Yang, H. Yang, and V. Blum
    'ELSI: A unified software interface for Kohn-Sham electronic structure solvers'
    Computer Physics Communications 222, 267-285 (2018).
    http://doi.org/10.1016/j.cpc.2017.09.007


  For the real-space grid partitioning and parallelization used in this calculation, please cite:

    Ville Havu, Volker Blum, Paula Havu, and Matthias Scheffler,
    'Efficient O(N) integration for all-electron electronic structure calculation'
    'using numerically tabulated basis functions'
    Journal of Computational Physics 228, 8367-8379 (2009).
    http://doi.org/10.1016/j.jcp.2009.08.008


  The high-level electronic structure method used in your calculation
  employed our efficient localized resolution of identity for the Coulomb operator.
  Some calculations, especially large-scale hybrid density functional theory,
  are only possible thanks to this development. For this feature, please cite:

    Arvid Ihrig, Juergen Wieferink, Igor Ying Zhang, Matti Ropo, Xinguo Ren,
    Patrick Rinke, Matthias Scheffler, and Volker Blum,
    'Accurate localized resolution of identity approach for linear-scaling
    hybrid density functionals and for many-body perturbation theory'
    New Journal of Physics 117, 093020 (2015).
    http://doi.org/10.1088/1367-2630/17/9/093020

  Of course, there are many other important community references, e.g., those cited in the
  above references. Our list is limited to references that describe implementations in the
  FHI-aims code. The reason is purely practical (length of this list) - please credit others as well.

------------------------------------------------------------
          Leaving FHI-aims.
          Date     :  20230221, Time     :  160554.999

          Computational steps:
          | Number of self-consistency cycles          :           45
          | Number of SCF (re)initializations          :            1
          | Number of coupled perturbed self-consistency cycles          :            0
          | Number of CPSCF (re)initializations          :            0

          Detailed time accounting                     :  max(cpu_time)    wall_clock(cpu1)
          | Total time                                  :      539.567 s         550.360 s
          | GPU initialization                          :        2.097 s           8.870 s
          | Preparation time                            :        0.079 s           0.065 s
          | Boundary condition initalization            :        1.445 s           1.445 s
          | Grid partitioning                           :        0.422 s           0.422 s
          | Preloading free-atom quantities on grid     :        2.529 s           2.530 s
          | Free-atom superposition energy              :        0.267 s           0.266 s
          | Total time for integrations                 :       14.649 s          14.859 s
          | Product basis setup: Total time             :        0.000 s           0.000 s
          | Product basis: | 2-center integrations     :(       0.000 s)  (       0.000 s)
          | Product basis: | LVL 3-center & coefficient:(       0.000 s)  (       0.000 s)
          | Total time for solution of K.-S. equations  :        2.534 s           5.378 s
          | Total time for density update               :       10.926 s          11.303 s
          | Total time for mixing & preconditioning     :        8.757 s           8.757 s
          | Total time for Hartree multipole update     :        0.102 s           0.102 s
          | Total time for Hartree multipole sum        :       39.095 s          39.108 s
          | Total time for total energy evaluation      :        0.006 s           0.007 s
          | Total time for DFPT                         :      455.972 s         456.158 s
          | Total time first_order_DM                   :        0.322 s           0.323 s
          | Total time first_order_density              :       98.148 s          98.173 s
          | Total time first_order_potential            :       55.276 s          55.295 s
          | Total time first_order_H                    :      199.799 s         199.879 s
          | Total time solving of Sternheimer equations :        0.195 s           0.195 s
          | Total time for dielectric constant          :        0.000 s           0.000 s
          | Total time momentum matrix                  :        0.000 s           0.000 s

          GPU acceleration has been used for charge density update.
          GPU acceleration has been used for real-space Hamiltonian integration.
          Due to GPU usage, wall_clock(cpu1) will give a more reliable estimate for timings.

          Partial memory accounting:
          | Residual value for overall tracked memory usage across tasks:     0.000000 MB (should be 0.000000 MB)
          | Peak values for overall tracked memory usage:
          |   Minimum:      125.090 MB (on task  0 after allocating DFPT_pulay_mixing::pulay_mix::alphas)
          |   Maximum:      125.090 MB (on task  0 after allocating DFPT_pulay_mixing::pulay_mix::alphas)
          |   Average:      125.090 MB
          | Largest tracked array allocation:
          |   Minimum:       44.634 MB (DFPT_pulay_mixing::initialize_pulay_mixing::X_in_diffs on task  0)
          |   Maximum:       44.634 MB (DFPT_pulay_mixing::initialize_pulay_mixing::X_in_diffs on task  0)
          |   Average:       44.634 MB
          Note:  These values currently only include a subset of arrays which are explicitly tracked.
          The "true" memory usage will be greater.

          Have a nice day.
------------------------------------------------------------
