------------------------------------------------------------
          Invoking FHI-aims ...

          When using FHI-aims, please cite the following reference:

            Volker Blum, Ralf Gehrke, Felix Hanke, Paula Havu,
            Ville Havu, Xinguo Ren, Karsten Reuter, and Matthias Scheffler,
            'Ab Initio Molecular Simulations with Numeric Atom-Centered Orbitals',
            Computer Physics Communications 180, 2175-2196 (2009)

          In addition, many other developments in FHI-aims are likely important for
          your particular application. A partial list of references is given at the end of
          this file. Thank you for giving credit to the authors of these developments.

          For any questions about FHI-aims, please visit our slack channel at

            https://fhi-aims.slack.com

          and our main development and support site at

            https://aims-git.rz-berlin.mpg.de .

          The latter site, in particular, has a wiki to collect information, as well
          as an issue tracker to log discussions, suggest improvements, and report issues
          or bugs. https://aims-git.rz-berlin.mpg.de is also the main development site
          of the project and all new and updated code versions can be obtained there.
          Please send an email to aims-coordinators@fhi-berlin.mpg.de and we will add
          you to these sites. They are for you and everyone is welcome there.

------------------------------------------------------------



  Date     :  20230221, Time     :  125905.008
  Time zero on CPU 1             :   0.333357000000000E+00  s.
  Internal wall clock time zero  :           446216345.008  s.

  FHI-aims created a unique identifier for this run for later identification
  aims_uuid : 9A2C0F2E-3E6A-403E-A479-A7A1060B7182

  Build configuration of the current instance of FHI-aims
  -------------------------------------------------------
  FHI-aims version      : 221103
  Commit number         : 42523251a
  CMake host system     : Linux-5.3.18-150300.59.68-default
  CMake version         : 3.17.0
  Fortran compiler      : /mpcdf/soft/SLE_15/packages/x86_64/intel_oneapi/2021.3/mpi/2021.3.0/bin/mpiifort (Intel) version 20.2.3.20210609
  Fortran compiler flags: -O3 -ip -fp-model precise
  C compiler            : /mpcdf/soft/SLE_15/packages/x86_64/intel/2021.3.0/bin/icc (Intel) version 20.2.3.20210609
  C compiler flags      : -O3 -ip -fp-model precise -std=gnu99
  CUDA compiler         : /mpcdf/soft/SLE_15/packages/x86_64/cuda/11.6.2/bin/nvcc
  CUDA compiler flags   : -O3 -DAdd_ -lcublas
  HIP compiler          :
  HIP compiler flags    :
  HIP GPU arch          :
  ELPA2 kernel          : AVX512
  Using MPI
  Using ScaLAPACK
  Using LibXC
  Using CUDA
  Using i-PI
  Using RLSY
  Linking against: /mpcdf/soft/SLE_15/packages/x86_64/cuda/11.6.2/lib64/libcublas.so
                   /mpcdf/soft/SLE_15/packages/x86_64/cuda/11.6.2/lib64/libcudart.so
                   /mpcdf/soft/SLE_15/packages/x86_64/intel_oneapi/2021.3/mkl/latest/lib/intel64/libmkl_intel_lp64.so
                   /mpcdf/soft/SLE_15/packages/x86_64/intel_oneapi/2021.3/mkl/latest/lib/intel64/libmkl_sequential.so
                   /mpcdf/soft/SLE_15/packages/x86_64/intel_oneapi/2021.3/mkl/latest/lib/intel64/libmkl_core.so
                   /mpcdf/soft/SLE_15/packages/x86_64/intel_oneapi/2021.3/mkl/latest/lib/intel64/libmkl_blacs_intelmpi_lp64.so
                   /mpcdf/soft/SLE_15/packages/x86_64/intel_oneapi/2021.3/mkl/latest/lib/intel64/libmkl_scalapack_lp64.so

  Using       18 parallel tasks.
  Task        0 on host adag037 reporting.
  Task        1 on host adag037 reporting.
  Task        2 on host adag037 reporting.
  Task        3 on host adag037 reporting.
  Task        4 on host adag037 reporting.
  Task        5 on host adag037 reporting.
  Task        6 on host adag037 reporting.
  Task        7 on host adag037 reporting.
  Task        8 on host adag037 reporting.
  Task        9 on host adag037 reporting.
  Task       10 on host adag037 reporting.
  Task       11 on host adag037 reporting.
  Task       12 on host adag037 reporting.
  Task       13 on host adag037 reporting.
  Task       14 on host adag037 reporting.
  Task       15 on host adag037 reporting.
  Task       16 on host adag037 reporting.
  Task       17 on host adag037 reporting.

  Obtaining array dimensions for all initial allocations:
  
  -----------------------------------------------------------------------
  Parsing control.in (first pass over file, find array dimensions only).
  The contents of control.in will be repeated verbatim below
  unless switched off by setting 'verbatim_writeout .false.' .
  in the first line of control.in .
  -----------------------------------------------------------------------
  
  #########################################################################################
  #
  #  Volker Blum, 2017 : Test run input file control.in for simple H2O
  #
  #########################################################################################
  #
  #  Physical model
  #
    xc                 pw-lda
    spin               none
    relativistic       none
    charge             0.
  
    use_gpu
  
    DFPT dielectric
    ri_density_restart write
    ri_rho1 write
  #  ri_density_restart read 0
  #  ri_rho1 read
    ri_full_output .true.
    sc_accuracy_rho    1d-6
  #  use_calculate_fock_matrix_old .false.
  #  wave_threshold 1e-8
    k_grid 1 1 1
  #  output cube eigenstate 160
  #  output cube eigenstate 161
    wave_threshold 1e-8
    default_prodbas_acc 1e-6
    default_max_l_prodbas 6
  #
  #  Relaxation
  #
  #  relax_geometry   bfgs 1.e-2
  #
  
  ################################################################################
  
  
  ################################################################################
  #
  #  FHI-aims code project
  #  VB, Fritz-Haber Institut, 2009
  #
  #  Suggested "light" defaults for H atom (to be pasted into control.in file)
  #  Be sure to double-check any results obtained with these settings for post-processing,
  #  e.g., with the "tight" defaults and larger basis sets.
  #
  ################################################################################
    species        H
  #     global species definitions
      nucleus             1
      mass                1.00794
  #
      l_hartree           4
  #
      cut_pot             3.5  1.5  1.0
      basis_dep_cutoff    1e-4
  #
      radial_base         24 5.0
      radial_multiplier   1
      angular_grids       specified
        division   0.2421   50
        division   0.3822  110
        division   0.4799  194
        division   0.5341  302
  #      division   0.5626  434
  #      division   0.5922  590
  #      division   0.6542  770
  #      division   0.6868 1202
  #      outer_grid  770
        outer_grid  302
  ################################################################################
  #
  #  Definition of "minimal" basis
  #
  ################################################################################
  #     valence basis states
      valence      1  s   1.
  #     ion occupancy
      ion_occ      1  s   0.5
  ################################################################################
  #
  #  Suggested additional basis functions. For production calculations,
  #  uncomment them one after another (the most important basis functions are
  #  listed first).
  #
  #  Basis constructed for dimers: 0.5 A, 0.7 A, 1.0 A, 1.5 A, 2.5 A
  #
  ################################################################################
  #  "First tier" - improvements: -1014.90 meV to -62.69 meV
       hydro 2 s 2.1
       hydro 2 p 3.5
  #  "Second tier" - improvements: -12.89 meV to -1.83 meV
  #     hydro 1 s 0.85
  #     hydro 2 p 3.7
  #     hydro 2 s 1.2
  #     hydro 3 d 7
  #  "Third tier" - improvements: -0.25 meV to -0.12 meV
  #     hydro 4 f 11.2
  #     hydro 3 p 4.8
  #     hydro 4 d 9
  #     hydro 3 s 3.2
  ################################################################################
  #
  #  FHI-aims code project
  #  VB, Fritz-Haber Institut, 2009
  #
  #  Suggested "light" defaults for O atom (to be pasted into control.in file)
  #  Be sure to double-check any results obtained with these settings for post-processing,
  #  e.g., with the "tight" defaults and larger basis sets.
  #
  ################################################################################
    species        O
  #     global species definitions
      nucleus             8
      mass                15.9994
  #
      l_hartree           4
  #
      cut_pot             3.5  1.5  1.0
      basis_dep_cutoff    1e-4
  #
      radial_base         36 5.0
      radial_multiplier   1
       angular_grids specified
        division   0.2659   50
        division   0.4451  110
        division   0.6052  194
        division   0.7543  302
  #      division   0.8014  434
  #      division   0.8507  590
  #      division   0.8762  770
  #      division   0.9023  974
  #      division   1.2339 1202
  #      outer_grid 974
        outer_grid 302
  ################################################################################
  #
  #  Definition of "minimal" basis
  #
  ################################################################################
  #     valence basis states
      valence      2  s   2.
      valence      2  p   4.
  #     ion occupancy
      ion_occ      2  s   1.
      ion_occ      2  p   3.
  ################################################################################
  #
  #  Suggested additional basis functions. For production calculations,
  #  uncomment them one after another (the most important basis functions are
  #  listed first).
  #
  #  Constructed for dimers: 1.0 A, 1.208 A, 1.5 A, 2.0 A, 3.0 A
  #
  ################################################################################
  #  "First tier" - improvements: -699.05 meV to -159.38 meV
       hydro 2 p 1.8
       hydro 3 d 7.6
       hydro 3 s 6.4
  #  "Second tier" - improvements: -49.91 meV to -5.39 meV
  #     hydro 4 f 11.6
  #     hydro 3 p 6.2
  #     hydro 3 d 5.6
  #     hydro 5 g 17.6
  #     hydro 1 s 0.75
  #  "Third tier" - improvements: -2.83 meV to -0.50 meV
  #     ionic 2 p auto
  #     hydro 4 f 10.8
  #     hydro 4 d 4.7
  #     hydro 2 s 6.8
  #  "Fourth tier" - improvements: -0.40 meV to -0.12 meV
  #     hydro 3 p 5
  #     hydro 3 s 3.3
  #     hydro 5 g 15.6
  #     hydro 4 f 17.6
  #     hydro 4 d 14
  # Further basis functions - -0.08 meV and below
  #     hydro 3 s 2.1
  #     hydro 4 d 11.6
  #     hydro 3 p 16
  #     hydro 2 s 17.2
  
  -----------------------------------------------------------------------
  Completed first pass over input file control.in .
  -----------------------------------------------------------------------
  
  
  -----------------------------------------------------------------------
  Parsing geometry.in (first pass over file, find array dimensions only).
  The contents of geometry.in will be repeated verbatim below
  unless switched off by setting 'verbatim_writeout .false.' .
  in the first line of geometry.in .
  -----------------------------------------------------------------------
  
  #=======================================================
  # FHI-aims file: /ada/ptmp/mpsd/alewis/bulk_water/qmdata/data/geoms/178.in
  # Created using the Atomic Simulation Environment (ASE)
  # Tue Feb 21 11:23:37 2023
  #=======================================================
  lattice_vector 9.9013100000000005 0.0000000000000000 0.0000000000000000
  lattice_vector 0.0000000000000000 9.9013100000000005 0.0000000000000000
  lattice_vector 0.0000000000000000 0.0000000000000000 9.9013100000000005
  atom 28.2094999999999985 20.1757999999999988 3.4041600000000001 O
  atom 28.5637000000000008 19.4742999999999995 4.1243499999999997 H
  atom 28.3948999999999998 21.0353999999999992 3.8292799999999998 H
  atom 20.8545000000000016 26.2304999999999993 0.5924300000000000 O
  atom 20.8773000000000017 26.7103999999999999 -0.3477070000000000 H
  atom 21.2516999999999996 26.7412999999999990 1.2896200000000000 H
  atom -25.4005000000000010 7.5403599999999997 8.5472400000000004 O
  atom -25.0454000000000008 6.6726999999999999 8.6219199999999994 H
  atom -25.7046999999999990 7.8176699999999997 9.4077599999999997 H
  atom 3.4116499999999998 -6.2838300000000000 2.4136899999999999 O
  atom 3.5054200000000000 -7.2117800000000001 2.0956500000000000 H
  atom 2.4600499999999998 -6.3117000000000001 2.1725699999999999 H
  atom -8.6557999999999993 -13.6510999999999996 34.4147000000000034 O
  atom -8.2879799999999992 -13.3171999999999997 35.2518999999999991 H
  atom -9.5708400000000005 -13.6869999999999994 34.4481999999999999 H
  atom 5.1287399999999996 -6.0298800000000004 14.1875999999999998 O
  atom 5.7285199999999996 -6.8386399999999998 14.5210000000000008 H
  atom 4.5149400000000002 -6.2958699999999999 13.4650999999999996 H
  atom 18.1777000000000015 -13.5287000000000006 -4.1268300000000000 O
  atom 17.3853000000000009 -13.4680999999999997 -4.7615999999999996 H
  atom 18.0488000000000000 -14.2108000000000008 -3.5168400000000002 H
  atom -24.7821999999999996 -1.5039100000000001 -13.8812999999999995 O
  atom -24.3658000000000001 -2.2479700000000000 -14.1151000000000000 H
  atom -24.9708000000000006 -1.8871599999999999 -12.9974000000000007 H
  atom -16.4623999999999988 8.7411200000000004 0.8827780000000000 O
  atom -16.2276999999999987 8.7483299999999993 1.8225100000000001 H
  atom -17.2826999999999984 9.0956700000000001 0.8614260000000000 H
  atom 6.1148300000000004 -1.2023299999999999 12.2479999999999993 O
  atom 5.8361400000000003 -0.3041310000000000 12.6041000000000007 H
  atom 6.0613799999999998 -1.1921600000000001 11.2331000000000003 H
  atom -8.0820799999999995 -12.8389000000000006 17.3276000000000003 O
  atom -8.4283999999999999 -11.9984999999999999 17.4241999999999990 H
  atom -7.2618900000000002 -12.6559000000000008 17.6768000000000001 H
  atom 11.0145000000000000 -0.3835320000000000 17.5585999999999984 O
  atom 10.8885000000000005 0.0123370000000000 18.5060000000000002 H
  atom 11.8087000000000000 0.1711250000000000 17.3097999999999992 H
  atom -1.5816100000000000 9.1574600000000004 -19.1446000000000005 O
  atom -1.8836900000000001 9.5771099999999993 -18.3200000000000003 H
  atom -1.5185999999999999 8.2512799999999995 -19.0222000000000016 H
  atom 8.3819999999999997 2.9207900000000002 -5.6141600000000000 O
  atom 9.1729500000000002 3.1375600000000001 -5.2859100000000003 H
  atom 8.2408199999999994 2.8228800000000001 -6.5605500000000001 H
  atom -6.0440100000000001 -7.1703099999999997 -1.1756200000000001 O
  atom -6.2030700000000003 -7.8448599999999997 -0.6320700000000000 H
  atom -6.3450300000000004 -6.4172599999999997 -0.7777880000000000 H
  atom -11.6869999999999994 6.1836700000000002 0.8996860000000000 O
  atom -10.9301999999999992 6.3296599999999996 1.1349499999999999 H
  atom -11.8092000000000006 6.1060800000000004 0.0000540000000000 H
  atom -7.2379300000000004 8.5073399999999992 13.9123000000000001 O
  atom -6.5357099999999999 8.5326299999999993 14.5433000000000003 H
  atom -7.5422000000000002 7.5321699999999998 13.8617000000000008 H
  atom 23.0335000000000001 -8.4581700000000009 16.0812999999999988 O
  atom 23.2654999999999994 -7.7013800000000003 16.7048999999999985 H
  atom 23.8292000000000002 -8.7197499999999994 15.5187000000000008 H
  atom 6.5368399999999998 12.0259999999999998 9.8430800000000005 O
  atom 5.9876300000000002 12.6414000000000009 9.2102100000000000 H
  atom 6.7601500000000003 11.2670999999999992 9.1949600000000000 H
  atom -1.4984500000000001 0.4697650000000000 -11.6424000000000003 O
  atom -1.5230300000000001 -0.2252010000000000 -12.2030999999999992 H
  atom -1.3878200000000001 0.0771530000000000 -10.9303000000000008 H
  atom 33.3089000000000013 5.0474699999999997 29.6329999999999991 O
  atom 33.3293000000000035 4.6846600000000000 30.3747000000000007 H
  atom 32.3098999999999990 5.3948299999999998 29.6800999999999995 H
  atom -4.0049999999999999 20.4829000000000008 4.6778800000000000 O
  atom -3.1456000000000000 20.5073000000000008 4.4089999999999998 H
  atom -3.9560399999999998 19.5814999999999984 5.1329399999999996 H
  atom 11.1351999999999993 22.9571000000000005 5.4061399999999997 O
  atom 11.8739000000000008 22.4634999999999998 5.7242300000000004 H
  atom 11.5676000000000005 23.8123000000000005 5.2374299999999998 H
  atom 1.0163899999999999 -10.1111000000000004 0.5236000000000000 O
  atom 0.8706140000000000 -9.0155100000000008 0.7725740000000000 H
  atom 0.0084990000000000 -10.5584000000000007 0.8559470000000000 H
  atom -1.5649900000000001 14.9542999999999999 -11.6491000000000007 O
  atom -0.9786290000000000 14.2138000000000009 -11.6814999999999998 H
  atom -2.4532900000000000 14.6204000000000001 -11.9422999999999995 H
  atom 5.9838699999999996 6.4296300000000004 14.2050999999999998 O
  atom 5.9742199999999999 5.6148300000000004 14.1011000000000006 H
  atom 6.4457700000000004 7.0192199999999998 13.3900000000000006 H
  atom -10.8801000000000005 -0.9667160000000000 15.6761999999999997 O
  atom -11.1354000000000006 -1.8846900000000000 15.8632000000000009 H
  atom -9.9328599999999998 -0.6768630000000000 16.0997999999999983 H
  atom -9.8968399999999992 12.6433000000000000 -2.0008499999999998 O
  atom -10.7504000000000008 12.0349000000000004 -2.2613200000000000 H
  atom -9.5818399999999997 12.7939000000000007 -2.8737900000000001 H
  atom 24.0546000000000006 21.0272000000000006 11.0007999999999999 O
  atom 23.8046000000000006 20.0808000000000000 10.9027999999999992 H
  atom 24.9479000000000006 21.2824999999999989 10.6042000000000005 H
  atom -1.3933000000000000 3.3741900000000000 -8.4216700000000007 O
  atom -2.0341600000000000 2.7151000000000001 -8.9755299999999991 H
  atom -1.7192099999999999 4.2600899999999999 -8.4030600000000000 H
  atom 15.3047000000000004 14.5936000000000003 -2.7195100000000001 O
  atom 15.0122000000000000 14.3481000000000005 -3.5012400000000001 H
  atom 14.5594999999999999 14.0968000000000000 -2.3414100000000002 H
  atom 10.8381000000000007 2.4447999999999999 -9.2382399999999993 O
  atom 10.0765999999999991 3.1313100000000000 -8.9072600000000008 H
  atom 10.7104999999999997 2.6827899999999998 -10.1369000000000007 H
  
  -----------------------------------------------------------------------
  Completed first pass over input file geometry.in .
  -----------------------------------------------------------------------
  

  Basic array size parameters:
  | Number of species                 :        2
  | Number of atoms                   :       96
  | Number of lattice vectors         :        3
  | Max. basis fn. angular momentum   :        2
  | Max. atomic/ionic basis occupied n:        2
  | Max. number of basis fn. types    :        2
  | Max. radial fns per species/type  :        3
  | Max. logarithmic grid size        :     1301
  | Max. radial integration grid size :       36
  | Max. angular integration grid size:      302
  | Max. angular grid division number :        8
  | Radial grid for Hartree potential :     1301
  | Number of spin channels           :        1

------------------------------------------------------------
          Reading file control.in.
------------------------------------------------------------
  XC: Using Perdew-Wang parametrisation of Ceperley-Alder LDA.
  Spin treatment: No spin polarisation.
  Non-relativistic treatment of kinetic energy.
  Charge =   0.000000E+00: Neutral system requested explicitly.
  DFPT calculation will begin after the DFT/HF calculation.
  Convergence accuracy of self-consistent charge density:  0.1000E-05
  Found k-point grid:         1         1         1
  Threshold value for wave function integration:  0.1000E-07
 
  Reading configuration options for species H                   .
  | Found nuclear charge :   1.0000
  | Found atomic mass :    1.00794000000000      amu
  | Found l_max for Hartree potential  :   4
  | Found cutoff potl. onset [A], width [A], scale factor :    3.50000    1.50000    1.00000
  | Threshold for basis-dependent cutoff potential is   0.100000E-03
  | Found data for basic radial integration grid :    24 points, outermost radius =    5.000 A
  | Found multiplier for basic radial grid :   1
  | Found angular grid specification: user-specified.
  | Specified grid contains     5 separate shells.
  | Check grid settings after all constraints further below.
  | Found free-atom valence shell :  1 s   1.000
  | No ionic wave fns used. Skipping ion_occ.
  | Found hydrogenic basis function :  2 s   2.100
  | Found hydrogenic basis function :  2 p   3.500
  Species H                   : Missing cutoff potential type.
  Defaulting to exp(1/x)/(1-x)^2 type cutoff potential.
  Species H : No 'logarithmic' tag. Using default grid for free atom:
  | Default logarithmic grid data [bohr] : 0.1000E-03 0.1000E+03 0.1012E+01
  Species H : On-site basis accuracy parameter (for Gram-Schmidt orthonormalisation) not specified.
  Using default value basis_acc =  0.1000000E-03.
  Species H                   : Using default innermost maximum threshold i_radial=  2 for radial functions.
  Species H                   : Default cutoff onset for free atom density etc. : 0.35000000E+01 AA.
  Species H                   : Basic radial grid will be enhanced according to radial_multiplier =   1, to contain    24 grid points.
 
  Reading configuration options for species O                   .
  | Found nuclear charge :   8.0000
  | Found atomic mass :    15.9994000000000      amu
  | Found l_max for Hartree potential  :   4
  | Found cutoff potl. onset [A], width [A], scale factor :    3.50000    1.50000    1.00000
  | Threshold for basis-dependent cutoff potential is   0.100000E-03
  | Found data for basic radial integration grid :    36 points, outermost radius =    5.000 A
  | Found multiplier for basic radial grid :   1
  | Found angular grid specification: user-specified.
  | Specified grid contains     5 separate shells.
  | Check grid settings after all constraints further below.
  | Found free-atom valence shell :  2 s   2.000
  | Found free-atom valence shell :  2 p   4.000
  | No ionic wave fns used. Skipping ion_occ.
  | No ionic wave fns used. Skipping ion_occ.
  | Found hydrogenic basis function :  2 p   1.800
  | Found hydrogenic basis function :  3 d   7.600
  | Found hydrogenic basis function :  3 s   6.400
  Species O                   : Missing cutoff potential type.
  Defaulting to exp(1/x)/(1-x)^2 type cutoff potential.
  Species O : No 'logarithmic' tag. Using default grid for free atom:
  | Default logarithmic grid data [bohr] : 0.1000E-03 0.1000E+03 0.1012E+01
  Species O : On-site basis accuracy parameter (for Gram-Schmidt orthonormalisation) not specified.
  Using default value basis_acc =  0.1000000E-03.
  Species O                   : Using default innermost maximum threshold i_radial=  2 for radial functions.
  Species O                   : Default cutoff onset for free atom density etc. : 0.35000000E+01 AA.
  Species O                   : Basic radial grid will be enhanced according to radial_multiplier =   1, to contain    36 grid points.
 
  Finished reading input file 'control.in'.
 
------------------------------------------------------------


------------------------------------------------------------
          Reading geometry description geometry.in.
------------------------------------------------------------
  | The smallest distance between any two atoms is         0.80585884 AA.
  | The first atom of this pair is atom number                     46 .
  | The second atom of this pair is atom number                    47 .
  | Wigner-Seitz cell of the first atom image           0     0     0 .
  | (The Wigner-Seitz cell of the second atom is 0 0 0  by definition.)

  Symmetry information by spglib:
  | Precision set to  0.1E-04
  | Number of Operations  : 1
  | Space group           : 1
  | International         : P1       vn
  | Schoenflies           : C1^1
  Input structure read successfully.
  The structure contains       96 atoms,  and a total of        320.000 electrons.

  Input geometry:
  | Unit cell:
  |        9.90131000        0.00000000        0.00000000
  |        0.00000000        9.90131000        0.00000000
  |        0.00000000        0.00000000        9.90131000
  | Atomic structure:
  |       Atom                x [A]            y [A]            z [A]
  |    1: Species O            28.20950000       20.17580000        3.40416000
  |    2: Species H            28.56370000       19.47430000        4.12435000
  |    3: Species H            28.39490000       21.03540000        3.82928000
  |    4: Species O            20.85450000       26.23050000        0.59243000
  |    5: Species H            20.87730000       26.71040000       -0.34770700
  |    6: Species H            21.25170000       26.74130000        1.28962000
  |    7: Species O           -25.40050000        7.54036000        8.54724000
  |    8: Species H           -25.04540000        6.67270000        8.62192000
  |    9: Species H           -25.70470000        7.81767000        9.40776000
  |   10: Species O             3.41165000       -6.28383000        2.41369000
  |   11: Species H             3.50542000       -7.21178000        2.09565000
  |   12: Species H             2.46005000       -6.31170000        2.17257000
  |   13: Species O            -8.65580000      -13.65110000       34.41470000
  |   14: Species H            -8.28798000      -13.31720000       35.25190000
  |   15: Species H            -9.57084000      -13.68700000       34.44820000
  |   16: Species O             5.12874000       -6.02988000       14.18760000
  |   17: Species H             5.72852000       -6.83864000       14.52100000
  |   18: Species H             4.51494000       -6.29587000       13.46510000
  |   19: Species O            18.17770000      -13.52870000       -4.12683000
  |   20: Species H            17.38530000      -13.46810000       -4.76160000
  |   21: Species H            18.04880000      -14.21080000       -3.51684000
  |   22: Species O           -24.78220000       -1.50391000      -13.88130000
  |   23: Species H           -24.36580000       -2.24797000      -14.11510000
  |   24: Species H           -24.97080000       -1.88716000      -12.99740000
  |   25: Species O           -16.46240000        8.74112000        0.88277800
  |   26: Species H           -16.22770000        8.74833000        1.82251000
  |   27: Species H           -17.28270000        9.09567000        0.86142600
  |   28: Species O             6.11483000       -1.20233000       12.24800000
  |   29: Species H             5.83614000       -0.30413100       12.60410000
  |   30: Species H             6.06138000       -1.19216000       11.23310000
  |   31: Species O            -8.08208000      -12.83890000       17.32760000
  |   32: Species H            -8.42840000      -11.99850000       17.42420000
  |   33: Species H            -7.26189000      -12.65590000       17.67680000
  |   34: Species O            11.01450000       -0.38353200       17.55860000
  |   35: Species H            10.88850000        0.01233700       18.50600000
  |   36: Species H            11.80870000        0.17112500       17.30980000
  |   37: Species O            -1.58161000        9.15746000      -19.14460000
  |   38: Species H            -1.88369000        9.57711000      -18.32000000
  |   39: Species H            -1.51860000        8.25128000      -19.02220000
  |   40: Species O             8.38200000        2.92079000       -5.61416000
  |   41: Species H             9.17295000        3.13756000       -5.28591000
  |   42: Species H             8.24082000        2.82288000       -6.56055000
  |   43: Species O            -6.04401000       -7.17031000       -1.17562000
  |   44: Species H            -6.20307000       -7.84486000       -0.63207000
  |   45: Species H            -6.34503000       -6.41726000       -0.77778800
  |   46: Species O           -11.68700000        6.18367000        0.89968600
  |   47: Species H           -10.93020000        6.32966000        1.13495000
  |   48: Species H           -11.80920000        6.10608000        0.00005400
  |   49: Species O            -7.23793000        8.50734000       13.91230000
  |   50: Species H            -6.53571000        8.53263000       14.54330000
  |   51: Species H            -7.54220000        7.53217000       13.86170000
  |   52: Species O            23.03350000       -8.45817000       16.08130000
  |   53: Species H            23.26550000       -7.70138000       16.70490000
  |   54: Species H            23.82920000       -8.71975000       15.51870000
  |   55: Species O             6.53684000       12.02600000        9.84308000
  |   56: Species H             5.98763000       12.64140000        9.21021000
  |   57: Species H             6.76015000       11.26710000        9.19496000
  |   58: Species O            -1.49845000        0.46976500      -11.64240000
  |   59: Species H            -1.52303000       -0.22520100      -12.20310000
  |   60: Species H            -1.38782000        0.07715300      -10.93030000
  |   61: Species O            33.30890000        5.04747000       29.63300000
  |   62: Species H            33.32930000        4.68466000       30.37470000
  |   63: Species H            32.30990000        5.39483000       29.68010000
  |   64: Species O            -4.00500000       20.48290000        4.67788000
  |   65: Species H            -3.14560000       20.50730000        4.40900000
  |   66: Species H            -3.95604000       19.58150000        5.13294000
  |   67: Species O            11.13520000       22.95710000        5.40614000
  |   68: Species H            11.87390000       22.46350000        5.72423000
  |   69: Species H            11.56760000       23.81230000        5.23743000
  |   70: Species O             1.01639000      -10.11110000        0.52360000
  |   71: Species H             0.87061400       -9.01551000        0.77257400
  |   72: Species H             0.00849900      -10.55840000        0.85594700
  |   73: Species O            -1.56499000       14.95430000      -11.64910000
  |   74: Species H            -0.97862900       14.21380000      -11.68150000
  |   75: Species H            -2.45329000       14.62040000      -11.94230000
  |   76: Species O             5.98387000        6.42963000       14.20510000
  |   77: Species H             5.97422000        5.61483000       14.10110000
  |   78: Species H             6.44577000        7.01922000       13.39000000
  |   79: Species O           -10.88010000       -0.96671600       15.67620000
  |   80: Species H           -11.13540000       -1.88469000       15.86320000
  |   81: Species H            -9.93286000       -0.67686300       16.09980000
  |   82: Species O            -9.89684000       12.64330000       -2.00085000
  |   83: Species H           -10.75040000       12.03490000       -2.26132000
  |   84: Species H            -9.58184000       12.79390000       -2.87379000
  |   85: Species O            24.05460000       21.02720000       11.00080000
  |   86: Species H            23.80460000       20.08080000       10.90280000
  |   87: Species H            24.94790000       21.28250000       10.60420000
  |   88: Species O            -1.39330000        3.37419000       -8.42167000
  |   89: Species H            -2.03416000        2.71510000       -8.97553000
  |   90: Species H            -1.71921000        4.26009000       -8.40306000
  |   91: Species O            15.30470000       14.59360000       -2.71951000
  |   92: Species H            15.01220000       14.34810000       -3.50124000
  |   93: Species H            14.55950000       14.09680000       -2.34141000
  |   94: Species O            10.83810000        2.44480000       -9.23824000
  |   95: Species H            10.07660000        3.13131000       -8.90726000
  |   96: Species H            10.71050000        2.68279000      -10.13690000

  Lattice parameters for 3D lattice (in Angstroms) :     9.901310    9.901310    9.901310
  Angle(s) between unit vectors (in degrees)       :    90.000000   90.000000   90.000000


  Quantities derived from the lattice vectors (in Angstrom^-1):
  | Reciprocal lattice vector 1:  0.634581  0.000000  0.000000
  | Reciprocal lattice vector 2:  0.000000  0.634581  0.000000
  | Reciprocal lattice vector 3:  0.000000  0.000000  0.634581
  | Unit cell volume                               :   0.970684E+03  Angstrom^3

  Fractional coordinates:
                         L1                L2                L3
       atom_frac         2.84906745        2.03768996        0.34380905  O
       atom_frac         2.88484049        1.96684075        0.41654589  H
       atom_frac         2.86779224        2.12450676        0.38674478  H
       atom_frac         2.10623645        2.64919490        0.05983350  O
       atom_frac         2.10853917        2.69766324       -0.03511727  H
       atom_frac         2.14635235        2.70078404        0.13024741  H
       atom_frac        -2.56536761        0.76155175        0.86324335  O
       atom_frac        -2.52950367        0.67392093        0.87078578  H
       atom_frac        -2.59609082        0.78955916        0.95015306  H
       atom_frac         0.34456552       -0.63464632        0.24377481  O
       atom_frac         0.35403598       -0.72836625        0.21165381  H
       atom_frac         0.24845702       -0.63746110        0.21942248  H
       atom_frac        -0.87420755       -1.37871655        3.47577240  O
       atom_frac        -0.83705893       -1.34499374        3.56032687  H
       atom_frac        -0.96662361       -1.38234234        3.47915579  H
       atom_frac         0.51798600       -0.60899820        1.43290130  O
       atom_frac         0.57856183       -0.69068032        1.46657362  H
       atom_frac         0.45599421       -0.63586233        1.35993116  H
       atom_frac         1.83588838       -1.36635455       -0.41679636  O
       atom_frac         1.75585857       -1.36023415       -0.48090606  H
       atom_frac         1.82286990       -1.43524443       -0.35518936  H
       atom_frac        -2.50292133       -0.15189000       -1.40196600  O
       atom_frac        -2.46086629       -0.22703763       -1.42557904  H
       atom_frac        -2.52196932       -0.19059700       -1.31269499  H
       atom_frac        -1.66264868        0.88282460        0.08915770  O
       atom_frac        -1.63894475        0.88355278        0.18406756  H
       atom_frac        -1.74549630        0.91863299        0.08700121  H
       atom_frac         0.61757788       -0.12143141        1.23700803  O
       atom_frac         0.58943110       -0.03071624        1.27297297  H
       atom_frac         0.61217960       -0.12040427        1.13450644  H
       atom_frac        -0.81626371       -1.29668700        1.75003106  O
       atom_frac        -0.85124090       -1.21180935        1.75978734  H
       atom_frac        -0.73342719       -1.27820460        1.78529912  H
       atom_frac         1.11242856       -0.03873548        1.77336130  O
       atom_frac         1.09970297        0.00124600        1.86904561  H
       atom_frac         1.19264017        0.01728307        1.74823331  H
       atom_frac        -0.15973745        0.92487358       -1.93354213  O
       atom_frac        -0.19024654        0.96725686       -1.85026022  H
       atom_frac        -0.15337364        0.83335235       -1.92118013  H
       atom_frac         0.84655465        0.29499026       -0.56701184  O
       atom_frac         0.92643802        0.31688332       -0.53385966  H
       atom_frac         0.83229593        0.28510167       -0.66259414  H
       atom_frac        -0.61042529       -0.72417791       -0.11873378  O
       atom_frac        -0.62648983       -0.79230526       -0.06383701  H
       atom_frac        -0.64082732       -0.64812232       -0.07855405  H
       atom_frac        -1.18034886        0.62453049        0.09086535  O
       atom_frac        -1.10391453        0.63927501        0.11462625  H
       atom_frac        -1.19269066        0.61669415        0.00000545  H
       atom_frac        -0.73100731        0.85921358        1.40509690  O
       atom_frac        -0.66008538        0.86176779        1.46882584  H
       atom_frac        -0.76173759        0.76072459        1.39998647  H
       atom_frac         2.32630834       -0.85424757        1.62415882  O
       atom_frac         2.34973958       -0.77781425        1.68714039  H
       atom_frac         2.40667144       -0.88066630        1.56733806  H
       atom_frac         0.66019951        1.21458676        0.99411896  O
       atom_frac         0.60473109        1.27674015        0.93020116  H
       atom_frac         0.68275309        1.13794033        0.92866095  H
       atom_frac        -0.15133856        0.04744473       -1.17584441  O
       atom_frac        -0.15382106       -0.02274457       -1.23247328  H
       atom_frac        -0.14016529        0.00779220       -1.10392463  H
       atom_frac         3.36409021        0.50977800        2.99283630  O
       atom_frac         3.36615054        0.47313537        3.06774558  H
       atom_frac         3.26319447        0.54486023        2.99759325  H
       atom_frac        -0.40449193        2.06870606        0.47245062  O
       atom_frac        -0.31769534        2.07117038        0.44529461  H
       atom_frac        -0.39954713        1.97766760        0.51841019  H
       atom_frac         1.12461886        2.31859219        0.54600250  O
       atom_frac         1.19922515        2.26874020        0.57812855  H
       atom_frac         1.16828985        2.40496460        0.52896334  H
       atom_frac         0.10265207       -1.02118811        0.05288189  O
       atom_frac         0.08792917       -0.91053709        0.07802745  H
       atom_frac         0.00085837       -1.06636395        0.08644785  H
       atom_frac        -0.15805888        1.51033550       -1.17652109  O
       atom_frac        -0.09883834        1.43554742       -1.17979338  H
       atom_frac        -0.24777428        1.47661269       -1.20613333  H
       atom_frac         0.60435134        0.64937165        1.43466875  O
       atom_frac         0.60337672        0.56707951        1.42416509  H
       atom_frac         0.65100174        0.70891831        1.35234631  H
       atom_frac        -1.09885460       -0.09763516        1.58324505  O
       atom_frac        -1.12463906       -0.19034754        1.60213144  H
       atom_frac        -1.00318645       -0.06836095        1.62602726  H
       atom_frac        -0.99954854        1.27693204       -0.20207932  O
       atom_frac        -1.08575532        1.21548563       -0.22838594  H
       atom_frac        -0.96773457        1.29214215       -0.29024341  H
       atom_frac         2.42943610        2.12367858        1.11104490  O
       atom_frac         2.40418692        2.02809527        1.10114722  H
       atom_frac         2.51965649        2.14946305        1.07098960  H
       atom_frac        -0.14071875        0.34078218       -0.85056119  O
       atom_frac        -0.20544352        0.27421624       -0.90649924  H
       atom_frac        -0.17363460        0.43025519       -0.84868164  H
       atom_frac         1.54572476        1.47390598       -0.27466164  O
       atom_frac         1.51618321        1.44911128       -0.35361381  H
       atom_frac         1.47046199        1.42373080       -0.23647477  H
       atom_frac         1.09461273        0.24691682       -0.93303209  O
       atom_frac         1.01770372        0.31625209       -0.89960419  H
       atom_frac         1.08172555        0.27095304       -1.02379382  H

 
  Finished reading input file 'geometry.in'.
 

 
  Consistency checks for stacksize environment parameter are next.
 
  | Maximum stacksize for task 0: unlimited
  | Maximum stacksize for task 1: unlimited
  | Maximum stacksize for task 2: unlimited
  | Maximum stacksize for task 3: unlimited
  | Maximum stacksize for task 4: unlimited
  | Maximum stacksize for task 5: unlimited
  | Maximum stacksize for task 6: unlimited
  | Maximum stacksize for task 7: unlimited
  | Maximum stacksize for task 8: unlimited
  | Maximum stacksize for task 9: unlimited
  | Maximum stacksize for task 10: unlimited
  | Maximum stacksize for task 11: unlimited
  | Maximum stacksize for task 12: unlimited
  | Maximum stacksize for task 13: unlimited
  | Maximum stacksize for task 14: unlimited
  | Maximum stacksize for task 15: unlimited
  | Maximum stacksize for task 16: unlimited
  | Maximum stacksize for task 17: unlimited
  | Current stacksize for task 0: unlimited
  | Current stacksize for task 1: unlimited
  | Current stacksize for task 2: unlimited
  | Current stacksize for task 3: unlimited
  | Current stacksize for task 4: unlimited
  | Current stacksize for task 5: unlimited
  | Current stacksize for task 6: unlimited
  | Current stacksize for task 7: unlimited
  | Current stacksize for task 8: unlimited
  | Current stacksize for task 9: unlimited
  | Current stacksize for task 10: unlimited
  | Current stacksize for task 11: unlimited
  | Current stacksize for task 12: unlimited
  | Current stacksize for task 13: unlimited
  | Current stacksize for task 14: unlimited
  | Current stacksize for task 15: unlimited
  | Current stacksize for task 16: unlimited
  | Current stacksize for task 17: unlimited
 
  Consistency checks for the contents of control.in are next.
 
  MPI_IN_PLACE appears to work with this MPI implementation.
  | Keeping use_mpi_in_place .true. (see manual).
  Explicit treatment of the Coulomb operator is needed, but the RI method is not specified.
  Coulomb operator: Defaulting to 'LVL fast' resolution of identity - RI_type = LVL_fast
  Species H: Using default value for prodbas_acc =   1.000000E-06.
  Species H: Using default value max_l_prodbas =     6.
  Species O: Using default value for prodbas_acc =   1.000000E-06.
  Species O: Using default value max_l_prodbas =     6.
  Target number of points in a grid batch is not set.  Since GPU acceleration is enabled, defaulting to  200
  Method for grid partitioning is not set. Defaulting to parallel hash+maxmin partitioning.
  Batch size limit is not set. Defaulting to    200
  By default, will store active basis functions for each batch.
  If in need of memory, prune_basis_once .false. can be used to disable this option.
  communication_type for Hartree potential was not specified.
  Defaulting to calc_hartree .
  Defaulting to Pulay charge density mixer.
  Pulay mixer: Number of relevant iterations not set.
  Defaulting to    8 iterations.
  Pulay mixer: Number of initial linear mixing iterations not set.
  Defaulting to    0 iterations.
  Work space size for distributed Hartree potential not set.
  Defaulting to   0.200000E+03 MB.
  Mixing parameter for charge density mixing has not been set.
  Using default: charge_mix_param =     0.0500.
  The mixing parameter will be adjusted in iteration number     2 of the first full s.c.f. cycle only.
  Algorithm-dependent basis array size parameters:
  | n_max_pulay                         :        8
  Maximum number of self-consistency iterations not provided.
  Presetting  1000 iterations.
  Presetting      1001 iterations before the initial mixing cycle
  is restarted anyway using the sc_init_iter criterion / keyword.
  Presetting a factor      1.000 between actual scf density residual
  and density convergence criterion sc_accuracy_rho below which sc_init_iter
  takes no effect.
  Calculation of forces was not defined in control.in. No forces will be calculated.
  Geometry relaxation not requested: no relaxation will be performed.
  No accuracy limit for integral partition fn. given. Defaulting to  0.1000E-14.
  No occupation type (smearing scheme) given. Defaulting to Gaussian broadening, width =  0.1000E-01 eV.
  The width will be adjusted in iteration number     2 of the first full s.c.f. cycle only.
  S.C.F. convergence parameters will be adjusted in iteration number     2 of the first full s.c.f. cycle only.
  No accuracy for occupation numbers given. Defaulting to  0.1000E-12.
  No threshold value for occupation numbers given. Defaulting to  0.0000E+00.
  No accuracy for fermi level given. Defaulting to  0.1000E-19.
  Maximum # of iterations to find E_F not set. Defaulting to  200.
  Preferred method for the eigenvalue solver ('KS_method') not specified in 'control.in'.
  Calling BLACS routine to test compilation state
  Since ScaLAPACK support is enabled, defaulting to ELPA (via ELSI).
  Will not use alltoall communication since running on < 1024 CPUs.
  Threshold for basis singularities not set.
  Default threshold for basis singularities:  0.1000E-04
  partition_type (choice of integration weights) for integrals was not specified.
  | Using a version of the partition function of Stratmann and coworkers ('stratmann_sparse').
  | At each grid point, the set of atoms used to build the partition table is smoothly restricted to
  | only those atoms whose free-atom density would be non-zero at that grid point.
  Partitioning for Hartree potential was not defined. Using partition_type for integrals.
  | Adjusted default value of keyword multip_moments_threshold to:       0.10000000E-11
  | This value may affect high angular momentum components of the Hartree potential in periodic systems.
  Angular momentum expansion for Kerker preconditioner not set explicitly.
  | Using default value of   0
  No explicit requirement for turning off preconditioner.
  | By default, it will be turned off when the charge convergence reaches
  | sc_accuracy_rho  =   0.100000E-05
  No special mixing parameter while Kerker preconditioner is on.
  Using default: charge_mix_param =     0.0500.
  Threshold for auxiliary basis singularities not set.
  Default threshold for auxiliary basis singularities:  0.1000E-04
  No q(lm)/r^(l+1) cutoff set for long-range Hartree potential.
  | Using default value of  0.100000E-09 .
  | Verify using the multipole_threshold keyword.
  Defaulting to new monopole extrapolation.
  Density update method: automatic selection selected.
  Using density matrix based charge density update.
  Using density matrix based charge density update.
  Using packed matrix style: index .
  Defaulting to use time-reversal symmetry for k-point grid.
  Charge integration errors on the 3D integration grid will be compensated
  by explicit normalization and distribution of residual charges.
  Use the "compensate_multipole_errors" flag to change this behaviour.
  Default to 1D ("use_logsbt") integrations for auxiliary 2-center integrals.
  Default onset of logarithmic r-grid for SBT is -38.000000000000
  Default onset of logarithmic k-grid for SBT is -25.000000000000
  Default range of logarithmic r- and k-grid for SBT is  45.000000000000
  Default number of logarithmic r- and k-grid for SBT is   4096
  Default of use_2d_corr is to use the efficient 2D distribution where possible
 
  Consistency checks for the contents of geometry.in are next.
 

  Range separation radius for Ewald summation (hartree_convergence_parameter):      2.98963522 bohr.
  Number of empty states per atom not set in control.in .
  | Since you are using a method that relies on the unoccupied spectrum
  | (MP2,GW,RPA et al.), will use the full Hamiltonian size (see below)
  | as the max. possible number of states (occupied plus empty).

  Structure-dependent array size parameters: 
  | Maximum number of distinct radial functions  :        9
  | Maximum number of basis functions            :      768
  | Number of Kohn-Sham states (occupied + empty):      768
------------------------------------------------------------

  Performing system and environment tests:
  | Environment variable OMP_NUM_THREADS correctly set to 1.
  | Checking for ScaLAPACK...
  | Testing pdtran()...
  | All pdtran() tests passed.
CUDA runtime version: 11060
CUDA driver version: 11060
  Initializing GPUs...

  Number of GPUs available to MPI task         0 :   1
  Number of GPUs available to MPI task         1 :   1
  Number of GPUs available to MPI task         2 :   1
  Number of GPUs available to MPI task         3 :   1
  Number of GPUs available to MPI task         4 :   1
  Number of GPUs available to MPI task         5 :   1
  Number of GPUs available to MPI task         6 :   1
  Number of GPUs available to MPI task         7 :   1
  Number of GPUs available to MPI task         8 :   1
  Number of GPUs available to MPI task         9 :   1
  Number of GPUs available to MPI task        10 :   1
  Number of GPUs available to MPI task        11 :   1
  Number of GPUs available to MPI task        12 :   1
  Number of GPUs available to MPI task        13 :   1
  Number of GPUs available to MPI task        14 :   1
  Number of GPUs available to MPI task        15 :   1
  Number of GPUs available to MPI task        16 :   1
  Number of GPUs available to MPI task        17 :   1

  | MPI task         0, GPU activated = T, Device Name = NVIDIA A100-SXM4-80GB
  | MPI task         1, GPU activated = T, Device Name = NVIDIA A100-SXM4-80GB
  | MPI task         2, GPU activated = T, Device Name = NVIDIA A100-SXM4-80GB
  | MPI task         3, GPU activated = T, Device Name = NVIDIA A100-SXM4-80GB
  | MPI task         4, GPU activated = T, Device Name = NVIDIA A100-SXM4-80GB
  | MPI task         5, GPU activated = T, Device Name = NVIDIA A100-SXM4-80GB
  | MPI task         6, GPU activated = T, Device Name = NVIDIA A100-SXM4-80GB
  | MPI task         7, GPU activated = T, Device Name = NVIDIA A100-SXM4-80GB
  | MPI task         8, GPU activated = T, Device Name = NVIDIA A100-SXM4-80GB
  | MPI task         9, GPU activated = T, Device Name = NVIDIA A100-SXM4-80GB
  | MPI task        10, GPU activated = T, Device Name = NVIDIA A100-SXM4-80GB
  | MPI task        11, GPU activated = T, Device Name = NVIDIA A100-SXM4-80GB
  | MPI task        12, GPU activated = T, Device Name = NVIDIA A100-SXM4-80GB
  | MPI task        13, GPU activated = T, Device Name = NVIDIA A100-SXM4-80GB
  | MPI task        14, GPU activated = T, Device Name = NVIDIA A100-SXM4-80GB
  | MPI task        15, GPU activated = T, Device Name = NVIDIA A100-SXM4-80GB
  | MPI task        16, GPU activated = T, Device Name = NVIDIA A100-SXM4-80GB
  | MPI task        17, GPU activated = T, Device Name = NVIDIA A100-SXM4-80GB

------------------------------------------------------------
          Preparing all fixed parts of the calculation.
------------------------------------------------------------
  Determining machine precision:
    2.225073858507201E-308
  Setting up grids for atomic and cluster calculations.

  Creating wave function, potential, and density for free atoms.
  Runtime choices for atomic solver:
  | atomic solver xc        : PW-LDA
  | compute density gradient: 0
  | compute kinetic density : F

  Species: H

  List of occupied orbitals and eigenvalues:
    n    l              occ      energy [Ha]    energy [eV]
    1    0           1.0000        -0.232375        -6.3233


  Species: O

  List of occupied orbitals and eigenvalues:
    n    l              occ      energy [Ha]    energy [eV]
    1    0           2.0000       -18.757744      -510.4242
    2    0           2.0000        -0.870917       -23.6989
    2    1           4.0000        -0.337950        -9.1961


  Adding cutoff potential to free-atom effective potential.
  Creating fixed part of basis set: Ionic, confined, hydrogenic.
 
  H                    hydrogenic:
 
  List of hydrogenic basis orbitals: 
    n    l      effective z      eigenvalue [eV]  inner max. [A]     outer max. [A]     outer radius [A]   
    2    0         2.100000       -14.9728           0.193243           1.317208           4.696947
    2    1         3.500000       -41.6669           0.602369           0.602369           3.862494
 
 
  O                    hydrogenic:
 
  List of hydrogenic basis orbitals: 
    n    l      effective z      eigenvalue [eV]  inner max. [A]     outer max. [A]     outer radius [A]   
    2    1         1.800000       -10.9749           1.164242           1.164242           4.691341
    3    2         7.600000       -87.3180           0.624125           0.624125           3.413946
    3    0         6.400000       -61.9207           0.061167           1.081902           4.151495
 
  Creating atomic-like basis functions for current effective potential.

  Species H                   :

  List of atomic basis orbitals and eigenvalues:
    n    l      energy [Ha]    energy [eV]    outer radius [A]
    1    0        -0.232375        -6.3233       4.696947


  Species O                   :

  List of atomic basis orbitals and eigenvalues:
    n    l      energy [Ha]    energy [eV]    outer radius [A]
    1    0       -18.757744      -510.4242       1.830144
    2    0        -0.870917       -23.6989       4.578029
    2    1        -0.337950        -9.1961       4.634338

  Assembling full basis from fixed parts.
  | Species H :   atomic orbital   1 s accepted.
  | Species H :    hydro orbital   2 s accepted.
  | Species H :    hydro orbital   2 p accepted.
  | Species O :   atomic orbital   1 s accepted.
  | Species O :    hydro orbital   3 s accepted.
  | Species O :   atomic orbital   2 s accepted.
  | Species O :   atomic orbital   2 p accepted.
  | Species O :    hydro orbital   2 p accepted.
  | Species O :    hydro orbital   3 d accepted.
 
  Basis size parameters after reduction:
  | Total number of radial functions:        9
  | Total number of basis functions :      768
 
  Per-task memory consumption for arrays in subroutine allocate_ext:
  |           2.268304MB.
  Testing on-site integration grid accuracy.
  |  Species  Function  <phi|h_atom|phi> (log., in eV)  <phi|h_atom|phi> (rad., in eV)
           1        1                 -6.3245358373                 -6.3232436907
           1        2                 14.1326137532                 14.1384481100
           1        3                 25.3627025200                 25.3628451197
           2        4               -510.4241781764               -510.4240769407
           2        5                 14.9072942213                 14.9072945271
           2        6                -21.2004736474                -21.2005650551
           2        7                 -9.1962086505                 -9.1963509834
           2        8                  8.1896755006                  8.1702200081
           2        9                 45.7920584937                 45.7920228520

  Preparing densities etc. for the partition functions (integrals / Hartree potential).

  Preparations completed.
  max(cpu_time)          :      0.071 s.
  Wall clock time (cpu1) :      0.066 s.
------------------------------------------------------------

  Initializing index lists of integration centers etc. from given atomic structure:
  Mapping all atomic coordinates to central unit cell.

  Initializing the k-points
  Using symmetry for reducing the k-points
  | k-points reduced from:        1 to        1
  | Number of k-points                             :         1
  | Consuming          0 KiB for k_phase_exx.
  The eigenvectors in the calculations are REAL.
  | Number of basis functions in the Hamiltonian integrals :      4328
  | Number of basis functions in a single unit cell        :       768
  | Number of centers in hartree potential         :      2610
  | Number of centers in hartree multipole         :      1951
  | Number of centers in electron density summation:      1510
  | Number of centers in basis integrals           :      1576
  | Number of centers in integrals                 :       682
  | Number of centers in hamiltonian               :      1511
  | Consuming          0 KiB for k_phase.
  | Number of super-cells (origin) [n_cells]                     :         125
  | Number of super-cells (after PM_index) [n_cells]             :          28
  | Number of super-cells in hamiltonian [n_cells_in_hamiltonian]:          28
  | Size of matrix packed + index [n_hamiltonian_matrix_size] :      780947
  | Size of matrix packed + index (no_symmetry):     1561125

------------------------------------------------------------
          Begin self-consistency loop: Initialization.

          Date     :  20230221, Time     :  125915.834
------------------------------------------------------------
  | Estimated reciprocal-space cutoff momentum G_max:         3.16177409 bohr^-1 .
  | Reciprocal lattice points for long-range Hartree potential:    3430
  Using simple linear distribution as default method for k-point parallelism.
  * Using 18 tasks for Scalapack Eigenvalue solver.
  Detailed listing of tasks and assigned k-points:
   Task     0 k-point     1 on adag037
   Task     1 k-point     1 on adag037
   Task     2 k-point     1 on adag037
   Task     3 k-point     1 on adag037
   Task     4 k-point     1 on adag037
   Task     5 k-point     1 on adag037
   Task     6 k-point     1 on adag037
   Task     7 k-point     1 on adag037
   Task     8 k-point     1 on adag037
   Task     9 k-point     1 on adag037
   Task    10 k-point     1 on adag037
   Task    11 k-point     1 on adag037
   Task    12 k-point     1 on adag037
   Task    13 k-point     1 on adag037
   Task    14 k-point     1 on adag037
   Task    15 k-point     1 on adag037
   Task    16 k-point     1 on adag037
   Task    17 k-point     1 on adag037
  K-point:     1 Tasks:    18 split into      6 X      3 BLACS grid
  Calculating block size based on n_basis =          768  max_nprow =            6  max_npcol =            3
  ScaLAPACK block size set to:           16
  Allocating        0.250 MB for ovlp
  Allocating        0.250 MB for ham
  Allocating        0.250 MB for eigenvec
  Required Scalapack workspace - INTEGER:            1  REAL:             1
  Partitioning the integration grid into batches with parallel hashing+maxmin method.
  | Number of batches:     3968
  | Maximal batch size:     194
  | Minimal batch size:     100
  | Average batch size:     128.419
  | Standard deviation of batch sizes:      22.688

  Integration load balanced across    18 MPI tasks.
  Work distribution over tasks is as follows:
  Task     0 has      28260 integration points.
  Task     1 has      28270 integration points.
  Task     2 has      28288 integration points.
  Task     3 has      28281 integration points.
  Task     4 has      28316 integration points.
  Task     5 has      28267 integration points.
  Task     6 has      28318 integration points.
  Task     7 has      28439 integration points.
  Task     8 has      28288 integration points.
  Task     9 has      28264 integration points.
  Task    10 has      28419 integration points.
  Task    11 has      28332 integration points.
  Task    12 has      28245 integration points.
  Task    13 has      28281 integration points.
  Task    14 has      28307 integration points.
  Task    15 has      28310 integration points.
  Task    16 has      28330 integration points.
  Task    17 has      28353 integration points.
  Initializing partition tables, free-atom densities, potentials, etc. across the integration grid (initialize_grid_storage).
  | initialize_grid_storage: Actual outermost partition radius vs. multipole_radius_free
  | (-- VB: in principle, multipole_radius_free should be larger, hence this output)
  | Species        1: Confinement radius =              4.999999999999999 AA, multipole_radius_free =              5.054417573612229 AA.
  | Species        1: outer_partition_radius set to              5.054417573612229 AA .
  | Species        2: Confinement radius =              4.999999999999999 AA, multipole_radius_free =              5.048384829883283 AA.
  | Species        2: outer_partition_radius set to              5.048384829883283 AA .
  | The sparse table of interatomic distances needs       5174.52 kbyte instead of     19870.21 kbyte of memory.
  | Net number of integration points:   509568
  | of which are non-zero points    :   405961
  | Numerical average free-atom electrostatic potential    :     -5.36875003 eV
  Renormalizing the initial density to the exact electron count on the 3D integration grid.
  | Initial density: Formal number of electrons (from input files) :     320.0000000000
  | Integrated number of electrons on 3D grid     :     320.0020733966
  | Charge integration error                      :       0.0020733966
  | Normalization factor for density and gradient :       0.9999935207
  Renormalizing the free-atom superposition density to the exact electron count on the 3D integration grid.
  | Formal number of electrons (from input files) :     320.0000000000
  | Integrated number of electrons on 3D grid     :     320.0020733966
  | Charge integration error                      :       0.0020733966
  | Normalization factor for density and gradient :       0.9999935207
  Obtaining max. number of non-zero basis functions in each batch (get_n_compute_maxes).
  | Maximal number of non-zero basis functions:      418 in task     0
  | Maximal number of non-zero basis functions:      422 in task     1
  | Maximal number of non-zero basis functions:      427 in task     2
  | Maximal number of non-zero basis functions:      432 in task     3
  | Maximal number of non-zero basis functions:      430 in task     4
  | Maximal number of non-zero basis functions:      425 in task     5
  | Maximal number of non-zero basis functions:      412 in task     6
  | Maximal number of non-zero basis functions:      421 in task     7
  | Maximal number of non-zero basis functions:      438 in task     8
  | Maximal number of non-zero basis functions:      424 in task     9
  | Maximal number of non-zero basis functions:      418 in task    10
  | Maximal number of non-zero basis functions:      431 in task    11
  | Maximal number of non-zero basis functions:      410 in task    12
  | Maximal number of non-zero basis functions:      411 in task    13
  | Maximal number of non-zero basis functions:      416 in task    14
  | Maximal number of non-zero basis functions:      412 in task    15
  | Maximal number of non-zero basis functions:      402 in task    16
  | Maximal number of non-zero basis functions:      414 in task    17
  Integrating Hamiltonian matrix: batch-based integration.
  GPU acceleration will be used when integrating the Hamiltonian matrix.
  Reporting GPU memory usage by myid 0.  Note that it is likely not the only MPI task binding to its GPU!
  Allocating        1.398 MB on GPU for hamiltonian_shell
  Allocating        0.649 MB on GPU for wave
  Allocating        0.002 MB on GPU for partition
  Allocating        0.649 MB on GPU for h_times_psi
  Time summed over all CPUs for integration: real work       11.776 s, elapsed       12.148 s
  Deallocating memory used on GPU for Hamiltonian integration.
  Integrating overlap matrix.
  Time summed over all CPUs for integration: real work        9.055 s, elapsed        9.584 s
  Deallocating overlap matrix.

  Updating Kohn-Sham eigenvalues and eigenvectors using ELSI and the ELPA eigensolver.
  Singularity check in k-point 1 (analysis for other k-points may follow below):
  Overlap matrix is not singular
  | Lowest and highest eigenvalues :  0.1982E-02,  0.7345E+01
  Finished singularity check of overlap matrix
  | Time :     0.157 s
  Starting ELPA eigensolver (GPU)
  Finished Cholesky decomposition
  | Time :     0.008 s
  Finished transformation to standard eigenproblem
  | Time :     0.029 s
  Finished solving standard eigenproblem
  | Time :     0.216 s
  Finished back-transformation of eigenvectors
  | Time :     0.019 s

  Obtaining occupation numbers and electronic chemical potential using ELSI.
  | Note that, for insulating systems, the printed 'chemical potential' value is not uniquely defined.
  | It can be anywhere in the energy gap, as long as it correctly separates occupied and unoccupied states.
  | In systems with a gap, the physically relevant chemical potential is the VBM or HOMO.

  | Chemical potential (Fermi level):    -5.55519648 eV
  Writing Kohn-Sham eigenvalues.

  State    Occupation    Eigenvalue [Ha]    Eigenvalue [eV]
      1       2.00000         -18.933673         -515.21146
      2       2.00000         -18.933323         -515.20193
      3       2.00000         -18.911045         -514.59573
      4       2.00000         -18.898941         -514.26634
      5       2.00000         -18.898841         -514.26363
      6       2.00000         -18.897889         -514.23772
      7       2.00000         -18.896111         -514.18934
      8       2.00000         -18.895478         -514.17211
      9       2.00000         -18.894999         -514.15907
     10       2.00000         -18.892494         -514.09092
     11       2.00000         -18.889733         -514.01579
     12       2.00000         -18.884223         -513.86585
     13       2.00000         -18.883602         -513.84896
     14       2.00000         -18.880112         -513.75398
     15       2.00000         -18.877920         -513.69434
     16       2.00000         -18.874957         -513.61372
     17       2.00000         -18.873965         -513.58672
     18       2.00000         -18.871390         -513.51664
     19       2.00000         -18.865636         -513.36007
     20       2.00000         -18.865574         -513.35839
     21       2.00000         -18.864262         -513.32268
     22       2.00000         -18.863134         -513.29198
     23       2.00000         -18.861885         -513.25800
     24       2.00000         -18.861057         -513.23548
     25       2.00000         -18.858404         -513.16328
     26       2.00000         -18.857977         -513.15165
     27       2.00000         -18.856025         -513.09855
     28       2.00000         -18.855806         -513.09260
     29       2.00000         -18.854887         -513.06759
     30       2.00000         -18.854693         -513.06230
     31       2.00000         -18.853499         -513.02982
     32       2.00000         -18.825624         -512.27129
     33       2.00000          -1.204945          -32.78823
     34       2.00000          -1.191429          -32.42042
     35       2.00000          -1.168996          -31.81000
     36       2.00000          -1.155141          -31.43299
     37       2.00000          -1.154981          -31.42863
     38       2.00000          -1.150250          -31.29989
     39       2.00000          -1.149740          -31.28603
     40       2.00000          -1.148706          -31.25788
     41       2.00000          -1.137790          -30.96085
     42       2.00000          -1.134095          -30.86031
     43       2.00000          -1.129356          -30.73133
     44       2.00000          -1.121785          -30.52533
     45       2.00000          -1.118632          -30.43953
     46       2.00000          -1.116974          -30.39441
     47       2.00000          -1.114622          -30.33040
     48       2.00000          -1.110753          -30.22514
     49       2.00000          -1.109515          -30.19143
     50       2.00000          -1.100658          -29.95042
     51       2.00000          -1.097702          -29.86998
     52       2.00000          -1.088919          -29.63099
     53       2.00000          -1.085991          -29.55131
     54       2.00000          -1.084392          -29.50782
     55       2.00000          -1.080743          -29.40850
     56       2.00000          -1.080534          -29.40284
     57       2.00000          -1.078659          -29.35181
     58       2.00000          -1.075598          -29.26851
     59       2.00000          -1.073177          -29.20263
     60       2.00000          -1.071135          -29.14708
     61       2.00000          -1.067475          -29.04749
     62       2.00000          -1.065077          -28.98223
     63       2.00000          -1.064059          -28.95453
     64       2.00000          -1.016472          -27.65960
     65       2.00000          -0.748902          -20.37865
     66       2.00000          -0.724442          -19.71307
     67       2.00000          -0.716076          -19.48541
     68       2.00000          -0.711098          -19.34996
     69       2.00000          -0.684733          -18.63254
     70       2.00000          -0.681869          -18.55459
     71       2.00000          -0.677711          -18.44145
     72       2.00000          -0.676163          -18.39933
     73       2.00000          -0.675084          -18.36998
     74       2.00000          -0.671971          -18.28526
     75       2.00000          -0.665255          -18.10250
     76       2.00000          -0.658056          -17.90661
     77       2.00000          -0.656527          -17.86501
     78       2.00000          -0.654146          -17.80022
     79       2.00000          -0.649106          -17.66309
     80       2.00000          -0.648047          -17.63426
     81       2.00000          -0.646549          -17.59350
     82       2.00000          -0.642435          -17.48155
     83       2.00000          -0.642277          -17.47725
     84       2.00000          -0.636442          -17.31847
     85       2.00000          -0.636127          -17.30990
     86       2.00000          -0.634652          -17.26975
     87       2.00000          -0.631321          -17.17911
     88       2.00000          -0.628042          -17.08989
     89       2.00000          -0.625678          -17.02557
     90       2.00000          -0.624662          -16.99791
     91       2.00000          -0.615976          -16.76156
     92       2.00000          -0.612988          -16.68025
     93       2.00000          -0.607827          -16.53981
     94       2.00000          -0.606857          -16.51342
     95       2.00000          -0.603069          -16.41034
     96       2.00000          -0.592202          -16.11464
     97       2.00000          -0.576971          -15.70018
     98       2.00000          -0.572578          -15.58064
     99       2.00000          -0.571859          -15.56107
    100       2.00000          -0.567618          -15.44567
    101       2.00000          -0.562826          -15.31529
    102       2.00000          -0.558832          -15.20658
    103       2.00000          -0.557170          -15.16136
    104       2.00000          -0.554465          -15.08776
    105       2.00000          -0.550702          -14.98537
    106       2.00000          -0.549827          -14.96157
    107       2.00000          -0.548593          -14.92797
    108       2.00000          -0.543366          -14.78574
    109       2.00000          -0.541972          -14.74782
    110       2.00000          -0.539000          -14.66695
    111       2.00000          -0.534203          -14.53639
    112       2.00000          -0.528921          -14.39266
    113       2.00000          -0.527968          -14.36673
    114       2.00000          -0.526107          -14.31610
    115       2.00000          -0.524194          -14.26404
    116       2.00000          -0.523164          -14.23601
    117       2.00000          -0.521617          -14.19393
    118       2.00000          -0.520422          -14.16141
    119       2.00000          -0.519741          -14.14288
    120       2.00000          -0.515014          -14.01425
    121       2.00000          -0.511266          -13.91224
    122       2.00000          -0.510858          -13.90116
    123       2.00000          -0.506345          -13.77835
    124       2.00000          -0.504351          -13.72409
    125       2.00000          -0.503432          -13.69908
    126       2.00000          -0.499715          -13.59793
    127       2.00000          -0.498473          -13.56414
    128       2.00000          -0.496446          -13.50897
    129       2.00000          -0.489605          -13.32282
    130       2.00000          -0.486594          -13.24089
    131       2.00000          -0.485434          -13.20932
    132       2.00000          -0.478760          -13.02773
    133       2.00000          -0.477618          -12.99665
    134       2.00000          -0.475588          -12.94141
    135       2.00000          -0.474614          -12.91490
    136       2.00000          -0.473261          -12.87809
    137       2.00000          -0.471657          -12.83444
    138       2.00000          -0.469647          -12.77973
    139       2.00000          -0.466859          -12.70388
    140       2.00000          -0.465914          -12.67815
    141       2.00000          -0.463776          -12.61999
    142       2.00000          -0.462870          -12.59533
    143       2.00000          -0.462469          -12.58442
    144       2.00000          -0.461163          -12.54888
    145       2.00000          -0.458772          -12.48381
    146       2.00000          -0.456223          -12.41447
    147       2.00000          -0.454524          -12.36822
    148       2.00000          -0.452018          -12.30003
    149       2.00000          -0.451107          -12.27526
    150       2.00000          -0.450505          -12.25886
    151       2.00000          -0.448964          -12.21694
    152       2.00000          -0.447241          -12.17004
    153       2.00000          -0.446836          -12.15902
    154       2.00000          -0.446276          -12.14380
    155       2.00000          -0.445833          -12.13174
    156       2.00000          -0.444525          -12.09614
    157       2.00000          -0.442317          -12.03607
    158       2.00000          -0.438982          -11.94530
    159       2.00000          -0.436301          -11.87234
    160       2.00000          -0.424534          -11.55215
    161       0.00000          -0.171755           -4.67370
    162       0.00000          -0.116614           -3.17322
    163       0.00000          -0.112730           -3.06754
    164       0.00000          -0.109019           -2.96657
    165       0.00000          -0.103075           -2.80482
    166       0.00000          -0.097967           -2.66583
    167       0.00000          -0.095669           -2.60328
    168       0.00000          -0.068531           -1.86482
    169       0.00000          -0.066201           -1.80141
    170       0.00000          -0.065416           -1.78005
    171       0.00000          -0.060244           -1.63932
    172       0.00000          -0.052971           -1.44141
    173       0.00000          -0.049990           -1.36030
    174       0.00000          -0.046825           -1.27418
    175       0.00000          -0.044212           -1.20306
    176       0.00000          -0.043483           -1.18324
    177       0.00000          -0.036203           -0.98512
    178       0.00000          -0.030321           -0.82507
    179       0.00000          -0.023697           -0.64483
    180       0.00000          -0.015790           -0.42967
    181       0.00000          -0.012642           -0.34400
    182       0.00000          -0.006685           -0.18191
    183       0.00000          -0.002596           -0.07063
    184       0.00000           0.001528            0.04158
    185       0.00000           0.007061            0.19215
    186       0.00000           0.011367            0.30931
    187       0.00000           0.013063            0.35546
    188       0.00000           0.017763            0.48337
    189       0.00000           0.023180            0.63076
    190       0.00000           0.024629            0.67018
    191       0.00000           0.034423            0.93671
    192       0.00000           0.038146            1.03801
    193       0.00000           0.042598            1.15914
    194       0.00000           0.043663            1.18813
    195       0.00000           0.048302            1.31436
    196       0.00000           0.051566            1.40317
    197       0.00000           0.052673            1.43331
    198       0.00000           0.057696            1.57000
    199       0.00000           0.061712            1.67928
    200       0.00000           0.062915            1.71199
    201       0.00000           0.068733            1.87033
    202       0.00000           0.069404            1.88859
    203       0.00000           0.070288            1.91264
    204       0.00000           0.074016            2.01409
    205       0.00000           0.076039            2.06913
    206       0.00000           0.078945            2.14820
    207       0.00000           0.082603            2.24773
    208       0.00000           0.087707            2.38663
    209       0.00000           0.089930            2.44712
    210       0.00000           0.092486            2.51668
    211       0.00000           0.096292            2.62025
    212       0.00000           0.099530            2.70834
    213       0.00000           0.102898            2.80000
    214       0.00000           0.105070            2.85911
    215       0.00000           0.110391            3.00388
    216       0.00000           0.112419            3.05907
    217       0.00000           0.115493            3.14274
    218       0.00000           0.118548            3.22587
    219       0.00000           0.122070            3.32170
    220       0.00000           0.124416            3.38552
    221       0.00000           0.127237            3.46230
    222       0.00000           0.130164            3.54195
    223       0.00000           0.132865            3.61545
    224       0.00000           0.139271            3.78975
    225       0.00000           0.141945            3.86252
    226       0.00000           0.150193            4.08697
    227       0.00000           0.156674            4.26332
    228       0.00000           0.159558            4.34178
    229       0.00000           0.164480            4.47573
    230       0.00000           0.173308            4.71596
    231       0.00000           0.177727            4.83620
    232       0.00000           0.178453            4.85597
    233       0.00000           0.182475            4.96540
    234       0.00000           0.197575            5.37628
    235       0.00000           0.203424            5.53546
    236       0.00000           0.204604            5.56756
    237       0.00000           0.213019            5.79654
    238       0.00000           0.217417            5.91623
    239       0.00000           0.223095            6.07073
    240       0.00000           0.227989            6.20391
    241       0.00000           0.235505            6.40843
    242       0.00000           0.239876            6.52737
    243       0.00000           0.245268            6.67409
    244       0.00000           0.248696            6.76735
    245       0.00000           0.256923            6.99124
    246       0.00000           0.261385            7.11265
    247       0.00000           0.267553            7.28048
    248       0.00000           0.270141            7.35092
    249       0.00000           0.274815            7.47811
    250       0.00000           0.278898            7.58919
    251       0.00000           0.287686            7.82834
    252       0.00000           0.293661            7.99093
    253       0.00000           0.294129            8.00366
    254       0.00000           0.301477            8.20360
    255       0.00000           0.309909            8.43305
    256       0.00000           0.316252            8.60566
    257       0.00000           0.323249            8.79605
    258       0.00000           0.327803            8.91998
    259       0.00000           0.331497            9.02048
[...]
  |    H      0     4.527807 A      4.527807 A        1.268855E-16 a.u.
  |    H      0     4.527807 A      4.583499 A       -4.900954E-17 a.u.
  |    H      0     4.527807 A      4.583499 A        4.713786E-16 a.u.
  |    H      2     3.678162 A  2.180220E+05 A            0.556529 a.u.
  |    H      1     3.958095 A  1.721251E+08 A            0.841931 a.u.
  |    H      0     4.527807 A  3.866455E+16 A            0.581436 a.u.
  |    O      0     2.043000 A      2.043000 A       -1.436841E-16 a.u.
  |    O      3     3.498446 A      3.498446 A        3.043453E-17 a.u.
  |    O      3     3.498446 A      3.498446 A        1.541443E-16 a.u.
  |    O      0     3.905335 A      3.905335 A        2.173090E-16 a.u.
  |    O      0     3.905335 A      3.905335 A        7.213445E-17 a.u.
  |    O      0     4.101052 A      4.101052 A        2.361718E-16 a.u.
  |    O      1     4.101052 A      4.101052 A        3.235185E-17 a.u.
  |    O      0     4.359549 A      4.359549 A       -5.329475E-17 a.u.
  |    O      1     4.413171 A      4.413171 A        3.261883E-17 a.u.
  |    O      1     4.522403 A      4.522403 A        6.417997E-16 a.u.
  |    O      1     4.522403 A      4.522403 A        4.224783E-16 a.u.
  |    O      2     4.522403 A      4.522403 A       -4.387647E-16 a.u.
  |    O      0     4.522403 A      4.578029 A        2.602039E-16 a.u.
  |    O      0     4.578029 A      4.578029 A        1.226235E-16 a.u.
  |    O      1     4.578029 A      4.578029 A       -6.107316E-16 a.u.
  |    O      1     4.578029 A      4.578029 A       -2.224438E-16 a.u.
  |    O      2     4.578029 A      4.578029 A       -7.020279E-16 a.u.
  |    O      2     4.522403 A      4.578029 A        1.323470E-15 a.u.
  |    O      2     4.578029 A      4.578029 A        7.923696E-16 a.u.
  |    O      2     4.522403 A      4.578029 A       -9.951815E-16 a.u.
  |    O      0     4.578029 A      4.634338 A       -8.813582E-18 a.u.
  |    O      1     4.578029 A      4.634338 A       -3.325386E-17 a.u.
  |    O      1     4.634338 A      4.634338 A        9.588032E-16 a.u.
  |    O      2     4.578029 A      4.634338 A        1.064715E-17 a.u.
  |    O      2     4.578029 A      4.634338 A       -3.770343E-15 a.u.
  |    O      4     3.251020 A  1.511584E+03 A            1.513372 a.u.
  |    O      3     3.541477 A  1.434166E+04 A            4.293220 a.u.
  |    O      2     4.634338 A  5.584435E+05 A            9.352428 a.u.
  |    O      1     4.634338 A  2.821283E+08 A            2.261940 a.u.
  |    O      0     4.578029 A  4.264100E+16 A            0.641234 a.u.

  | Shrink_full_auxil_basis : there are       38  radial auxiliary wave functions
                            accepted and       5 rejected.
  | Shrink_full_auxil_basis : there are totally                4544 partial auxiliary wave functions.
 
  | Maximal number of product basis functions per thread :   256   256
 
  | Minimal total memory requirement for three-center overlap :      10.450 Gbs
  | Number of local auxiliary basis functions on task:      0   256
  | Number of local auxiliary basis functions on task:      1   256
  | Number of local auxiliary basis functions on task:      2   256
  | Number of local auxiliary basis functions on task:      3   256
  | Number of local auxiliary basis functions on task:      4   256
  | Number of local auxiliary basis functions on task:      5   256
  | Number of local auxiliary basis functions on task:      6   256
  | Number of local auxiliary basis functions on task:      7   256
  | Number of local auxiliary basis functions on task:      8   256
  | Number of local auxiliary basis functions on task:      9   256
  | Number of local auxiliary basis functions on task:     10   256
  | Number of local auxiliary basis functions on task:     11   256
  | Number of local auxiliary basis functions on task:     12   256
  | Number of local auxiliary basis functions on task:     13   256
  | Number of local auxiliary basis functions on task:     14   240
  | Number of local auxiliary basis functions on task:     15   240
  | Number of local auxiliary basis functions on task:     16   240
  | Number of local auxiliary basis functions on task:     17   240
  | 2D aux task distribution:      3 X      6
  | 2D block size (nb_aux_2d):     64
 
  Basis pair condensation :    295296  -->     225760
 
 --------------------------------------------
  Constructing auxiliary basis (full product) ...
 
  Product basis:
  | charge radius: extent of product basis function
  | field radius: extent of its Coulomb potential
  | Species   l  charge radius    field radius  multipol momen
  |    H      1     3.910002 A      3.910002 A       -2.487223E-16 a.u.
  |    H      1     3.958095 A      3.958095 A       -2.441841E-16 a.u.
  |    H      0     4.527807 A      4.527807 A        1.268855E-16 a.u.
  |    H      0     4.527807 A      4.583499 A       -4.900954E-17 a.u.
  |    H      0     4.527807 A      4.583499 A        4.713786E-16 a.u.
  |    H      2     3.678162 A  2.180220E+05 A            0.556529 a.u.
  |    H      1     3.958095 A  1.721251E+08 A            0.841931 a.u.
  |    H      0     4.527807 A  3.866455E+16 A            0.581436 a.u.
  |    O      0     2.043000 A      2.043000 A       -1.436841E-16 a.u.
  |    O      3     3.498446 A      3.498446 A        3.043453E-17 a.u.
  |    O      3     3.498446 A      3.498446 A        1.541443E-16 a.u.
  |    O      0     3.905335 A      3.905335 A        2.173090E-16 a.u.
  |    O      0     3.905335 A      3.905335 A        7.213445E-17 a.u.
  |    O      0     4.101052 A      4.101052 A        2.361718E-16 a.u.
  |    O      1     4.101052 A      4.101052 A        3.235185E-17 a.u.
  |    O      0     4.359549 A      4.359549 A       -5.329475E-17 a.u.
  |    O      1     4.413171 A      4.413171 A        3.261883E-17 a.u.
  |    O      1     4.522403 A      4.522403 A        6.417997E-16 a.u.
  |    O      1     4.522403 A      4.522403 A        4.224783E-16 a.u.
  |    O      2     4.522403 A      4.522403 A       -4.387647E-16 a.u.
  |    O      0     4.522403 A      4.578029 A        2.602039E-16 a.u.
  |    O      0     4.578029 A      4.578029 A        1.226235E-16 a.u.
  |    O      1     4.578029 A      4.578029 A       -6.107316E-16 a.u.
  |    O      1     4.578029 A      4.578029 A       -2.224438E-16 a.u.
  |    O      2     4.578029 A      4.578029 A       -7.020279E-16 a.u.
  |    O      2     4.522403 A      4.578029 A        1.323470E-15 a.u.
  |    O      2     4.578029 A      4.578029 A        7.923696E-16 a.u.
  |    O      2     4.522403 A      4.578029 A       -9.951815E-16 a.u.
  |    O      0     4.578029 A      4.634338 A       -8.813582E-18 a.u.
  |    O      1     4.578029 A      4.634338 A       -3.325386E-17 a.u.
  |    O      1     4.634338 A      4.634338 A        9.588032E-16 a.u.
  |    O      2     4.578029 A      4.634338 A        1.064715E-17 a.u.
  |    O      2     4.578029 A      4.634338 A       -3.770343E-15 a.u.
  |    O      4     3.251020 A  1.511584E+03 A            1.513372 a.u.
  |    O      3     3.541477 A  1.434166E+04 A            4.293220 a.u.
  |    O      2     4.634338 A  5.584435E+05 A            9.352428 a.u.
  |    O      1     4.634338 A  2.821283E+08 A            2.261940 a.u.
  |    O      0     4.578029 A  4.264100E+16 A            0.641234 a.u.

  | Shrink_full_auxil_basis : there are       38  radial auxiliary wave functions
                            accepted and       5 rejected.
  | Shrink_full_auxil_basis : there are totally                4544 partial auxiliary wave functions.
 
  | Maximal number of product basis functions per thread :   256   256
 
  | Minimal total memory requirement for three-center overlap :      10.450 Gbs
  | Number of local auxiliary basis functions on task:      0   256
  | Number of local auxiliary basis functions on task:      1   256
  | Number of local auxiliary basis functions on task:      2   256
  | Number of local auxiliary basis functions on task:      3   256
  | Number of local auxiliary basis functions on task:      4   256
  | Number of local auxiliary basis functions on task:      5   256
  | Number of local auxiliary basis functions on task:      6   256
  | Number of local auxiliary basis functions on task:      7   256
  | Number of local auxiliary basis functions on task:      8   256
  | Number of local auxiliary basis functions on task:      9   256
  | Number of local auxiliary basis functions on task:     10   256
  | Number of local auxiliary basis functions on task:     11   256
  | Number of local auxiliary basis functions on task:     12   256
  | Number of local auxiliary basis functions on task:     13   256
  | Number of local auxiliary basis functions on task:     14   240
  | Number of local auxiliary basis functions on task:     15   240
  | Number of local auxiliary basis functions on task:     16   240
  | Number of local auxiliary basis functions on task:     17   240
  | 2D aux task distribution:      3 X      6
  | 2D block size (nb_aux_2d):     64
 
  Basis pair condensation :    295296  -->     225760
dP_dE (Bohr^3) at every cycle:--->
 (343.717340203981,0.000000000000000E+000) (1.35341921896434,0.000000000000000E+000) (-2.03475284821510,0.000000000000000E+000)
 (1.36509464068820,0.000000000000000E+000) (351.481688596450,0.000000000000000E+000) (-3.48159387700340,0.000000000000000E+000)
 (-2.03331808251541,0.000000000000000E+000) (-3.49778537885773,0.000000000000000E+000) (351.537627881428,0.000000000000000E+000)
DFPT polarizability (Bohr^3)        xx        yy        zz        xy        xz        yz
  | Polarizability:--->                       343.717340204                  351.481688596                  351.537627881                    1.353419219                   -2.034752848                   -3.481593877

DFPT for dielectric_constant:--->  # PARSE DFPT_dielectric_tensor
               1.659381455684897             0.002596376238170            -0.003903434997544
               0.002618774167141             1.674276448595154            -0.006679030034853
              -0.003900682567611            -0.006710091534561             1.674383761560910

                                               :  max(cpu_time)    wall_clock(cpu1)
  | Time for  dielectric calculation            :        0.000 s           0.000 s
===========================================================================

------------------------------------------------------------------------------
  Final output of selected total energy values:

  The following output summarizes some interesting total energy values
  at the end of a run (AFTER all relaxation, molecular dynamics, etc.).

  | Total energy of the DFT / Hartree-Fock s.c.f. calculation      :         -66108.291525223 eV
  | Final zero-broadening corrected energy (caution - metals only) :         -66108.291525223 eV
  | For reference only, the value of 1 Hartree used in FHI-aims is :             27.211384500 eV
  | For reference only, the overall average (free atom contribution
  | + realspace contribution) of the electrostatic potential after
  | s.c.f. convergence is                                          :             -4.942004994 eV

  Before relying on these values, please be sure to understand exactly which
  total energy value is referred to by a given number. Different objects may
  all carry the same name 'total energy'. Definitions:

  Total energy of the DFT / Hartree-Fock s.c.f. calculation:
  | Note that this energy does not include ANY quantities calculated after the
  | s.c.f. cycle, in particular not ANY RPA, MP2, etc. many-body perturbation terms.

  Final zero-broadening corrected energy:
  | For metallic systems only, a broadening of the occupation numbers at the Fermi
  | level can be extrapolated back to zero broadening by an electron-gas inspired
  | formula. For all systems that are not real metals, this value can be
  | meaningless and should be avoided.

------------------------------------------------------------------------------
  Methods described in the following list of references were used in this FHI-aims run.
  If you publish the results, please make sure to cite these reference if they apply.
  FHI-aims is an academic code, and for our developers (often, Ph.D. students
  and postdocs), scientific credit in the community is essential.
  Thank you for helping us!

  For any use of FHI-aims, please cite:

    Volker Blum, Ralf Gehrke, Felix Hanke, Paula Havu, Ville Havu,
    Xinguo Ren, Karsten Reuter, and Matthias Scheffler
    'Ab initio molecular simulations with numeric atom-centered orbitals'
    Computer Physics Communications 180, 2175-2196 (2009)
    http://doi.org/10.1016/j.cpc.2009.06.022


  For Hartree-Fock, hybrid functionals, or many-body perturbation theory used in your run, please cite:

    Xinguo Ren, Patrick Rinke, Volker Blum, Juergen Wieferink, Alex Tkatchenko,
    Andrea Sanfilippo, Karsten Reuter, and Matthias Scheffler,
    'Resolution-of-identity approach to Hartree-Fock, hybrid density functionals,
    RPA, MP2, and GW with numeric atom-centered orbital basis functions'
    New Journal of Physics 14, 053020 (2012).
    http://doi.org/10.1088/1367-2630/14/5/053020


  The provided symmetry information was generated with SPGlib:

    Atsushi Togo, Yusuke Seto, Dimitar Pashov
    SPGlib 1.7.3 obtained from http://spglib.sourceforge.net
    Copyright (C) 2008 Atsushi Togo


  The DFPT (perturbation by an electric field) part of the code was used.
  Here is the corresponding reference:

    Honghui Shang, Nathaniel Raimbault, Mariana Rossi,
    Christian Carbogno, Patrick Rinke and Matthias Scheffler,
    'All-Electron, Real-Space Perturbation Theory for Homogeneous
    Electric Fields: Theory, Implementation, and Application within dft'
    New Journal of Physics, 20(7):073040, 2018


  The ELSI infrastructure was used in your run to solve the Kohn-Sham electronic structure.
  Please check out http://elsi-interchange.org to learn more.
  If scalability is important for your project, please acknowledge ELSI by citing:

    V. W-z. Yu, F. Corsetti, A. Garcia, W. P. Huhn, M. Jacquelin, W. Jia,
    B. Lange, L. Lin, J. Lu, W. Mi, A. Seifitokaldani, A. Vazquez-Mayagoitia,
    C. Yang, H. Yang, and V. Blum
    'ELSI: A unified software interface for Kohn-Sham electronic structure solvers'
    Computer Physics Communications 222, 267-285 (2018).
    http://doi.org/10.1016/j.cpc.2017.09.007


  For the real-space grid partitioning and parallelization used in this calculation, please cite:

    Ville Havu, Volker Blum, Paula Havu, and Matthias Scheffler,
    'Efficient O(N) integration for all-electron electronic structure calculation'
    'using numerically tabulated basis functions'
    Journal of Computational Physics 228, 8367-8379 (2009).
    http://doi.org/10.1016/j.jcp.2009.08.008


  The high-level electronic structure method used in your calculation
  employed our efficient localized resolution of identity for the Coulomb operator.
  Some calculations, especially large-scale hybrid density functional theory,
  are only possible thanks to this development. For this feature, please cite:

    Arvid Ihrig, Juergen Wieferink, Igor Ying Zhang, Matti Ropo, Xinguo Ren,
    Patrick Rinke, Matthias Scheffler, and Volker Blum,
    'Accurate localized resolution of identity approach for linear-scaling
    hybrid density functionals and for many-body perturbation theory'
    New Journal of Physics 117, 093020 (2015).
    http://doi.org/10.1088/1367-2630/17/9/093020

  Of course, there are many other important community references, e.g., those cited in the
  above references. Our list is limited to references that describe implementations in the
  FHI-aims code. The reason is purely practical (length of this list) - please credit others as well.

------------------------------------------------------------
          Leaving FHI-aims.
          Date     :  20230221, Time     :  130717.035

          Computational steps:
          | Number of self-consistency cycles          :           45
          | Number of SCF (re)initializations          :            1
          | Number of coupled perturbed self-consistency cycles          :            0
          | Number of CPSCF (re)initializations          :            0

          Detailed time accounting                     :  max(cpu_time)    wall_clock(cpu1)
          | Total time                                  :      480.517 s         492.027 s
          | GPU initialization                          :        1.700 s           9.440 s
          | Preparation time                            :        0.071 s           0.066 s
          | Boundary condition initalization            :        1.271 s           1.272 s
          | Grid partitioning                           :        0.425 s           0.425 s
          | Preloading free-atom quantities on grid     :        2.356 s           2.357 s
          | Free-atom superposition energy              :        0.316 s           0.316 s
          | Total time for integrations                 :       12.269 s          12.436 s
          | Product basis setup: Total time             :        0.000 s           0.000 s
          | Product basis: | 2-center integrations     :(       0.000 s)  (       0.000 s)
          | Product basis: | LVL 3-center & coefficient:(       0.000 s)  (       0.000 s)
          | Total time for solution of K.-S. equations  :        2.519 s           5.431 s
          | Total time for density update               :        8.757 s           9.086 s
          | Total time for mixing & preconditioning     :        8.462 s           8.463 s
          | Total time for Hartree multipole update     :        0.102 s           0.102 s
          | Total time for Hartree multipole sum        :       35.538 s          35.552 s
          | Total time for total energy evaluation      :        0.005 s           0.009 s
          | Total time for DFPT                         :      405.867 s         406.018 s
          | Total time first_order_DM                   :        0.308 s           0.313 s
          | Total time first_order_density              :       86.078 s          86.097 s
          | Total time first_order_potential            :       53.262 s          53.282 s
          | Total time first_order_H                    :      172.105 s         172.168 s
          | Total time solving of Sternheimer equations :        0.198 s           0.198 s
          | Total time for dielectric constant          :        0.000 s           0.000 s
          | Total time momentum matrix                  :        0.000 s           0.000 s

          GPU acceleration has been used for charge density update.
          GPU acceleration has been used for real-space Hamiltonian integration.
          Due to GPU usage, wall_clock(cpu1) will give a more reliable estimate for timings.

          Partial memory accounting:
          | Residual value for overall tracked memory usage across tasks:     0.000000 MB (should be 0.000000 MB)
          | Peak values for overall tracked memory usage:
          |   Minimum:      116.936 MB (on task  0 after allocating DFPT_pulay_mixing::pulay_mix::alphas)
          |   Maximum:      116.936 MB (on task  0 after allocating DFPT_pulay_mixing::pulay_mix::alphas)
          |   Average:      116.936 MB
          | Largest tracked array allocation:
          |   Minimum:       41.707 MB (DFPT_pulay_mixing::initialize_pulay_mixing::X_in_diffs on task  0)
          |   Maximum:       41.707 MB (DFPT_pulay_mixing::initialize_pulay_mixing::X_in_diffs on task  0)
          |   Average:       41.707 MB
          Note:  These values currently only include a subset of arrays which are explicitly tracked.
          The "true" memory usage will be greater.

          Have a nice day.
------------------------------------------------------------
