------------------------------------------------------------
          Invoking FHI-aims ...

          When using FHI-aims, please cite the following reference:

            Volker Blum, Ralf Gehrke, Felix Hanke, Paula Havu,
            Ville Havu, Xinguo Ren, Karsten Reuter, and Matthias Scheffler,
            'Ab Initio Molecular Simulations with Numeric Atom-Centered Orbitals',
            Computer Physics Communications 180, 2175-2196 (2009)

          In addition, many other developments in FHI-aims are likely important for
          your particular application. A partial list of references is given at the end of
          this file. Thank you for giving credit to the authors of these developments.

          For any questions about FHI-aims, please visit our slack channel at

            https://fhi-aims.slack.com

          and our main development and support site at

            https://aims-git.rz-berlin.mpg.de .

          The latter site, in particular, has a wiki to collect information, as well
          as an issue tracker to log discussions, suggest improvements, and report issues
          or bugs. https://aims-git.rz-berlin.mpg.de is also the main development site
          of the project and all new and updated code versions can be obtained there.
          Please send an email to aims-coordinators@fhi-berlin.mpg.de and we will add
          you to these sites. They are for you and everyone is welcome there.

------------------------------------------------------------



  Date     :  20230221, Time     :  161130.861
  Time zero on CPU 1             :   0.381021000000000E+00  s.
  Internal wall clock time zero  :           446227890.861  s.

  FHI-aims created a unique identifier for this run for later identification
  aims_uuid : B71624BB-052E-416D-AA86-83DAADA1BADE

  Build configuration of the current instance of FHI-aims
  -------------------------------------------------------
  FHI-aims version      : 221103
  Commit number         : 42523251a
  CMake host system     : Linux-5.3.18-150300.59.68-default
  CMake version         : 3.17.0
  Fortran compiler      : /mpcdf/soft/SLE_15/packages/x86_64/intel_oneapi/2021.3/mpi/2021.3.0/bin/mpiifort (Intel) version 20.2.3.20210609
  Fortran compiler flags: -O3 -ip -fp-model precise
  C compiler            : /mpcdf/soft/SLE_15/packages/x86_64/intel/2021.3.0/bin/icc (Intel) version 20.2.3.20210609
  C compiler flags      : -O3 -ip -fp-model precise -std=gnu99
  CUDA compiler         : /mpcdf/soft/SLE_15/packages/x86_64/cuda/11.6.2/bin/nvcc
  CUDA compiler flags   : -O3 -DAdd_ -lcublas
  HIP compiler          :
  HIP compiler flags    :
  HIP GPU arch          :
  ELPA2 kernel          : AVX512
  Using MPI
  Using ScaLAPACK
  Using LibXC
  Using CUDA
  Using i-PI
  Using RLSY
  Linking against: /mpcdf/soft/SLE_15/packages/x86_64/cuda/11.6.2/lib64/libcublas.so
                   /mpcdf/soft/SLE_15/packages/x86_64/cuda/11.6.2/lib64/libcudart.so
                   /mpcdf/soft/SLE_15/packages/x86_64/intel_oneapi/2021.3/mkl/latest/lib/intel64/libmkl_intel_lp64.so
                   /mpcdf/soft/SLE_15/packages/x86_64/intel_oneapi/2021.3/mkl/latest/lib/intel64/libmkl_sequential.so
                   /mpcdf/soft/SLE_15/packages/x86_64/intel_oneapi/2021.3/mkl/latest/lib/intel64/libmkl_core.so
                   /mpcdf/soft/SLE_15/packages/x86_64/intel_oneapi/2021.3/mkl/latest/lib/intel64/libmkl_blacs_intelmpi_lp64.so
                   /mpcdf/soft/SLE_15/packages/x86_64/intel_oneapi/2021.3/mkl/latest/lib/intel64/libmkl_scalapack_lp64.so

  Using       18 parallel tasks.
  Task        0 on host adag038 reporting.
  Task        1 on host adag038 reporting.
  Task        2 on host adag038 reporting.
  Task        3 on host adag038 reporting.
  Task        4 on host adag038 reporting.
  Task        5 on host adag038 reporting.
  Task        6 on host adag038 reporting.
  Task        7 on host adag038 reporting.
  Task        8 on host adag038 reporting.
  Task        9 on host adag038 reporting.
  Task       10 on host adag038 reporting.
  Task       11 on host adag038 reporting.
  Task       12 on host adag038 reporting.
  Task       13 on host adag038 reporting.
  Task       14 on host adag038 reporting.
  Task       15 on host adag038 reporting.
  Task       16 on host adag038 reporting.
  Task       17 on host adag038 reporting.

  Obtaining array dimensions for all initial allocations:
  
  -----------------------------------------------------------------------
  Parsing control.in (first pass over file, find array dimensions only).
  The contents of control.in will be repeated verbatim below
  unless switched off by setting 'verbatim_writeout .false.' .
  in the first line of control.in .
  -----------------------------------------------------------------------
  
  #########################################################################################
  #
  #  Volker Blum, 2017 : Test run input file control.in for simple H2O
  #
  #########################################################################################
  #
  #  Physical model
  #
    xc                 pw-lda
    spin               none
    relativistic       none
    charge             0.
  
    use_gpu
  
    DFPT dielectric
    ri_density_restart write
    ri_rho1 write
  #  ri_density_restart read 0
  #  ri_rho1 read
    ri_full_output .true.
    sc_accuracy_rho    1d-6
  #  use_calculate_fock_matrix_old .false.
  #  wave_threshold 1e-8
    k_grid 1 1 1
  #  output cube eigenstate 160
  #  output cube eigenstate 161
    wave_threshold 1e-8
    default_prodbas_acc 1e-6
    default_max_l_prodbas 6
  #
  #  Relaxation
  #
  #  relax_geometry   bfgs 1.e-2
  #
  
  ################################################################################
  
  
  ################################################################################
  #
  #  FHI-aims code project
  #  VB, Fritz-Haber Institut, 2009
  #
  #  Suggested "light" defaults for H atom (to be pasted into control.in file)
  #  Be sure to double-check any results obtained with these settings for post-processing,
  #  e.g., with the "tight" defaults and larger basis sets.
  #
  ################################################################################
    species        H
  #     global species definitions
      nucleus             1
      mass                1.00794
  #
      l_hartree           4
  #
      cut_pot             3.5  1.5  1.0
      basis_dep_cutoff    1e-4
  #
      radial_base         24 5.0
      radial_multiplier   1
      angular_grids       specified
        division   0.2421   50
        division   0.3822  110
        division   0.4799  194
        division   0.5341  302
  #      division   0.5626  434
  #      division   0.5922  590
  #      division   0.6542  770
  #      division   0.6868 1202
  #      outer_grid  770
        outer_grid  302
  ################################################################################
  #
  #  Definition of "minimal" basis
  #
  ################################################################################
  #     valence basis states
      valence      1  s   1.
  #     ion occupancy
      ion_occ      1  s   0.5
  ################################################################################
  #
  #  Suggested additional basis functions. For production calculations,
  #  uncomment them one after another (the most important basis functions are
  #  listed first).
  #
  #  Basis constructed for dimers: 0.5 A, 0.7 A, 1.0 A, 1.5 A, 2.5 A
  #
  ################################################################################
  #  "First tier" - improvements: -1014.90 meV to -62.69 meV
       hydro 2 s 2.1
       hydro 2 p 3.5
  #  "Second tier" - improvements: -12.89 meV to -1.83 meV
  #     hydro 1 s 0.85
  #     hydro 2 p 3.7
  #     hydro 2 s 1.2
  #     hydro 3 d 7
  #  "Third tier" - improvements: -0.25 meV to -0.12 meV
  #     hydro 4 f 11.2
  #     hydro 3 p 4.8
  #     hydro 4 d 9
  #     hydro 3 s 3.2
  ################################################################################
  #
  #  FHI-aims code project
  #  VB, Fritz-Haber Institut, 2009
  #
  #  Suggested "light" defaults for O atom (to be pasted into control.in file)
  #  Be sure to double-check any results obtained with these settings for post-processing,
  #  e.g., with the "tight" defaults and larger basis sets.
  #
  ################################################################################
    species        O
  #     global species definitions
      nucleus             8
      mass                15.9994
  #
      l_hartree           4
  #
      cut_pot             3.5  1.5  1.0
      basis_dep_cutoff    1e-4
  #
      radial_base         36 5.0
      radial_multiplier   1
       angular_grids specified
        division   0.2659   50
        division   0.4451  110
        division   0.6052  194
        division   0.7543  302
  #      division   0.8014  434
  #      division   0.8507  590
  #      division   0.8762  770
  #      division   0.9023  974
  #      division   1.2339 1202
  #      outer_grid 974
        outer_grid 302
  ################################################################################
  #
  #  Definition of "minimal" basis
  #
  ################################################################################
  #     valence basis states
      valence      2  s   2.
      valence      2  p   4.
  #     ion occupancy
      ion_occ      2  s   1.
      ion_occ      2  p   3.
  ################################################################################
  #
  #  Suggested additional basis functions. For production calculations,
  #  uncomment them one after another (the most important basis functions are
  #  listed first).
  #
  #  Constructed for dimers: 1.0 A, 1.208 A, 1.5 A, 2.0 A, 3.0 A
  #
  ################################################################################
  #  "First tier" - improvements: -699.05 meV to -159.38 meV
       hydro 2 p 1.8
       hydro 3 d 7.6
       hydro 3 s 6.4
  #  "Second tier" - improvements: -49.91 meV to -5.39 meV
  #     hydro 4 f 11.6
  #     hydro 3 p 6.2
  #     hydro 3 d 5.6
  #     hydro 5 g 17.6
  #     hydro 1 s 0.75
  #  "Third tier" - improvements: -2.83 meV to -0.50 meV
  #     ionic 2 p auto
  #     hydro 4 f 10.8
  #     hydro 4 d 4.7
  #     hydro 2 s 6.8
  #  "Fourth tier" - improvements: -0.40 meV to -0.12 meV
  #     hydro 3 p 5
  #     hydro 3 s 3.3
  #     hydro 5 g 15.6
  #     hydro 4 f 17.6
  #     hydro 4 d 14
  # Further basis functions - -0.08 meV and below
  #     hydro 3 s 2.1
  #     hydro 4 d 11.6
  #     hydro 3 p 16
  #     hydro 2 s 17.2
  
  -----------------------------------------------------------------------
  Completed first pass over input file control.in .
  -----------------------------------------------------------------------
  
  
  -----------------------------------------------------------------------
  Parsing geometry.in (first pass over file, find array dimensions only).
  The contents of geometry.in will be repeated verbatim below
  unless switched off by setting 'verbatim_writeout .false.' .
  in the first line of geometry.in .
  -----------------------------------------------------------------------
  
  #=======================================================
  # FHI-aims file: /ada/ptmp/mpsd/alewis/bulk_water/qmdata/data/geoms/190.in
  # Created using the Atomic Simulation Environment (ASE)
  # Tue Feb 21 11:23:37 2023
  #=======================================================
  lattice_vector 9.9507499999999993 0.0000000000000000 0.0000000000000000
  lattice_vector 0.0000000000000000 9.9507499999999993 0.0000000000000000
  lattice_vector 0.0000000000000000 0.0000000000000000 9.9507499999999993
  atom 1.4871600000000000 22.2017999999999986 -12.6844999999999999 O
  atom 2.1469000000000000 21.3813999999999993 -12.9095999999999993 H
  atom 0.7297520000000000 21.7974999999999994 -12.4659999999999993 H
  atom -19.7408000000000001 -1.5004299999999999 6.8538600000000001 O
  atom -20.2730999999999995 -1.0450299999999999 7.4355799999999999 H
  atom -18.8601999999999990 -1.4054800000000001 7.5214600000000003 H
  atom -2.1130100000000001 -11.9747000000000003 22.9283000000000001 O
  atom -1.5875999999999999 -12.7585999999999995 22.7318999999999996 H
  atom -2.5516399999999999 -11.6372999999999998 22.1274000000000015 H
  atom 1.8994000000000000 4.7951400000000000 1.7739000000000000 O
  atom 1.7680899999999999 4.1015100000000002 2.3443600000000000 H
  atom 1.3344199999999999 5.4988500000000000 2.1488299999999998 H
  atom -5.7397200000000002 1.6260200000000000 23.8046000000000006 O
  atom -6.1063900000000002 0.8520040000000000 23.5039000000000016 H
  atom -4.8456999999999999 1.4708200000000000 23.9649000000000001 H
  atom -13.9547000000000008 -1.2054400000000001 36.2852000000000032 O
  atom -13.5975999999999999 -0.6079450000000000 35.8885999999999967 H
  atom -13.9672000000000001 -2.0289000000000001 35.8641000000000005 H
  atom 13.7220999999999993 1.6820299999999999 1.1765500000000000 O
  atom 14.0859000000000005 1.8621200000000000 2.0239799999999999 H
  atom 14.1931999999999992 1.4239500000000000 0.3511330000000000 H
  atom -21.0165000000000006 -19.8769999999999989 -0.0705420000000000 O
  atom -20.3015000000000008 -19.3381000000000007 0.6104150000000000 H
  atom -21.8137000000000008 -19.3787999999999982 0.2357500000000000 H
  atom 10.4741999999999997 9.0127699999999997 -5.8536099999999998 O
  atom 10.2667999999999999 9.1038200000000007 -4.8529099999999996 H
  atom 9.6361500000000007 8.7021700000000006 -6.1324699999999996 H
  atom 16.2198999999999991 3.6657500000000001 11.8158999999999992 O
  atom 15.8224999999999998 4.3943099999999999 11.3809000000000005 H
  atom 16.6692999999999998 4.1448900000000002 12.6423000000000005 H
  atom 5.2835200000000002 0.2292300000000000 -20.9150999999999989 O
  atom 5.7870799999999996 -0.3538120000000000 -21.2305999999999990 H
  atom 4.9920099999999996 -0.6377650000000000 -20.2554000000000016 H
  atom 6.8965399999999999 -12.8713999999999995 8.4493100000000005 O
  atom 6.3967400000000003 -12.1796000000000006 8.1619700000000002 H
  atom 6.2476300000000000 -13.6068999999999996 8.1701599999999992 H
  atom 6.6166099999999997 11.4929000000000006 -14.5807000000000002 O
  atom 7.4869599999999998 11.5350000000000001 -14.6684000000000001 H
  atom 6.2090100000000001 12.3257999999999992 -14.6005000000000003 H
  atom -11.4039999999999999 3.5089800000000002 7.3751100000000003 O
  atom -11.2032000000000007 4.2082100000000002 6.8228799999999996 H
  atom -12.3452999999999999 3.4976900000000000 7.1686899999999998 H
  atom -0.4297530000000000 12.1245999999999992 3.8593999999999999 O
  atom 0.3028770000000000 12.0671999999999997 4.6161799999999999 H
  atom -0.0371180000000000 11.6514000000000006 2.9338799999999998 H
  atom -0.3963660000000000 16.4738000000000007 9.4443400000000004 O
  atom -1.2623899999999999 16.6595000000000013 9.0636600000000005 H
  atom -0.6337540000000000 15.6791999999999998 9.9494399999999992 H
  atom 9.4166000000000007 -4.0628299999999999 -13.8582000000000001 O
  atom 10.4253000000000000 -4.2064300000000001 -13.8691999999999993 H
  atom 9.2541799999999999 -3.1876699999999998 -13.5212000000000003 H
  atom -14.1884999999999994 14.2421000000000006 16.1021000000000001 O
  atom -13.9967000000000006 14.7081000000000000 15.3772000000000002 H
  atom -14.8134999999999994 14.7735000000000003 16.6086999999999989 H
  atom 4.0248200000000001 18.4833999999999996 -18.9347999999999992 O
  atom 4.2587299999999999 17.6842000000000006 -18.6952999999999996 H
  atom 3.1016900000000001 18.4289999999999985 -19.3872000000000000 H
  atom -5.8030900000000001 -3.9540899999999999 -2.2700800000000001 O
  atom -6.5693000000000001 -4.3761700000000001 -1.6387600000000000 H
  atom -5.9067200000000000 -3.0915200000000000 -1.9759899999999999 H
  atom 12.3747000000000007 13.4947999999999997 4.7267999999999999 O
  atom 13.0120000000000005 12.7757000000000005 4.6132400000000002 H
  atom 12.1547999999999998 13.3491000000000000 5.7960399999999996 H
  atom 13.3985000000000003 8.7565700000000000 13.6621000000000006 O
  atom 13.2855000000000008 8.7665799999999994 12.8010000000000002 H
  atom 12.4545999999999992 8.5386699999999998 13.8850999999999996 H
  atom 31.4637999999999991 8.6710799999999999 29.3610000000000007 O
  atom 30.9624999999999986 9.4840599999999995 29.5461999999999989 H
  atom 30.9470999999999989 7.8328100000000003 29.5567999999999991 H
  atom -5.6257400000000004 -4.0498000000000003 1.6957700000000000 O
  atom -5.2084999999999999 -3.7152699999999999 2.5598000000000001 H
  atom -6.5941200000000002 -4.3423400000000001 1.6919900000000001 H
  atom -7.5834700000000002 -3.6927099999999999 -14.4648000000000003 O
  atom -7.4418899999999999 -4.4999900000000004 -14.9206000000000003 H
  atom -6.9201400000000000 -3.8733700000000000 -13.6816999999999993 H
  atom 3.3473099999999998 10.0395000000000003 -2.8215200000000000 O
  atom 3.9762900000000001 10.2449999999999992 -2.1990699999999999 H
  atom 3.8448899999999999 9.8711099999999998 -3.5019800000000001 H
  atom 11.1259999999999994 10.6379999999999999 11.7820999999999998 O
  atom 11.2253000000000007 10.1405999999999992 12.6083999999999996 H
  atom 12.0734999999999992 10.7309000000000001 11.7403999999999993 H
  atom 28.5488000000000000 13.9506999999999994 10.0294000000000008 O
  atom 27.6652999999999984 13.7363000000000000 10.3498000000000001 H
  atom 28.5909000000000013 13.9182000000000006 8.9807199999999998 H
  atom 17.9782000000000011 -5.5139500000000004 13.8074999999999992 O
  atom 18.3896000000000015 -6.2952599999999999 13.5406999999999993 H
  atom 18.3119000000000014 -5.0869700000000000 14.6504999999999992 H
  atom 5.5755600000000003 6.8070399999999998 13.9734999999999996 O
  atom 4.8817700000000004 7.4030699999999996 14.1075999999999997 H
  atom 6.1611900000000004 7.3229499999999996 13.7103999999999999 H
  atom 2.2358099999999999 14.6135000000000002 -1.0620799999999999 O
  atom 2.0397099999999999 13.7626000000000008 -1.5107100000000000 H
  atom 1.9504200000000000 14.5298999999999996 -0.1906590000000000 H
  atom 0.0081230000000000 6.2771400000000002 3.1556799999999998 O
  atom 0.5825570000000000 6.5209700000000002 3.7985300000000000 H
  atom -0.5980920000000000 5.5039699999999998 3.4985400000000002 H
  
  -----------------------------------------------------------------------
  Completed first pass over input file geometry.in .
  -----------------------------------------------------------------------
  

  Basic array size parameters:
  | Number of species                 :        2
  | Number of atoms                   :       96
  | Number of lattice vectors         :        3
  | Max. basis fn. angular momentum   :        2
  | Max. atomic/ionic basis occupied n:        2
  | Max. number of basis fn. types    :        2
  | Max. radial fns per species/type  :        3
  | Max. logarithmic grid size        :     1301
  | Max. radial integration grid size :       36
  | Max. angular integration grid size:      302
  | Max. angular grid division number :        8
  | Radial grid for Hartree potential :     1301
  | Number of spin channels           :        1

------------------------------------------------------------
          Reading file control.in.
------------------------------------------------------------
  XC: Using Perdew-Wang parametrisation of Ceperley-Alder LDA.
  Spin treatment: No spin polarisation.
  Non-relativistic treatment of kinetic energy.
  Charge =   0.000000E+00: Neutral system requested explicitly.
  DFPT calculation will begin after the DFT/HF calculation.
  Convergence accuracy of self-consistent charge density:  0.1000E-05
  Found k-point grid:         1         1         1
  Threshold value for wave function integration:  0.1000E-07
 
  Reading configuration options for species H                   .
  | Found nuclear charge :   1.0000
  | Found atomic mass :    1.00794000000000      amu
  | Found l_max for Hartree potential  :   4
  | Found cutoff potl. onset [A], width [A], scale factor :    3.50000    1.50000    1.00000
  | Threshold for basis-dependent cutoff potential is   0.100000E-03
  | Found data for basic radial integration grid :    24 points, outermost radius =    5.000 A
  | Found multiplier for basic radial grid :   1
  | Found angular grid specification: user-specified.
  | Specified grid contains     5 separate shells.
  | Check grid settings after all constraints further below.
  | Found free-atom valence shell :  1 s   1.000
  | No ionic wave fns used. Skipping ion_occ.
  | Found hydrogenic basis function :  2 s   2.100
  | Found hydrogenic basis function :  2 p   3.500
  Species H                   : Missing cutoff potential type.
  Defaulting to exp(1/x)/(1-x)^2 type cutoff potential.
  Species H : No 'logarithmic' tag. Using default grid for free atom:
  | Default logarithmic grid data [bohr] : 0.1000E-03 0.1000E+03 0.1012E+01
  Species H : On-site basis accuracy parameter (for Gram-Schmidt orthonormalisation) not specified.
  Using default value basis_acc =  0.1000000E-03.
  Species H                   : Using default innermost maximum threshold i_radial=  2 for radial functions.
  Species H                   : Default cutoff onset for free atom density etc. : 0.35000000E+01 AA.
  Species H                   : Basic radial grid will be enhanced according to radial_multiplier =   1, to contain    24 grid points.
 
  Reading configuration options for species O                   .
  | Found nuclear charge :   8.0000
  | Found atomic mass :    15.9994000000000      amu
  | Found l_max for Hartree potential  :   4
  | Found cutoff potl. onset [A], width [A], scale factor :    3.50000    1.50000    1.00000
  | Threshold for basis-dependent cutoff potential is   0.100000E-03
  | Found data for basic radial integration grid :    36 points, outermost radius =    5.000 A
  | Found multiplier for basic radial grid :   1
  | Found angular grid specification: user-specified.
  | Specified grid contains     5 separate shells.
  | Check grid settings after all constraints further below.
  | Found free-atom valence shell :  2 s   2.000
  | Found free-atom valence shell :  2 p   4.000
  | No ionic wave fns used. Skipping ion_occ.
  | No ionic wave fns used. Skipping ion_occ.
  | Found hydrogenic basis function :  2 p   1.800
  | Found hydrogenic basis function :  3 d   7.600
  | Found hydrogenic basis function :  3 s   6.400
  Species O                   : Missing cutoff potential type.
  Defaulting to exp(1/x)/(1-x)^2 type cutoff potential.
  Species O : No 'logarithmic' tag. Using default grid for free atom:
  | Default logarithmic grid data [bohr] : 0.1000E-03 0.1000E+03 0.1012E+01
  Species O : On-site basis accuracy parameter (for Gram-Schmidt orthonormalisation) not specified.
  Using default value basis_acc =  0.1000000E-03.
  Species O                   : Using default innermost maximum threshold i_radial=  2 for radial functions.
  Species O                   : Default cutoff onset for free atom density etc. : 0.35000000E+01 AA.
  Species O                   : Basic radial grid will be enhanced according to radial_multiplier =   1, to contain    36 grid points.
 
  Finished reading input file 'control.in'.
 
------------------------------------------------------------


------------------------------------------------------------
          Reading geometry description geometry.in.
------------------------------------------------------------
  | The smallest distance between any two atoms is         0.80113185 AA.
  | The first atom of this pair is atom number                     16 .
  | The second atom of this pair is atom number                    17 .
  | Wigner-Seitz cell of the first atom image           0     0     0 .
  | (The Wigner-Seitz cell of the second atom is 0 0 0  by definition.)

  Symmetry information by spglib:
  | Precision set to  0.1E-04
  | Number of Operations  : 1
  | Space group           : 1
  | International         : P1        1
  | Schoenflies           : C1^1
  Input structure read successfully.
  The structure contains       96 atoms,  and a total of        320.000 electrons.

  Input geometry:
  | Unit cell:
  |        9.95075000        0.00000000        0.00000000
  |        0.00000000        9.95075000        0.00000000
  |        0.00000000        0.00000000        9.95075000
  | Atomic structure:
  |       Atom                x [A]            y [A]            z [A]
  |    1: Species O             1.48716000       22.20180000      -12.68450000
  |    2: Species H             2.14690000       21.38140000      -12.90960000
  |    3: Species H             0.72975200       21.79750000      -12.46600000
  |    4: Species O           -19.74080000       -1.50043000        6.85386000
  |    5: Species H           -20.27310000       -1.04503000        7.43558000
  |    6: Species H           -18.86020000       -1.40548000        7.52146000
  |    7: Species O            -2.11301000      -11.97470000       22.92830000
  |    8: Species H            -1.58760000      -12.75860000       22.73190000
  |    9: Species H            -2.55164000      -11.63730000       22.12740000
  |   10: Species O             1.89940000        4.79514000        1.77390000
  |   11: Species H             1.76809000        4.10151000        2.34436000
  |   12: Species H             1.33442000        5.49885000        2.14883000
  |   13: Species O            -5.73972000        1.62602000       23.80460000
  |   14: Species H            -6.10639000        0.85200400       23.50390000
  |   15: Species H            -4.84570000        1.47082000       23.96490000
  |   16: Species O           -13.95470000       -1.20544000       36.28520000
  |   17: Species H           -13.59760000       -0.60794500       35.88860000
  |   18: Species H           -13.96720000       -2.02890000       35.86410000
  |   19: Species O            13.72210000        1.68203000        1.17655000
  |   20: Species H            14.08590000        1.86212000        2.02398000
  |   21: Species H            14.19320000        1.42395000        0.35113300
  |   22: Species O           -21.01650000      -19.87700000       -0.07054200
  |   23: Species H           -20.30150000      -19.33810000        0.61041500
  |   24: Species H           -21.81370000      -19.37880000        0.23575000
  |   25: Species O            10.47420000        9.01277000       -5.85361000
  |   26: Species H            10.26680000        9.10382000       -4.85291000
  |   27: Species H             9.63615000        8.70217000       -6.13247000
  |   28: Species O            16.21990000        3.66575000       11.81590000
  |   29: Species H            15.82250000        4.39431000       11.38090000
  |   30: Species H            16.66930000        4.14489000       12.64230000
  |   31: Species O             5.28352000        0.22923000      -20.91510000
  |   32: Species H             5.78708000       -0.35381200      -21.23060000
  |   33: Species H             4.99201000       -0.63776500      -20.25540000
  |   34: Species O             6.89654000      -12.87140000        8.44931000
  |   35: Species H             6.39674000      -12.17960000        8.16197000
  |   36: Species H             6.24763000      -13.60690000        8.17016000
  |   37: Species O             6.61661000       11.49290000      -14.58070000
  |   38: Species H             7.48696000       11.53500000      -14.66840000
  |   39: Species H             6.20901000       12.32580000      -14.60050000
  |   40: Species O           -11.40400000        3.50898000        7.37511000
  |   41: Species H           -11.20320000        4.20821000        6.82288000
  |   42: Species H           -12.34530000        3.49769000        7.16869000
  |   43: Species O            -0.42975300       12.12460000        3.85940000
  |   44: Species H             0.30287700       12.06720000        4.61618000
  |   45: Species H            -0.03711800       11.65140000        2.93388000
  |   46: Species O            -0.39636600       16.47380000        9.44434000
  |   47: Species H            -1.26239000       16.65950000        9.06366000
  |   48: Species H            -0.63375400       15.67920000        9.94944000
  |   49: Species O             9.41660000       -4.06283000      -13.85820000
  |   50: Species H            10.42530000       -4.20643000      -13.86920000
  |   51: Species H             9.25418000       -3.18767000      -13.52120000
  |   52: Species O           -14.18850000       14.24210000       16.10210000
  |   53: Species H           -13.99670000       14.70810000       15.37720000
  |   54: Species H           -14.81350000       14.77350000       16.60870000
  |   55: Species O             4.02482000       18.48340000      -18.93480000
  |   56: Species H             4.25873000       17.68420000      -18.69530000
  |   57: Species H             3.10169000       18.42900000      -19.38720000
  |   58: Species O            -5.80309000       -3.95409000       -2.27008000
  |   59: Species H            -6.56930000       -4.37617000       -1.63876000
  |   60: Species H            -5.90672000       -3.09152000       -1.97599000
  |   61: Species O            12.37470000       13.49480000        4.72680000
  |   62: Species H            13.01200000       12.77570000        4.61324000
  |   63: Species H            12.15480000       13.34910000        5.79604000
  |   64: Species O            13.39850000        8.75657000       13.66210000
  |   65: Species H            13.28550000        8.76658000       12.80100000
  |   66: Species H            12.45460000        8.53867000       13.88510000
  |   67: Species O            31.46380000        8.67108000       29.36100000
  |   68: Species H            30.96250000        9.48406000       29.54620000
  |   69: Species H            30.94710000        7.83281000       29.55680000
  |   70: Species O            -5.62574000       -4.04980000        1.69577000
  |   71: Species H            -5.20850000       -3.71527000        2.55980000
  |   72: Species H            -6.59412000       -4.34234000        1.69199000
  |   73: Species O            -7.58347000       -3.69271000      -14.46480000
  |   74: Species H            -7.44189000       -4.49999000      -14.92060000
  |   75: Species H            -6.92014000       -3.87337000      -13.68170000
  |   76: Species O             3.34731000       10.03950000       -2.82152000
  |   77: Species H             3.97629000       10.24500000       -2.19907000
  |   78: Species H             3.84489000        9.87111000       -3.50198000
  |   79: Species O            11.12600000       10.63800000       11.78210000
  |   80: Species H            11.22530000       10.14060000       12.60840000
  |   81: Species H            12.07350000       10.73090000       11.74040000
  |   82: Species O            28.54880000       13.95070000       10.02940000
  |   83: Species H            27.66530000       13.73630000       10.34980000
  |   84: Species H            28.59090000       13.91820000        8.98072000
  |   85: Species O            17.97820000       -5.51395000       13.80750000
  |   86: Species H            18.38960000       -6.29526000       13.54070000
  |   87: Species H            18.31190000       -5.08697000       14.65050000
  |   88: Species O             5.57556000        6.80704000       13.97350000
  |   89: Species H             4.88177000        7.40307000       14.10760000
  |   90: Species H             6.16119000        7.32295000       13.71040000
  |   91: Species O             2.23581000       14.61350000       -1.06208000
  |   92: Species H             2.03971000       13.76260000       -1.51071000
  |   93: Species H             1.95042000       14.52990000       -0.19065900
  |   94: Species O             0.00812300        6.27714000        3.15568000
  |   95: Species H             0.58255700        6.52097000        3.79853000
  |   96: Species H            -0.59809200        5.50397000        3.49854000

  Lattice parameters for 3D lattice (in Angstroms) :     9.950750    9.950750    9.950750
  Angle(s) between unit vectors (in degrees)       :    90.000000   90.000000   90.000000


  Quantities derived from the lattice vectors (in Angstrom^-1):
  | Reciprocal lattice vector 1:  0.631428  0.000000  0.000000
  | Reciprocal lattice vector 2:  0.000000  0.631428  0.000000
  | Reciprocal lattice vector 3:  0.000000  0.000000  0.631428
  | Unit cell volume                               :   0.985298E+03  Angstrom^3

  Fractional coordinates:
                         L1                L2                L3
       atom_frac         0.14945205        2.23116850       -1.27472804  O
       atom_frac         0.21575258        2.14872246       -1.29734945  H
       atom_frac         0.07333638        2.19053840       -1.25276989  H
       atom_frac        -1.98385046       -0.15078562        0.68877823  O
       atom_frac        -2.03734392       -0.10502022        0.74723815  H
       atom_frac        -1.89535462       -0.14124362        0.75586865  H
       atom_frac        -0.21234681       -1.20339673        2.30417808  O
       atom_frac        -0.15954576       -1.28217471        2.28444087  H
       atom_frac        -0.25642690       -1.16948974        2.22369168  H
       atom_frac         0.19088008        0.48188729        0.17826797  O
       atom_frac         0.17768409        0.41218099        0.23559631  H
       atom_frac         0.13410245        0.55260659        0.21594654  H
       atom_frac        -0.57681280        0.16340678        2.39224179  O
       atom_frac        -0.61366128        0.08562209        2.36202296  H
       atom_frac        -0.48696832        0.14780996        2.40835113  H
       atom_frac        -1.40237671       -0.12114062        3.64647891  O
       atom_frac        -1.36648996       -0.06109539        3.60662262  H
       atom_frac        -1.40363289       -0.20389418        3.60416049  H
       atom_frac         1.37900158        0.16903550        0.11823732  O
       atom_frac         1.41556164        0.18713363        0.20339974  H
       atom_frac         1.42634475        0.14309977        0.03528709  H
       atom_frac        -2.11205186       -1.99753787       -0.00708911  O
       atom_frac        -2.04019798       -1.94338115        0.06134362  H
       atom_frac        -2.19216642       -1.94747130        0.02369168  H
       atom_frac         1.05260408        0.90573776       -0.58825817  O
       atom_frac         1.03176143        0.91488782       -0.48769289  H
       atom_frac         0.96838429        0.87452403       -0.61628219  H
       atom_frac         1.63001784        0.36838932        1.18743813  O
       atom_frac         1.59008115        0.44160591        1.14372283  H
       atom_frac         1.67518026        0.41654046        1.27048715  H
       atom_frac         0.53096701        0.02303645       -2.10186167  O
       atom_frac         0.58157224       -0.03555631       -2.13356782  H
       atom_frac         0.50167173       -0.06409215       -2.03556516  H
       atom_frac         0.69306736       -1.29351054        0.84911288  O
       atom_frac         0.64283999       -1.22398814        0.82023667  H
       atom_frac         0.62785519       -1.36742457        0.82105972  H
       atom_frac         0.66493581        1.15497827       -1.46528654  O
       atom_frac         0.75240158        1.15920910       -1.47409994  H
       atom_frac         0.62397407        1.23868050       -1.46727634  H
       atom_frac        -1.14604427        0.35263473        0.74116122  O
       atom_frac        -1.12586488        0.42290380        0.68566490  H
       atom_frac        -1.24064015        0.35150014        0.72041705  H
       atom_frac        -0.04318800        1.21846092        0.38785016  O
       atom_frac         0.03043761        1.21269251        0.46390272  H
       atom_frac        -0.00373017        1.17090672        0.29484009  H
       atom_frac        -0.03983278        1.65553350        0.94910836  O
       atom_frac        -0.12686380        1.67419541        0.91085195  H
       atom_frac        -0.06368907        1.57568023        0.99986835  H
       atom_frac         0.94632063       -0.40829385       -1.39267894  O
       atom_frac         1.04768987       -0.42272492       -1.39378439  H
       atom_frac         0.92999824       -0.32034470       -1.35881215  H
       atom_frac        -1.42587242        1.43125895        1.61817953  O
       atom_frac        -1.40659749        1.47808959        1.54533075  H
       atom_frac        -1.48868176        1.48466196        1.66909027  H
       atom_frac         0.40447403        1.85748813       -1.90285154  O
       atom_frac         0.42798081        1.77717257       -1.87878301  H
       atom_frac         0.31170414        1.85202120       -1.94831545  H
       atom_frac        -0.58318117       -0.39736603       -0.22813155  O
       atom_frac        -0.66018139       -0.43978293       -0.16468708  H
       atom_frac        -0.59359546       -0.31068211       -0.19857699  H
       atom_frac         1.24359470        1.35615908        0.47501947  O
       atom_frac         1.30764013        1.28389317        0.46360727  H
       atom_frac         1.22149587        1.34151697        0.58247268  H
       atom_frac         1.34648142        0.87999096        1.37297189  O
       atom_frac         1.33512549        0.88099691        1.28643570  H
       atom_frac         1.25162425        0.85809311        1.39538226  H
       atom_frac         3.16195262        0.87139964        2.95063186  O
       atom_frac         3.11157450        0.95310002        2.96924352  H
       atom_frac         3.11002688        0.78715775        2.97030877  H
       atom_frac        -0.56535839       -0.40698440        0.17041630  O
       atom_frac        -0.52342788       -0.37336583        0.25724694  H
       atom_frac        -0.66267568       -0.43638319        0.17003643  H
       atom_frac        -0.76210034       -0.37109866       -1.45363917  O
       atom_frac        -0.74787227       -0.45222621       -1.49944477  H
       atom_frac        -0.69543904       -0.38925408       -1.37494159  H
       atom_frac         0.33638771        1.00891893       -0.28354848  O
       atom_frac         0.39959702        1.02957064       -0.22099540  H
       atom_frac         0.38639198        0.99199658       -0.35193126  H
       atom_frac         1.11810668        1.06906515        1.18404140  O
       atom_frac         1.12808582        1.01907896        1.26708037  H
       atom_frac         1.21332563        1.07840113        1.17985077  H
       atom_frac         2.86900987        1.40197473        1.00790393  O
       atom_frac         2.78022260        1.38042861        1.04010250  H
       atom_frac         2.87324071        1.39870864        0.90251690  H
       atom_frac         1.80671809       -0.55412406        1.38758385  O
       atom_frac         1.84806170       -0.63264176        1.36077180  H
       atom_frac         1.84025325       -0.51121473        1.47230108  H
       atom_frac         0.56031555        0.68407306        1.40426601  O
       atom_frac         0.49059317        0.74397106        1.41774238  H
       atom_frac         0.61916840        0.73591940        1.37782579  H
       atom_frac         0.22468759        1.46858277       -0.10673366  O
       atom_frac         0.20498053        1.38307163       -0.15181871  H
       atom_frac         0.19600734        1.46018139       -0.01916026  H
       atom_frac         0.00081632        0.63082079        0.31712986  O
       atom_frac         0.05854403        0.65532447        0.38173304  H
       atom_frac        -0.06010522        0.55312112        0.35158556  H

 
  Finished reading input file 'geometry.in'.
 

 
  Consistency checks for stacksize environment parameter are next.
 
  | Maximum stacksize for task 0: unlimited
  | Maximum stacksize for task 1: unlimited
  | Maximum stacksize for task 2: unlimited
  | Maximum stacksize for task 3: unlimited
  | Maximum stacksize for task 4: unlimited
  | Maximum stacksize for task 5: unlimited
  | Maximum stacksize for task 6: unlimited
  | Maximum stacksize for task 7: unlimited
  | Maximum stacksize for task 8: unlimited
  | Maximum stacksize for task 9: unlimited
  | Maximum stacksize for task 10: unlimited
  | Maximum stacksize for task 11: unlimited
  | Maximum stacksize for task 12: unlimited
  | Maximum stacksize for task 13: unlimited
  | Maximum stacksize for task 14: unlimited
  | Maximum stacksize for task 15: unlimited
  | Maximum stacksize for task 16: unlimited
  | Maximum stacksize for task 17: unlimited
  | Current stacksize for task 0: unlimited
  | Current stacksize for task 1: unlimited
  | Current stacksize for task 2: unlimited
  | Current stacksize for task 3: unlimited
  | Current stacksize for task 4: unlimited
  | Current stacksize for task 5: unlimited
  | Current stacksize for task 6: unlimited
  | Current stacksize for task 7: unlimited
  | Current stacksize for task 8: unlimited
  | Current stacksize for task 9: unlimited
  | Current stacksize for task 10: unlimited
  | Current stacksize for task 11: unlimited
  | Current stacksize for task 12: unlimited
  | Current stacksize for task 13: unlimited
  | Current stacksize for task 14: unlimited
  | Current stacksize for task 15: unlimited
  | Current stacksize for task 16: unlimited
  | Current stacksize for task 17: unlimited
 
  Consistency checks for the contents of control.in are next.
 
  MPI_IN_PLACE appears to work with this MPI implementation.
  | Keeping use_mpi_in_place .true. (see manual).
  Explicit treatment of the Coulomb operator is needed, but the RI method is not specified.
  Coulomb operator: Defaulting to 'LVL fast' resolution of identity - RI_type = LVL_fast
  Species H: Using default value for prodbas_acc =   1.000000E-06.
  Species H: Using default value max_l_prodbas =     6.
  Species O: Using default value for prodbas_acc =   1.000000E-06.
  Species O: Using default value max_l_prodbas =     6.
  Target number of points in a grid batch is not set.  Since GPU acceleration is enabled, defaulting to  200
  Method for grid partitioning is not set. Defaulting to parallel hash+maxmin partitioning.
  Batch size limit is not set. Defaulting to    200
  By default, will store active basis functions for each batch.
  If in need of memory, prune_basis_once .false. can be used to disable this option.
  communication_type for Hartree potential was not specified.
  Defaulting to calc_hartree .
  Defaulting to Pulay charge density mixer.
  Pulay mixer: Number of relevant iterations not set.
  Defaulting to    8 iterations.
  Pulay mixer: Number of initial linear mixing iterations not set.
  Defaulting to    0 iterations.
  Work space size for distributed Hartree potential not set.
  Defaulting to   0.200000E+03 MB.
  Mixing parameter for charge density mixing has not been set.
  Using default: charge_mix_param =     0.0500.
  The mixing parameter will be adjusted in iteration number     2 of the first full s.c.f. cycle only.
  Algorithm-dependent basis array size parameters:
  | n_max_pulay                         :        8
  Maximum number of self-consistency iterations not provided.
  Presetting  1000 iterations.
  Presetting      1001 iterations before the initial mixing cycle
  is restarted anyway using the sc_init_iter criterion / keyword.
  Presetting a factor      1.000 between actual scf density residual
  and density convergence criterion sc_accuracy_rho below which sc_init_iter
  takes no effect.
  Calculation of forces was not defined in control.in. No forces will be calculated.
  Geometry relaxation not requested: no relaxation will be performed.
  No accuracy limit for integral partition fn. given. Defaulting to  0.1000E-14.
  No occupation type (smearing scheme) given. Defaulting to Gaussian broadening, width =  0.1000E-01 eV.
  The width will be adjusted in iteration number     2 of the first full s.c.f. cycle only.
  S.C.F. convergence parameters will be adjusted in iteration number     2 of the first full s.c.f. cycle only.
  No accuracy for occupation numbers given. Defaulting to  0.1000E-12.
  No threshold value for occupation numbers given. Defaulting to  0.0000E+00.
  No accuracy for fermi level given. Defaulting to  0.1000E-19.
  Maximum # of iterations to find E_F not set. Defaulting to  200.
  Preferred method for the eigenvalue solver ('KS_method') not specified in 'control.in'.
  Calling BLACS routine to test compilation state
  Since ScaLAPACK support is enabled, defaulting to ELPA (via ELSI).
  Will not use alltoall communication since running on < 1024 CPUs.
  Threshold for basis singularities not set.
  Default threshold for basis singularities:  0.1000E-04
  partition_type (choice of integration weights) for integrals was not specified.
  | Using a version of the partition function of Stratmann and coworkers ('stratmann_sparse').
  | At each grid point, the set of atoms used to build the partition table is smoothly restricted to
  | only those atoms whose free-atom density would be non-zero at that grid point.
  Partitioning for Hartree potential was not defined. Using partition_type for integrals.
  | Adjusted default value of keyword multip_moments_threshold to:       0.10000000E-11
  | This value may affect high angular momentum components of the Hartree potential in periodic systems.
  Angular momentum expansion for Kerker preconditioner not set explicitly.
  | Using default value of   0
  No explicit requirement for turning off preconditioner.
  | By default, it will be turned off when the charge convergence reaches
  | sc_accuracy_rho  =   0.100000E-05
  No special mixing parameter while Kerker preconditioner is on.
  Using default: charge_mix_param =     0.0500.
  Threshold for auxiliary basis singularities not set.
  Default threshold for auxiliary basis singularities:  0.1000E-04
  No q(lm)/r^(l+1) cutoff set for long-range Hartree potential.
  | Using default value of  0.100000E-09 .
  | Verify using the multipole_threshold keyword.
  Defaulting to new monopole extrapolation.
  Density update method: automatic selection selected.
  Using density matrix based charge density update.
  Using density matrix based charge density update.
  Using packed matrix style: index .
  Defaulting to use time-reversal symmetry for k-point grid.
  Charge integration errors on the 3D integration grid will be compensated
  by explicit normalization and distribution of residual charges.
  Use the "compensate_multipole_errors" flag to change this behaviour.
  Default to 1D ("use_logsbt") integrations for auxiliary 2-center integrals.
  Default onset of logarithmic r-grid for SBT is -38.000000000000
  Default onset of logarithmic k-grid for SBT is -25.000000000000
  Default range of logarithmic r- and k-grid for SBT is  45.000000000000
  Default number of logarithmic r- and k-grid for SBT is   4096
  Default of use_2d_corr is to use the efficient 2D distribution where possible
 
  Consistency checks for the contents of geometry.in are next.
 

  Range separation radius for Ewald summation (hartree_convergence_parameter):      3.00790516 bohr.
  Number of empty states per atom not set in control.in .
  | Since you are using a method that relies on the unoccupied spectrum
  | (MP2,GW,RPA et al.), will use the full Hamiltonian size (see below)
  | as the max. possible number of states (occupied plus empty).

  Structure-dependent array size parameters: 
  | Maximum number of distinct radial functions  :        9
  | Maximum number of basis functions            :      768
  | Number of Kohn-Sham states (occupied + empty):      768
------------------------------------------------------------

  Performing system and environment tests:
  | Environment variable OMP_NUM_THREADS correctly set to 1.
  | Checking for ScaLAPACK...
  | Testing pdtran()...
  | All pdtran() tests passed.
CUDA runtime version: 11060
CUDA driver version: 11060
  Initializing GPUs...

  Number of GPUs available to MPI task         0 :   1
  Number of GPUs available to MPI task         1 :   1
  Number of GPUs available to MPI task         2 :   1
  Number of GPUs available to MPI task         3 :   1
  Number of GPUs available to MPI task         4 :   1
  Number of GPUs available to MPI task         5 :   1
  Number of GPUs available to MPI task         6 :   1
  Number of GPUs available to MPI task         7 :   1
  Number of GPUs available to MPI task         8 :   1
  Number of GPUs available to MPI task         9 :   1
  Number of GPUs available to MPI task        10 :   1
  Number of GPUs available to MPI task        11 :   1
  Number of GPUs available to MPI task        12 :   1
  Number of GPUs available to MPI task        13 :   1
  Number of GPUs available to MPI task        14 :   1
  Number of GPUs available to MPI task        15 :   1
  Number of GPUs available to MPI task        16 :   1
  Number of GPUs available to MPI task        17 :   1

  | MPI task         0, GPU activated = T, Device Name = NVIDIA A100-SXM4-80GB
  | MPI task         1, GPU activated = T, Device Name = NVIDIA A100-SXM4-80GB
  | MPI task         2, GPU activated = T, Device Name = NVIDIA A100-SXM4-80GB
  | MPI task         3, GPU activated = T, Device Name = NVIDIA A100-SXM4-80GB
  | MPI task         4, GPU activated = T, Device Name = NVIDIA A100-SXM4-80GB
  | MPI task         5, GPU activated = T, Device Name = NVIDIA A100-SXM4-80GB
  | MPI task         6, GPU activated = T, Device Name = NVIDIA A100-SXM4-80GB
  | MPI task         7, GPU activated = T, Device Name = NVIDIA A100-SXM4-80GB
  | MPI task         8, GPU activated = T, Device Name = NVIDIA A100-SXM4-80GB
  | MPI task         9, GPU activated = T, Device Name = NVIDIA A100-SXM4-80GB
  | MPI task        10, GPU activated = T, Device Name = NVIDIA A100-SXM4-80GB
  | MPI task        11, GPU activated = T, Device Name = NVIDIA A100-SXM4-80GB
  | MPI task        12, GPU activated = T, Device Name = NVIDIA A100-SXM4-80GB
  | MPI task        13, GPU activated = T, Device Name = NVIDIA A100-SXM4-80GB
  | MPI task        14, GPU activated = T, Device Name = NVIDIA A100-SXM4-80GB
  | MPI task        15, GPU activated = T, Device Name = NVIDIA A100-SXM4-80GB
  | MPI task        16, GPU activated = T, Device Name = NVIDIA A100-SXM4-80GB
  | MPI task        17, GPU activated = T, Device Name = NVIDIA A100-SXM4-80GB

------------------------------------------------------------
          Preparing all fixed parts of the calculation.
------------------------------------------------------------
  Determining machine precision:
    2.225073858507201E-308
  Setting up grids for atomic and cluster calculations.

  Creating wave function, potential, and density for free atoms.
  Runtime choices for atomic solver:
  | atomic solver xc        : PW-LDA
  | compute density gradient: 0
  | compute kinetic density : F

  Species: H

  List of occupied orbitals and eigenvalues:
    n    l              occ      energy [Ha]    energy [eV]
    1    0           1.0000        -0.232375        -6.3233


  Species: O

  List of occupied orbitals and eigenvalues:
    n    l              occ      energy [Ha]    energy [eV]
    1    0           2.0000       -18.757744      -510.4242
    2    0           2.0000        -0.870917       -23.6989
    2    1           4.0000        -0.337950        -9.1961


  Adding cutoff potential to free-atom effective potential.
  Creating fixed part of basis set: Ionic, confined, hydrogenic.
 
  H                    hydrogenic:
 
  List of hydrogenic basis orbitals: 
    n    l      effective z      eigenvalue [eV]  inner max. [A]     outer max. [A]     outer radius [A]   
    2    0         2.100000       -14.9728           0.193243           1.317208           4.696947
    2    1         3.500000       -41.6669           0.602369           0.602369           3.862494
 
 
  O                    hydrogenic:
 
  List of hydrogenic basis orbitals: 
    n    l      effective z      eigenvalue [eV]  inner max. [A]     outer max. [A]     outer radius [A]   
    2    1         1.800000       -10.9749           1.164242           1.164242           4.691341
    3    2         7.600000       -87.3180           0.624125           0.624125           3.413946
    3    0         6.400000       -61.9207           0.061167           1.081902           4.151495
 
  Creating atomic-like basis functions for current effective potential.

  Species H                   :

  List of atomic basis orbitals and eigenvalues:
    n    l      energy [Ha]    energy [eV]    outer radius [A]
    1    0        -0.232375        -6.3233       4.696947


  Species O                   :

  List of atomic basis orbitals and eigenvalues:
    n    l      energy [Ha]    energy [eV]    outer radius [A]
    1    0       -18.757744      -510.4242       1.830144
    2    0        -0.870917       -23.6989       4.578029
    2    1        -0.337950        -9.1961       4.634338

  Assembling full basis from fixed parts.
  | Species H :   atomic orbital   1 s accepted.
  | Species H :    hydro orbital   2 s accepted.
  | Species H :    hydro orbital   2 p accepted.
  | Species O :   atomic orbital   1 s accepted.
  | Species O :    hydro orbital   3 s accepted.
  | Species O :   atomic orbital   2 s accepted.
  | Species O :   atomic orbital   2 p accepted.
  | Species O :    hydro orbital   2 p accepted.
  | Species O :    hydro orbital   3 d accepted.
 
  Basis size parameters after reduction:
  | Total number of radial functions:        9
  | Total number of basis functions :      768
 
  Per-task memory consumption for arrays in subroutine allocate_ext:
  |           2.268304MB.
  Testing on-site integration grid accuracy.
  |  Species  Function  <phi|h_atom|phi> (log., in eV)  <phi|h_atom|phi> (rad., in eV)
           1        1                 -6.3245358373                 -6.3232436907
           1        2                 14.1326137532                 14.1384481100
           1        3                 25.3627025200                 25.3628451197
           2        4               -510.4241781764               -510.4240769407
           2        5                 14.9072942213                 14.9072945271
           2        6                -21.2004736474                -21.2005650551
           2        7                 -9.1962086505                 -9.1963509834
           2        8                  8.1896755006                  8.1702200081
           2        9                 45.7920584937                 45.7920228520

  Preparing densities etc. for the partition functions (integrals / Hartree potential).

  Preparations completed.
  max(cpu_time)          :      0.069 s.
  Wall clock time (cpu1) :      0.064 s.
------------------------------------------------------------

  Initializing index lists of integration centers etc. from given atomic structure:
  Mapping all atomic coordinates to central unit cell.

  Initializing the k-points
  Using symmetry for reducing the k-points
  | k-points reduced from:        1 to        1
  | Number of k-points                             :         1
  | Consuming          0 KiB for k_phase_exx.
  The eigenvectors in the calculations are REAL.
  | Number of basis functions in the Hamiltonian integrals :      4514
  | Number of basis functions in a single unit cell        :       768
  | Number of centers in hartree potential         :      2584
  | Number of centers in hartree multipole         :      1826
  | Number of centers in electron density summation:      1443
  | Number of centers in basis integrals           :      1512
  | Number of centers in integrals                 :       690
  | Number of centers in hamiltonian               :      1443
  | Consuming          0 KiB for k_phase.
  | Number of super-cells (origin) [n_cells]                     :         125
  | Number of super-cells (after PM_index) [n_cells]             :          28
  | Number of super-cells in hamiltonian [n_cells_in_hamiltonian]:          28
  | Size of matrix packed + index [n_hamiltonian_matrix_size] :      768812
  | Size of matrix packed + index (no_symmetry):     1536855

------------------------------------------------------------
          Begin self-consistency loop: Initialization.

          Date     :  20230221, Time     :  161142.630
------------------------------------------------------------
  | Estimated reciprocal-space cutoff momentum G_max:         3.14167211 bohr^-1 .
  | Reciprocal lattice points for long-range Hartree potential:    3430
  Using simple linear distribution as default method for k-point parallelism.
  * Using 18 tasks for Scalapack Eigenvalue solver.
  Detailed listing of tasks and assigned k-points:
   Task     0 k-point     1 on adag038
   Task     1 k-point     1 on adag038
   Task     2 k-point     1 on adag038
   Task     3 k-point     1 on adag038
   Task     4 k-point     1 on adag038
   Task     5 k-point     1 on adag038
   Task     6 k-point     1 on adag038
   Task     7 k-point     1 on adag038
   Task     8 k-point     1 on adag038
   Task     9 k-point     1 on adag038
   Task    10 k-point     1 on adag038
   Task    11 k-point     1 on adag038
   Task    12 k-point     1 on adag038
   Task    13 k-point     1 on adag038
   Task    14 k-point     1 on adag038
   Task    15 k-point     1 on adag038
   Task    16 k-point     1 on adag038
   Task    17 k-point     1 on adag038
  K-point:     1 Tasks:    18 split into      6 X      3 BLACS grid
  Calculating block size based on n_basis =          768  max_nprow =            6  max_npcol =            3
  ScaLAPACK block size set to:           16
  Allocating        0.250 MB for ovlp
  Allocating        0.250 MB for ham
  Allocating        0.250 MB for eigenvec
  Required Scalapack workspace - INTEGER:            1  REAL:             1
  Partitioning the integration grid into batches with parallel hashing+maxmin method.
  | Number of batches:     3759
  | Maximal batch size:     200
  | Minimal batch size:      99
  | Average batch size:     135.559
  | Standard deviation of batch sizes:      27.981

  Integration load balanced across    18 MPI tasks.
  Work distribution over tasks is as follows:
  Task     0 has      28338 integration points.
  Task     1 has      28259 integration points.
  Task     2 has      28340 integration points.
  Task     3 has      28293 integration points.
  Task     4 has      28246 integration points.
  Task     5 has      28350 integration points.
  Task     6 has      28347 integration points.
  Task     7 has      28342 integration points.
  Task     8 has      28241 integration points.
  Task     9 has      28334 integration points.
  Task    10 has      28261 integration points.
  Task    11 has      28350 integration points.
  Task    12 has      28345 integration points.
  Task    13 has      28318 integration points.
  Task    14 has      28239 integration points.
  Task    15 has      28292 integration points.
  Task    16 has      28354 integration points.
  Task    17 has      28319 integration points.
  Initializing partition tables, free-atom densities, potentials, etc. across the integration grid (initialize_grid_storage).
  | initialize_grid_storage: Actual outermost partition radius vs. multipole_radius_free
  | (-- VB: in principle, multipole_radius_free should be larger, hence this output)
  | Species        1: Confinement radius =              4.999999999999999 AA, multipole_radius_free =              5.054417573612229 AA.
  | Species        1: outer_partition_radius set to              5.054417573612229 AA .
  | Species        2: Confinement radius =              4.999999999999999 AA, multipole_radius_free =              5.048384829883283 AA.
  | Species        2: outer_partition_radius set to              5.048384829883283 AA .
  | The sparse table of interatomic distances needs       4884.36 kbyte instead of     18289.15 kbyte of memory.
  | Net number of integration points:   509568
  | of which are non-zero points    :   406635
  | Numerical average free-atom electrostatic potential    :     -5.28911082 eV
  Renormalizing the initial density to the exact electron count on the 3D integration grid.
  | Initial density: Formal number of electrons (from input files) :     320.0000000000
  | Integrated number of electrons on 3D grid     :     320.0017093543
  | Charge integration error                      :       0.0017093543
  | Normalization factor for density and gradient :       0.9999946583
  Renormalizing the free-atom superposition density to the exact electron count on the 3D integration grid.
  | Formal number of electrons (from input files) :     320.0000000000
  | Integrated number of electrons on 3D grid     :     320.0017093543
  | Charge integration error                      :       0.0017093543
  | Normalization factor for density and gradient :       0.9999946583
  Obtaining max. number of non-zero basis functions in each batch (get_n_compute_maxes).
  | Maximal number of non-zero basis functions:      425 in task     0
  | Maximal number of non-zero basis functions:      415 in task     1
  | Maximal number of non-zero basis functions:      412 in task     2
  | Maximal number of non-zero basis functions:      409 in task     3
  | Maximal number of non-zero basis functions:      424 in task     4
  | Maximal number of non-zero basis functions:      423 in task     5
  | Maximal number of non-zero basis functions:      410 in task     6
  | Maximal number of non-zero basis functions:      409 in task     7
  | Maximal number of non-zero basis functions:      411 in task     8
  | Maximal number of non-zero basis functions:      407 in task     9
  | Maximal number of non-zero basis functions:      423 in task    10
  | Maximal number of non-zero basis functions:      406 in task    11
  | Maximal number of non-zero basis functions:      422 in task    12
  | Maximal number of non-zero basis functions:      424 in task    13
  | Maximal number of non-zero basis functions:      407 in task    14
  | Maximal number of non-zero basis functions:      407 in task    15
  | Maximal number of non-zero basis functions:      426 in task    16
  | Maximal number of non-zero basis functions:      404 in task    17
  Integrating Hamiltonian matrix: batch-based integration.
  GPU acceleration will be used when integrating the Hamiltonian matrix.
  Reporting GPU memory usage by myid 0.  Note that it is likely not the only MPI task binding to its GPU!
  Allocating        1.445 MB on GPU for hamiltonian_shell
  Allocating        0.680 MB on GPU for wave
  Allocating        0.002 MB on GPU for partition
  Allocating        0.680 MB on GPU for h_times_psi
  Time summed over all CPUs for integration: real work       11.297 s, elapsed       11.773 s
  Deallocating memory used on GPU for Hamiltonian integration.
  Integrating overlap matrix.
  Time summed over all CPUs for integration: real work        9.133 s, elapsed        9.621 s
  Deallocating overlap matrix.

  Updating Kohn-Sham eigenvalues and eigenvectors using ELSI and the ELPA eigensolver.
  Singularity check in k-point 1 (analysis for other k-points may follow below):
  Overlap matrix is not singular
  | Lowest and highest eigenvalues :  0.2017E-02,  0.7244E+01
  Finished singularity check of overlap matrix
  | Time :     0.146 s
  Starting ELPA eigensolver (GPU)
  Finished Cholesky decomposition
  | Time :     0.007 s
  Finished transformation to standard eigenproblem
  | Time :     0.025 s
  Finished solving standard eigenproblem
  | Time :     0.188 s
  Finished back-transformation of eigenvectors
  | Time :     0.017 s

  Obtaining occupation numbers and electronic chemical potential using ELSI.
  | Note that, for insulating systems, the printed 'chemical potential' value is not uniquely defined.
  | It can be anywhere in the energy gap, as long as it correctly separates occupied and unoccupied states.
  | In systems with a gap, the physically relevant chemical potential is the VBM or HOMO.

  | Chemical potential (Fermi level):    -5.50329855 eV
  Writing Kohn-Sham eigenvalues.

  State    Occupation    Eigenvalue [Ha]    Eigenvalue [eV]
      1       2.00000         -18.931406         -515.14977
      2       2.00000         -18.924727         -514.96802
      3       2.00000         -18.915096         -514.70595
      4       2.00000         -18.904756         -514.42457
      5       2.00000         -18.900388         -514.30573
      6       2.00000         -18.893664         -514.12275
      7       2.00000         -18.893183         -514.10966
      8       2.00000         -18.889327         -514.00475
      9       2.00000         -18.888946         -513.99437
     10       2.00000         -18.888560         -513.98388
     11       2.00000         -18.887362         -513.95127
     12       2.00000         -18.884956         -513.88579
     13       2.00000         -18.881243         -513.78476
     14       2.00000         -18.880180         -513.75584
     15       2.00000         -18.878784         -513.71784
     16       2.00000         -18.877010         -513.66957
     17       2.00000         -18.875287         -513.62269
     18       2.00000         -18.875004         -513.61499
     19       2.00000         -18.873041         -513.56159
     20       2.00000         -18.872198         -513.53863
     21       2.00000         -18.869755         -513.47217
     22       2.00000         -18.869571         -513.46714
     23       2.00000         -18.867665         -513.41528
     24       2.00000         -18.866691         -513.38879
     25       2.00000         -18.865342         -513.35208
     26       2.00000         -18.865191         -513.34796
     27       2.00000         -18.862917         -513.28609
     28       2.00000         -18.859134         -513.18314
     29       2.00000         -18.855961         -513.09680
     30       2.00000         -18.851141         -512.96564
     31       2.00000         -18.842261         -512.72401
     32       2.00000         -18.834850         -512.52233
     33       2.00000          -1.193104          -32.46602
     34       2.00000          -1.186668          -32.29088
     35       2.00000          -1.175490          -31.98672
     36       2.00000          -1.152379          -31.35783
     37       2.00000          -1.146801          -31.20605
     38       2.00000          -1.143963          -31.12882
     39       2.00000          -1.141984          -31.07496
     40       2.00000          -1.137311          -30.94781
     41       2.00000          -1.134446          -30.86984
     42       2.00000          -1.132441          -30.81529
     43       2.00000          -1.128672          -30.71274
     44       2.00000          -1.121731          -30.52385
     45       2.00000          -1.121190          -30.50913
     46       2.00000          -1.119687          -30.46824
     47       2.00000          -1.118414          -30.43360
     48       2.00000          -1.109362          -30.18729
     49       2.00000          -1.107249          -30.12978
     50       2.00000          -1.106273          -30.10323
     51       2.00000          -1.102243          -29.99355
     52       2.00000          -1.101689          -29.97849
     53       2.00000          -1.097994          -29.87795
     54       2.00000          -1.095577          -29.81217
     55       2.00000          -1.093975          -29.76859
     56       2.00000          -1.093528          -29.75640
     57       2.00000          -1.088926          -29.63120
     58       2.00000          -1.088101          -29.60873
     59       2.00000          -1.085480          -29.53740
     60       2.00000          -1.074046          -29.22628
     61       2.00000          -1.066939          -29.03290
     62       2.00000          -1.066780          -29.02857
     63       2.00000          -1.052409          -28.63750
     64       2.00000          -1.032413          -28.09338
     65       2.00000          -0.747526          -20.34122
     66       2.00000          -0.715953          -19.48209
     67       2.00000          -0.710776          -19.34121
     68       2.00000          -0.701036          -19.07615
     69       2.00000          -0.692702          -18.84937
     70       2.00000          -0.687059          -18.69583
     71       2.00000          -0.681469          -18.54371
     72       2.00000          -0.680326          -18.51260
     73       2.00000          -0.674286          -18.34825
     74       2.00000          -0.669951          -18.23030
     75       2.00000          -0.667450          -18.16224
     76       2.00000          -0.663825          -18.06360
     77       2.00000          -0.657025          -17.87855
     78       2.00000          -0.651683          -17.73321
     79       2.00000          -0.651147          -17.71861
     80       2.00000          -0.649494          -17.67363
     81       2.00000          -0.646533          -17.59306
     82       2.00000          -0.644501          -17.53775
     83       2.00000          -0.642679          -17.48819
     84       2.00000          -0.639328          -17.39701
     85       2.00000          -0.638163          -17.36531
     86       2.00000          -0.631462          -17.18296
     87       2.00000          -0.630325          -17.15201
     88       2.00000          -0.628718          -17.10827
     89       2.00000          -0.624089          -16.98232
     90       2.00000          -0.623995          -16.97976
     91       2.00000          -0.621882          -16.92226
     92       2.00000          -0.612328          -16.66229
     93       2.00000          -0.605069          -16.46478
     94       2.00000          -0.601179          -16.35890
     95       2.00000          -0.588206          -16.00591
     96       2.00000          -0.580507          -15.79640
     97       2.00000          -0.577835          -15.72369
     98       2.00000          -0.576583          -15.68963
     99       2.00000          -0.569713          -15.50269
    100       2.00000          -0.563851          -15.34316
    101       2.00000          -0.562473          -15.30566
    102       2.00000          -0.561564          -15.28093
    103       2.00000          -0.555954          -15.12828
    104       2.00000          -0.553670          -15.06613
    105       2.00000          -0.552902          -15.04522
    106       2.00000          -0.548463          -14.92443
    107       2.00000          -0.548211          -14.91757
    108       2.00000          -0.545481          -14.84328
    109       2.00000          -0.541822          -14.74373
    110       2.00000          -0.540027          -14.69487
    111       2.00000          -0.536362          -14.59514
    112       2.00000          -0.534087          -14.53324
    113       2.00000          -0.532238          -14.48294
    114       2.00000          -0.530640          -14.43946
    115       2.00000          -0.527643          -14.35790
    116       2.00000          -0.526678          -14.33163
    117       2.00000          -0.523514          -14.24554
    118       2.00000          -0.517606          -14.08478
    119       2.00000          -0.513384          -13.96988
    120       2.00000          -0.511613          -13.92169
    121       2.00000          -0.511176          -13.90982
    122       2.00000          -0.508999          -13.85057
    123       2.00000          -0.506929          -13.79424
    124       2.00000          -0.505331          -13.75076
    125       2.00000          -0.503218          -13.69326
    126       2.00000          -0.500985          -13.63249
    127       2.00000          -0.497774          -13.54511
    128       2.00000          -0.497204          -13.52960
    129       2.00000          -0.487739          -13.27205
    130       2.00000          -0.486636          -13.24204
    131       2.00000          -0.486416          -13.23605
    132       2.00000          -0.479806          -13.05618
    133       2.00000          -0.478861          -13.03046
    134       2.00000          -0.475464          -12.93802
    135       2.00000          -0.472826          -12.86624
    136       2.00000          -0.471598          -12.83283
    137       2.00000          -0.471006          -12.81673
    138       2.00000          -0.469846          -12.78515
    139       2.00000          -0.468038          -12.73595
    140       2.00000          -0.466699          -12.69952
    141       2.00000          -0.464723          -12.64575
    142       2.00000          -0.464429          -12.63774
    143       2.00000          -0.462703          -12.59078
    144       2.00000          -0.459335          -12.49914
    145       2.00000          -0.459078          -12.49215
    146       2.00000          -0.458069          -12.46470
    147       2.00000          -0.457513          -12.44956
    148       2.00000          -0.456433          -12.42016
    149       2.00000          -0.453346          -12.33617
    150       2.00000          -0.452962          -12.32571
    151       2.00000          -0.451414          -12.28361
    152       2.00000          -0.450737          -12.26518
    153       2.00000          -0.449243          -12.22454
    154       2.00000          -0.448991          -12.21765
    155       2.00000          -0.447796          -12.18516
    156       2.00000          -0.443181          -12.05957
    157       2.00000          -0.440835          -11.99572
    158       2.00000          -0.438608          -11.93512
    159       2.00000          -0.427488          -11.63254
    160       2.00000          -0.422698          -11.50221
    161       0.00000          -0.175226           -4.76815
    162       0.00000          -0.121717           -3.31208
    163       0.00000          -0.118529           -3.22533
    164       0.00000          -0.108968           -2.96518
    165       0.00000          -0.106212           -2.89017
    166       0.00000          -0.100363           -2.73101
    167       0.00000          -0.098407           -2.67779
    168       0.00000          -0.075090           -2.04331
    169       0.00000          -0.073154           -1.99061
    170       0.00000          -0.068601           -1.86673
    171       0.00000          -0.062191           -1.69230
    172       0.00000          -0.059600           -1.62181
    173       0.00000          -0.052379           -1.42530
    174       0.00000          -0.048842           -1.32906
    175       0.00000          -0.047750           -1.29934
    176       0.00000          -0.044644           -1.21483
    177       0.00000          -0.040045           -1.08967
    178       0.00000          -0.036186           -0.98467
    179       0.00000          -0.034375           -0.93540
    180       0.00000          -0.019445           -0.52911
    181       0.00000          -0.013499           -0.36734
    182       0.00000          -0.012066           -0.32834
    183       0.00000          -0.005818           -0.15831
    184       0.00000          -0.002865           -0.07796
    185       0.00000          -0.000304           -0.00828
    186       0.00000           0.007920            0.21553
    187       0.00000           0.013016            0.35418
    188       0.00000           0.020241            0.55078
    189       0.00000           0.023747            0.64619
    190       0.00000           0.026608            0.72403
    191       0.00000           0.028446            0.77406
    192       0.00000           0.036503            0.99330
    193       0.00000           0.037705            1.02600
    194       0.00000           0.041412            1.12689
    195       0.00000           0.046665            1.26983
    196       0.00000           0.048852            1.32934
    197       0.00000           0.052001            1.41501
    198       0.00000           0.055550            1.51160
    199       0.00000           0.057603            1.56746
    200       0.00000           0.061624            1.67687
    201       0.00000           0.063327            1.72323
    202       0.00000           0.065141            1.77257
    203       0.00000           0.068354            1.86000
    204       0.00000           0.071050            1.93338
    205       0.00000           0.072809            1.98124
    206       0.00000           0.075456            2.05326
    207       0.00000           0.076407            2.07913
    208       0.00000           0.079669            2.16789
    209       0.00000           0.080327            2.18582
    210       0.00000           0.085174            2.31770
    211       0.00000           0.087646            2.38497
    212       0.00000           0.090446            2.46115
    213       0.00000           0.091515            2.49024
    214       0.00000           0.095056            2.58661
    215       0.00000           0.098336            2.67585
    216       0.00000           0.100590            2.73718
    217       0.00000           0.101747            2.76867
    218       0.00000           0.106735            2.90441
    219       0.00000           0.108275            2.94632
    220       0.00000           0.112880            3.07162
    221       0.00000           0.118656            3.22881
    222       0.00000           0.126307            3.43698
    223       0.00000           0.130122            3.54079
    224       0.00000           0.134550            3.66129
    225       0.00000           0.139831            3.80501
    226       0.00000           0.144015            3.91885
    227       0.00000           0.156313            4.25350
    228       0.00000           0.157358            4.28192
    229       0.00000           0.163640            4.45288
    230       0.00000           0.167816            4.56650
    231       0.00000           0.171416            4.66446
    232       0.00000           0.179246            4.87753
    233       0.00000           0.185132            5.03771
    234       0.00000           0.194144            5.28294
    235       0.00000           0.195760            5.32690
    236       0.00000           0.199162            5.41946
    237       0.00000           0.205339            5.58757
    238       0.00000           0.209718            5.70671
    239       0.00000           0.220644            6.00403
    240       0.00000           0.222690            6.05970
    241       0.00000           0.229969            6.25776
    242       0.00000           0.234416            6.37880
    243       0.00000           0.246138            6.69774
    244       0.00000           0.249241            6.78219
    245       0.00000           0.252759            6.87792
    246       0.00000           0.259475            7.06068
    247       0.00000           0.264110            7.18679
    248       0.00000           0.265958            7.23710
    249       0.00000           0.274393            7.46662
    250       0.00000           0.276426            7.52194
    251       0.00000           0.285826            7.77773
    252       0.00000           0.292608            7.96227
    253       0.00000           0.302226            8.22398
    254       0.00000           0.306639            8.34406
    255       0.00000           0.315764            8.59239
    256       0.00000           0.327713            8.91752
    257       0.00000           0.332193            9.03943
    258       0.00000           0.336886            9.16715
    259       0.00000           0.340027            9.25262
[...]
  |    H      0     4.527807 A      4.527807 A        1.268855E-16 a.u.
  |    H      0     4.527807 A      4.583499 A       -4.900954E-17 a.u.
  |    H      0     4.527807 A      4.583499 A        4.713786E-16 a.u.
  |    H      2     3.678162 A  2.180220E+05 A            0.556529 a.u.
  |    H      1     3.958095 A  1.721251E+08 A            0.841931 a.u.
  |    H      0     4.527807 A  3.866455E+16 A            0.581436 a.u.
  |    O      0     2.043000 A      2.043000 A       -1.436841E-16 a.u.
  |    O      3     3.498446 A      3.498446 A        3.043453E-17 a.u.
  |    O      3     3.498446 A      3.498446 A        1.541443E-16 a.u.
  |    O      0     3.905335 A      3.905335 A        2.173090E-16 a.u.
  |    O      0     3.905335 A      3.905335 A        7.213445E-17 a.u.
  |    O      0     4.101052 A      4.101052 A        2.361718E-16 a.u.
  |    O      1     4.101052 A      4.101052 A        3.235185E-17 a.u.
  |    O      0     4.359549 A      4.359549 A       -5.329475E-17 a.u.
  |    O      1     4.413171 A      4.413171 A        3.261883E-17 a.u.
  |    O      1     4.522403 A      4.522403 A        6.417997E-16 a.u.
  |    O      1     4.522403 A      4.522403 A        4.224783E-16 a.u.
  |    O      2     4.522403 A      4.522403 A       -4.387647E-16 a.u.
  |    O      0     4.522403 A      4.578029 A        2.602039E-16 a.u.
  |    O      0     4.578029 A      4.578029 A        1.226235E-16 a.u.
  |    O      1     4.578029 A      4.578029 A       -6.107316E-16 a.u.
  |    O      1     4.578029 A      4.578029 A       -2.224438E-16 a.u.
  |    O      2     4.578029 A      4.578029 A       -7.020279E-16 a.u.
  |    O      2     4.522403 A      4.578029 A        1.323470E-15 a.u.
  |    O      2     4.578029 A      4.578029 A        7.923696E-16 a.u.
  |    O      2     4.522403 A      4.578029 A       -9.951815E-16 a.u.
  |    O      0     4.578029 A      4.634338 A       -8.813582E-18 a.u.
  |    O      1     4.578029 A      4.634338 A       -3.325386E-17 a.u.
  |    O      1     4.634338 A      4.634338 A        9.588032E-16 a.u.
  |    O      2     4.578029 A      4.634338 A        1.064715E-17 a.u.
  |    O      2     4.578029 A      4.634338 A       -3.770343E-15 a.u.
  |    O      4     3.251020 A  1.511584E+03 A            1.513372 a.u.
  |    O      3     3.541477 A  1.434166E+04 A            4.293220 a.u.
  |    O      2     4.634338 A  5.584435E+05 A            9.352428 a.u.
  |    O      1     4.634338 A  2.821283E+08 A            2.261940 a.u.
  |    O      0     4.578029 A  4.264100E+16 A            0.641234 a.u.

  | Shrink_full_auxil_basis : there are       38  radial auxiliary wave functions
                            accepted and       5 rejected.
  | Shrink_full_auxil_basis : there are totally                4544 partial auxiliary wave functions.
 
  | Maximal number of product basis functions per thread :   256   256
 
  | Minimal total memory requirement for three-center overlap :      10.450 Gbs
  | Number of local auxiliary basis functions on task:      0   256
  | Number of local auxiliary basis functions on task:      1   256
  | Number of local auxiliary basis functions on task:      2   256
  | Number of local auxiliary basis functions on task:      3   256
  | Number of local auxiliary basis functions on task:      4   256
  | Number of local auxiliary basis functions on task:      5   256
  | Number of local auxiliary basis functions on task:      6   256
  | Number of local auxiliary basis functions on task:      7   256
  | Number of local auxiliary basis functions on task:      8   256
  | Number of local auxiliary basis functions on task:      9   256
  | Number of local auxiliary basis functions on task:     10   256
  | Number of local auxiliary basis functions on task:     11   256
  | Number of local auxiliary basis functions on task:     12   256
  | Number of local auxiliary basis functions on task:     13   256
  | Number of local auxiliary basis functions on task:     14   240
  | Number of local auxiliary basis functions on task:     15   240
  | Number of local auxiliary basis functions on task:     16   240
  | Number of local auxiliary basis functions on task:     17   240
  | 2D aux task distribution:      3 X      6
  | 2D block size (nb_aux_2d):     64
 
  Basis pair condensation :    295296  -->     215690
 
 --------------------------------------------
  Constructing auxiliary basis (full product) ...
 
  Product basis:
  | charge radius: extent of product basis function
  | field radius: extent of its Coulomb potential
  | Species   l  charge radius    field radius  multipol momen
  |    H      1     3.910002 A      3.910002 A       -2.487223E-16 a.u.
  |    H      1     3.958095 A      3.958095 A       -2.441841E-16 a.u.
  |    H      0     4.527807 A      4.527807 A        1.268855E-16 a.u.
  |    H      0     4.527807 A      4.583499 A       -4.900954E-17 a.u.
  |    H      0     4.527807 A      4.583499 A        4.713786E-16 a.u.
  |    H      2     3.678162 A  2.180220E+05 A            0.556529 a.u.
  |    H      1     3.958095 A  1.721251E+08 A            0.841931 a.u.
  |    H      0     4.527807 A  3.866455E+16 A            0.581436 a.u.
  |    O      0     2.043000 A      2.043000 A       -1.436841E-16 a.u.
  |    O      3     3.498446 A      3.498446 A        3.043453E-17 a.u.
  |    O      3     3.498446 A      3.498446 A        1.541443E-16 a.u.
  |    O      0     3.905335 A      3.905335 A        2.173090E-16 a.u.
  |    O      0     3.905335 A      3.905335 A        7.213445E-17 a.u.
  |    O      0     4.101052 A      4.101052 A        2.361718E-16 a.u.
  |    O      1     4.101052 A      4.101052 A        3.235185E-17 a.u.
  |    O      0     4.359549 A      4.359549 A       -5.329475E-17 a.u.
  |    O      1     4.413171 A      4.413171 A        3.261883E-17 a.u.
  |    O      1     4.522403 A      4.522403 A        6.417997E-16 a.u.
  |    O      1     4.522403 A      4.522403 A        4.224783E-16 a.u.
  |    O      2     4.522403 A      4.522403 A       -4.387647E-16 a.u.
  |    O      0     4.522403 A      4.578029 A        2.602039E-16 a.u.
  |    O      0     4.578029 A      4.578029 A        1.226235E-16 a.u.
  |    O      1     4.578029 A      4.578029 A       -6.107316E-16 a.u.
  |    O      1     4.578029 A      4.578029 A       -2.224438E-16 a.u.
  |    O      2     4.578029 A      4.578029 A       -7.020279E-16 a.u.
  |    O      2     4.522403 A      4.578029 A        1.323470E-15 a.u.
  |    O      2     4.578029 A      4.578029 A        7.923696E-16 a.u.
  |    O      2     4.522403 A      4.578029 A       -9.951815E-16 a.u.
  |    O      0     4.578029 A      4.634338 A       -8.813582E-18 a.u.
  |    O      1     4.578029 A      4.634338 A       -3.325386E-17 a.u.
  |    O      1     4.634338 A      4.634338 A        9.588032E-16 a.u.
  |    O      2     4.578029 A      4.634338 A        1.064715E-17 a.u.
  |    O      2     4.578029 A      4.634338 A       -3.770343E-15 a.u.
  |    O      4     3.251020 A  1.511584E+03 A            1.513372 a.u.
  |    O      3     3.541477 A  1.434166E+04 A            4.293220 a.u.
  |    O      2     4.634338 A  5.584435E+05 A            9.352428 a.u.
  |    O      1     4.634338 A  2.821283E+08 A            2.261940 a.u.
  |    O      0     4.578029 A  4.264100E+16 A            0.641234 a.u.

  | Shrink_full_auxil_basis : there are       38  radial auxiliary wave functions
                            accepted and       5 rejected.
  | Shrink_full_auxil_basis : there are totally                4544 partial auxiliary wave functions.
 
  | Maximal number of product basis functions per thread :   256   256
 
  | Minimal total memory requirement for three-center overlap :      10.450 Gbs
  | Number of local auxiliary basis functions on task:      0   256
  | Number of local auxiliary basis functions on task:      1   256
  | Number of local auxiliary basis functions on task:      2   256
  | Number of local auxiliary basis functions on task:      3   256
  | Number of local auxiliary basis functions on task:      4   256
  | Number of local auxiliary basis functions on task:      5   256
  | Number of local auxiliary basis functions on task:      6   256
  | Number of local auxiliary basis functions on task:      7   256
  | Number of local auxiliary basis functions on task:      8   256
  | Number of local auxiliary basis functions on task:      9   256
  | Number of local auxiliary basis functions on task:     10   256
  | Number of local auxiliary basis functions on task:     11   256
  | Number of local auxiliary basis functions on task:     12   256
  | Number of local auxiliary basis functions on task:     13   256
  | Number of local auxiliary basis functions on task:     14   240
  | Number of local auxiliary basis functions on task:     15   240
  | Number of local auxiliary basis functions on task:     16   240
  | Number of local auxiliary basis functions on task:     17   240
  | 2D aux task distribution:      3 X      6
  | 2D block size (nb_aux_2d):     64
 
  Basis pair condensation :    295296  -->     215690
dP_dE (Bohr^3) at every cycle:--->
 (353.247513198581,0.000000000000000E+000) (6.98099615212582,0.000000000000000E+000) (6.99493802876057,0.000000000000000E+000)
 (6.99675282985531,0.000000000000000E+000) (327.521697957661,0.000000000000000E+000) (6.26117569289355,0.000000000000000E+000)
 (6.98458381997681,0.000000000000000E+000) (6.26043650161327,0.000000000000000E+000) (345.837933850305,0.000000000000000E+000)
DFPT polarizability (Bohr^3)        xx        yy        zz        xy        xz        yz
  | Polarizability:--->                       353.247513199                  327.521697958                  345.837933850                    6.980996152                    6.994938029                    6.261175693

DFPT for dielectric_constant:--->  # PARSE DFPT_dielectric_tensor
               1.667613220123710             0.013193596972817             0.013219946149547
               0.013223375997338             1.618993219383200             0.011833186391727
               0.013200377415417             0.011831789371642             1.653609630732030

                                               :  max(cpu_time)    wall_clock(cpu1)
  | Time for  dielectric calculation            :        0.000 s           0.000 s
===========================================================================

------------------------------------------------------------------------------
  Final output of selected total energy values:

  The following output summarizes some interesting total energy values
  at the end of a run (AFTER all relaxation, molecular dynamics, etc.).

  | Total energy of the DFT / Hartree-Fock s.c.f. calculation      :         -66106.740002833 eV
  | Final zero-broadening corrected energy (caution - metals only) :         -66106.740002833 eV
  | For reference only, the value of 1 Hartree used in FHI-aims is :             27.211384500 eV
  | For reference only, the overall average (free atom contribution
  | + realspace contribution) of the electrostatic potential after
  | s.c.f. convergence is                                          :             -4.864797034 eV

  Before relying on these values, please be sure to understand exactly which
  total energy value is referred to by a given number. Different objects may
  all carry the same name 'total energy'. Definitions:

  Total energy of the DFT / Hartree-Fock s.c.f. calculation:
  | Note that this energy does not include ANY quantities calculated after the
  | s.c.f. cycle, in particular not ANY RPA, MP2, etc. many-body perturbation terms.

  Final zero-broadening corrected energy:
  | For metallic systems only, a broadening of the occupation numbers at the Fermi
  | level can be extrapolated back to zero broadening by an electron-gas inspired
  | formula. For all systems that are not real metals, this value can be
  | meaningless and should be avoided.

------------------------------------------------------------------------------
  Methods described in the following list of references were used in this FHI-aims run.
  If you publish the results, please make sure to cite these reference if they apply.
  FHI-aims is an academic code, and for our developers (often, Ph.D. students
  and postdocs), scientific credit in the community is essential.
  Thank you for helping us!

  For any use of FHI-aims, please cite:

    Volker Blum, Ralf Gehrke, Felix Hanke, Paula Havu, Ville Havu,
    Xinguo Ren, Karsten Reuter, and Matthias Scheffler
    'Ab initio molecular simulations with numeric atom-centered orbitals'
    Computer Physics Communications 180, 2175-2196 (2009)
    http://doi.org/10.1016/j.cpc.2009.06.022


  For Hartree-Fock, hybrid functionals, or many-body perturbation theory used in your run, please cite:

    Xinguo Ren, Patrick Rinke, Volker Blum, Juergen Wieferink, Alex Tkatchenko,
    Andrea Sanfilippo, Karsten Reuter, and Matthias Scheffler,
    'Resolution-of-identity approach to Hartree-Fock, hybrid density functionals,
    RPA, MP2, and GW with numeric atom-centered orbital basis functions'
    New Journal of Physics 14, 053020 (2012).
    http://doi.org/10.1088/1367-2630/14/5/053020


  The provided symmetry information was generated with SPGlib:

    Atsushi Togo, Yusuke Seto, Dimitar Pashov
    SPGlib 1.7.3 obtained from http://spglib.sourceforge.net
    Copyright (C) 2008 Atsushi Togo


  The DFPT (perturbation by an electric field) part of the code was used.
  Here is the corresponding reference:

    Honghui Shang, Nathaniel Raimbault, Mariana Rossi,
    Christian Carbogno, Patrick Rinke and Matthias Scheffler,
    'All-Electron, Real-Space Perturbation Theory for Homogeneous
    Electric Fields: Theory, Implementation, and Application within dft'
    New Journal of Physics, 20(7):073040, 2018


  The ELSI infrastructure was used in your run to solve the Kohn-Sham electronic structure.
  Please check out http://elsi-interchange.org to learn more.
  If scalability is important for your project, please acknowledge ELSI by citing:

    V. W-z. Yu, F. Corsetti, A. Garcia, W. P. Huhn, M. Jacquelin, W. Jia,
    B. Lange, L. Lin, J. Lu, W. Mi, A. Seifitokaldani, A. Vazquez-Mayagoitia,
    C. Yang, H. Yang, and V. Blum
    'ELSI: A unified software interface for Kohn-Sham electronic structure solvers'
    Computer Physics Communications 222, 267-285 (2018).
    http://doi.org/10.1016/j.cpc.2017.09.007


  For the real-space grid partitioning and parallelization used in this calculation, please cite:

    Ville Havu, Volker Blum, Paula Havu, and Matthias Scheffler,
    'Efficient O(N) integration for all-electron electronic structure calculation'
    'using numerically tabulated basis functions'
    Journal of Computational Physics 228, 8367-8379 (2009).
    http://doi.org/10.1016/j.jcp.2009.08.008


  The high-level electronic structure method used in your calculation
  employed our efficient localized resolution of identity for the Coulomb operator.
  Some calculations, especially large-scale hybrid density functional theory,
  are only possible thanks to this development. For this feature, please cite:

    Arvid Ihrig, Juergen Wieferink, Igor Ying Zhang, Matti Ropo, Xinguo Ren,
    Patrick Rinke, Matthias Scheffler, and Volker Blum,
    'Accurate localized resolution of identity approach for linear-scaling
    hybrid density functionals and for many-body perturbation theory'
    New Journal of Physics 117, 093020 (2015).
    http://doi.org/10.1088/1367-2630/17/9/093020

  Of course, there are many other important community references, e.g., those cited in the
  above references. Our list is limited to references that describe implementations in the
  FHI-aims code. The reason is purely practical (length of this list) - please credit others as well.

------------------------------------------------------------
          Leaving FHI-aims.
          Date     :  20230221, Time     :  161912.762

          Computational steps:
          | Number of self-consistency cycles          :           45
          | Number of SCF (re)initializations          :            1
          | Number of coupled perturbed self-consistency cycles          :            0
          | Number of CPSCF (re)initializations          :            0

          Detailed time accounting                     :  max(cpu_time)    wall_clock(cpu1)
          | Total time                                  :      450.539 s         461.901 s
          | GPU initialization                          :        2.297 s          10.338 s
          | Preparation time                            :        0.069 s           0.064 s
          | Boundary condition initalization            :        1.279 s           1.280 s
          | Grid partitioning                           :        0.453 s           0.453 s
          | Preloading free-atom quantities on grid     :        2.320 s           2.320 s
          | Free-atom superposition energy              :        0.304 s           0.305 s
          | Total time for integrations                 :       11.759 s          11.957 s
          | Product basis setup: Total time             :        0.000 s           0.000 s
          | Product basis: | 2-center integrations     :(       0.000 s)  (       0.000 s)
          | Product basis: | LVL 3-center & coefficient:(       0.000 s)  (       0.000 s)
          | Total time for solution of K.-S. equations  :        2.266 s           4.568 s
          | Total time for density update               :        8.410 s           8.734 s
          | Total time for mixing & preconditioning     :        7.987 s           7.986 s
          | Total time for Hartree multipole update     :        0.103 s           0.104 s
          | Total time for Hartree multipole sum        :       36.280 s          36.291 s
          | Total time for total energy evaluation      :        0.005 s           0.003 s
          | Total time for DFPT                         :      376.272 s         376.413 s
          | Total time first_order_DM                   :        0.295 s           0.294 s
          | Total time first_order_density              :       77.803 s          77.822 s
          | Total time first_order_potential            :       52.920 s          52.938 s
          | Total time first_order_H                    :      153.838 s         153.894 s
          | Total time solving of Sternheimer equations :        0.191 s           0.189 s
          | Total time for dielectric constant          :        0.000 s           0.000 s
          | Total time momentum matrix                  :        0.000 s           0.000 s

          GPU acceleration has been used for charge density update.
          GPU acceleration has been used for real-space Hamiltonian integration.
          Due to GPU usage, wall_clock(cpu1) will give a more reliable estimate for timings.

          Partial memory accounting:
          | Residual value for overall tracked memory usage across tasks:     0.000000 MB (should be 0.000000 MB)
          | Peak values for overall tracked memory usage:
          |   Minimum:      115.131 MB (on task  0 after allocating DFPT_pulay_mixing::pulay_mix::alphas)
          |   Maximum:      115.131 MB (on task  0 after allocating DFPT_pulay_mixing::pulay_mix::alphas)
          |   Average:      115.131 MB
          | Largest tracked array allocation:
          |   Minimum:       41.059 MB (DFPT_pulay_mixing::initialize_pulay_mixing::X_in_diffs on task  0)
          |   Maximum:       41.059 MB (DFPT_pulay_mixing::initialize_pulay_mixing::X_in_diffs on task  0)
          |   Average:       41.059 MB
          Note:  These values currently only include a subset of arrays which are explicitly tracked.
          The "true" memory usage will be greater.

          Have a nice day.
------------------------------------------------------------
