------------------------------------------------------------
          Invoking FHI-aims ...

          When using FHI-aims, please cite the following reference:

            Volker Blum, Ralf Gehrke, Felix Hanke, Paula Havu,
            Ville Havu, Xinguo Ren, Karsten Reuter, and Matthias Scheffler,
            'Ab Initio Molecular Simulations with Numeric Atom-Centered Orbitals',
            Computer Physics Communications 180, 2175-2196 (2009)

          In addition, many other developments in FHI-aims are likely important for
          your particular application. A partial list of references is given at the end of
          this file. Thank you for giving credit to the authors of these developments.

          For any questions about FHI-aims, please visit our slack channel at

            https://fhi-aims.slack.com

          and our main development and support site at

            https://aims-git.rz-berlin.mpg.de .

          The latter site, in particular, has a wiki to collect information, as well
          as an issue tracker to log discussions, suggest improvements, and report issues
          or bugs. https://aims-git.rz-berlin.mpg.de is also the main development site
          of the project and all new and updated code versions can be obtained there.
          Please send an email to aims-coordinators@fhi-berlin.mpg.de and we will add
          you to these sites. They are for you and everyone is welcome there.

------------------------------------------------------------



  Date     :  20230221, Time     :  143538.443
  Time zero on CPU 1             :   0.344599000000000E+00  s.
  Internal wall clock time zero  :           446222138.443  s.

  FHI-aims created a unique identifier for this run for later identification
  aims_uuid : C94CD5BE-EF79-4B74-AE9F-72DD18A3D8B1

  Build configuration of the current instance of FHI-aims
  -------------------------------------------------------
  FHI-aims version      : 221103
  Commit number         : 42523251a
  CMake host system     : Linux-5.3.18-150300.59.68-default
  CMake version         : 3.17.0
  Fortran compiler      : /mpcdf/soft/SLE_15/packages/x86_64/intel_oneapi/2021.3/mpi/2021.3.0/bin/mpiifort (Intel) version 20.2.3.20210609
  Fortran compiler flags: -O3 -ip -fp-model precise
  C compiler            : /mpcdf/soft/SLE_15/packages/x86_64/intel/2021.3.0/bin/icc (Intel) version 20.2.3.20210609
  C compiler flags      : -O3 -ip -fp-model precise -std=gnu99
  CUDA compiler         : /mpcdf/soft/SLE_15/packages/x86_64/cuda/11.6.2/bin/nvcc
  CUDA compiler flags   : -O3 -DAdd_ -lcublas
  HIP compiler          :
  HIP compiler flags    :
  HIP GPU arch          :
  ELPA2 kernel          : AVX512
  Using MPI
  Using ScaLAPACK
  Using LibXC
  Using CUDA
  Using i-PI
  Using RLSY
  Linking against: /mpcdf/soft/SLE_15/packages/x86_64/cuda/11.6.2/lib64/libcublas.so
                   /mpcdf/soft/SLE_15/packages/x86_64/cuda/11.6.2/lib64/libcudart.so
                   /mpcdf/soft/SLE_15/packages/x86_64/intel_oneapi/2021.3/mkl/latest/lib/intel64/libmkl_intel_lp64.so
                   /mpcdf/soft/SLE_15/packages/x86_64/intel_oneapi/2021.3/mkl/latest/lib/intel64/libmkl_sequential.so
                   /mpcdf/soft/SLE_15/packages/x86_64/intel_oneapi/2021.3/mkl/latest/lib/intel64/libmkl_core.so
                   /mpcdf/soft/SLE_15/packages/x86_64/intel_oneapi/2021.3/mkl/latest/lib/intel64/libmkl_blacs_intelmpi_lp64.so
                   /mpcdf/soft/SLE_15/packages/x86_64/intel_oneapi/2021.3/mkl/latest/lib/intel64/libmkl_scalapack_lp64.so

  Using       18 parallel tasks.
  Task        0 on host adag040 reporting.
  Task        1 on host adag040 reporting.
  Task        2 on host adag040 reporting.
  Task        3 on host adag040 reporting.
  Task        4 on host adag040 reporting.
  Task        5 on host adag040 reporting.
  Task        6 on host adag040 reporting.
  Task        7 on host adag040 reporting.
  Task        8 on host adag040 reporting.
  Task        9 on host adag040 reporting.
  Task       10 on host adag040 reporting.
  Task       11 on host adag040 reporting.
  Task       12 on host adag040 reporting.
  Task       13 on host adag040 reporting.
  Task       14 on host adag040 reporting.
  Task       15 on host adag040 reporting.
  Task       16 on host adag040 reporting.
  Task       17 on host adag040 reporting.

  Obtaining array dimensions for all initial allocations:
  
  -----------------------------------------------------------------------
  Parsing control.in (first pass over file, find array dimensions only).
  The contents of control.in will be repeated verbatim below
  unless switched off by setting 'verbatim_writeout .false.' .
  in the first line of control.in .
  -----------------------------------------------------------------------
  
  #########################################################################################
  #
  #  Volker Blum, 2017 : Test run input file control.in for simple H2O
  #
  #########################################################################################
  #
  #  Physical model
  #
    xc                 pw-lda
    spin               none
    relativistic       none
    charge             0.
  
    use_gpu
  
    DFPT dielectric
    ri_density_restart write
    ri_rho1 write
  #  ri_density_restart read 0
  #  ri_rho1 read
    ri_full_output .true.
    sc_accuracy_rho    1d-6
  #  use_calculate_fock_matrix_old .false.
  #  wave_threshold 1e-8
    k_grid 1 1 1
  #  output cube eigenstate 160
  #  output cube eigenstate 161
    wave_threshold 1e-8
    default_prodbas_acc 1e-6
    default_max_l_prodbas 6
  #
  #  Relaxation
  #
  #  relax_geometry   bfgs 1.e-2
  #
  
  ################################################################################
  
  
  ################################################################################
  #
  #  FHI-aims code project
  #  VB, Fritz-Haber Institut, 2009
  #
  #  Suggested "light" defaults for H atom (to be pasted into control.in file)
  #  Be sure to double-check any results obtained with these settings for post-processing,
  #  e.g., with the "tight" defaults and larger basis sets.
  #
  ################################################################################
    species        H
  #     global species definitions
      nucleus             1
      mass                1.00794
  #
      l_hartree           4
  #
      cut_pot             3.5  1.5  1.0
      basis_dep_cutoff    1e-4
  #
      radial_base         24 5.0
      radial_multiplier   1
      angular_grids       specified
        division   0.2421   50
        division   0.3822  110
        division   0.4799  194
        division   0.5341  302
  #      division   0.5626  434
  #      division   0.5922  590
  #      division   0.6542  770
  #      division   0.6868 1202
  #      outer_grid  770
        outer_grid  302
  ################################################################################
  #
  #  Definition of "minimal" basis
  #
  ################################################################################
  #     valence basis states
      valence      1  s   1.
  #     ion occupancy
      ion_occ      1  s   0.5
  ################################################################################
  #
  #  Suggested additional basis functions. For production calculations,
  #  uncomment them one after another (the most important basis functions are
  #  listed first).
  #
  #  Basis constructed for dimers: 0.5 A, 0.7 A, 1.0 A, 1.5 A, 2.5 A
  #
  ################################################################################
  #  "First tier" - improvements: -1014.90 meV to -62.69 meV
       hydro 2 s 2.1
       hydro 2 p 3.5
  #  "Second tier" - improvements: -12.89 meV to -1.83 meV
  #     hydro 1 s 0.85
  #     hydro 2 p 3.7
  #     hydro 2 s 1.2
  #     hydro 3 d 7
  #  "Third tier" - improvements: -0.25 meV to -0.12 meV
  #     hydro 4 f 11.2
  #     hydro 3 p 4.8
  #     hydro 4 d 9
  #     hydro 3 s 3.2
  ################################################################################
  #
  #  FHI-aims code project
  #  VB, Fritz-Haber Institut, 2009
  #
  #  Suggested "light" defaults for O atom (to be pasted into control.in file)
  #  Be sure to double-check any results obtained with these settings for post-processing,
  #  e.g., with the "tight" defaults and larger basis sets.
  #
  ################################################################################
    species        O
  #     global species definitions
      nucleus             8
      mass                15.9994
  #
      l_hartree           4
  #
      cut_pot             3.5  1.5  1.0
      basis_dep_cutoff    1e-4
  #
      radial_base         36 5.0
      radial_multiplier   1
       angular_grids specified
        division   0.2659   50
        division   0.4451  110
        division   0.6052  194
        division   0.7543  302
  #      division   0.8014  434
  #      division   0.8507  590
  #      division   0.8762  770
  #      division   0.9023  974
  #      division   1.2339 1202
  #      outer_grid 974
        outer_grid 302
  ################################################################################
  #
  #  Definition of "minimal" basis
  #
  ################################################################################
  #     valence basis states
      valence      2  s   2.
      valence      2  p   4.
  #     ion occupancy
      ion_occ      2  s   1.
      ion_occ      2  p   3.
  ################################################################################
  #
  #  Suggested additional basis functions. For production calculations,
  #  uncomment them one after another (the most important basis functions are
  #  listed first).
  #
  #  Constructed for dimers: 1.0 A, 1.208 A, 1.5 A, 2.0 A, 3.0 A
  #
  ################################################################################
  #  "First tier" - improvements: -699.05 meV to -159.38 meV
       hydro 2 p 1.8
       hydro 3 d 7.6
       hydro 3 s 6.4
  #  "Second tier" - improvements: -49.91 meV to -5.39 meV
  #     hydro 4 f 11.6
  #     hydro 3 p 6.2
  #     hydro 3 d 5.6
  #     hydro 5 g 17.6
  #     hydro 1 s 0.75
  #  "Third tier" - improvements: -2.83 meV to -0.50 meV
  #     ionic 2 p auto
  #     hydro 4 f 10.8
  #     hydro 4 d 4.7
  #     hydro 2 s 6.8
  #  "Fourth tier" - improvements: -0.40 meV to -0.12 meV
  #     hydro 3 p 5
  #     hydro 3 s 3.3
  #     hydro 5 g 15.6
  #     hydro 4 f 17.6
  #     hydro 4 d 14
  # Further basis functions - -0.08 meV and below
  #     hydro 3 s 2.1
  #     hydro 4 d 11.6
  #     hydro 3 p 16
  #     hydro 2 s 17.2
  
  -----------------------------------------------------------------------
  Completed first pass over input file control.in .
  -----------------------------------------------------------------------
  
  
  -----------------------------------------------------------------------
  Parsing geometry.in (first pass over file, find array dimensions only).
  The contents of geometry.in will be repeated verbatim below
  unless switched off by setting 'verbatim_writeout .false.' .
  in the first line of geometry.in .
  -----------------------------------------------------------------------
  
  #=======================================================
  # FHI-aims file: /ada/ptmp/mpsd/alewis/bulk_water/qmdata/data/geoms/194.in
  # Created using the Atomic Simulation Environment (ASE)
  # Tue Feb 21 11:23:37 2023
  #=======================================================
  lattice_vector 9.8583300000000005 0.0000000000000000 0.0000000000000000
  lattice_vector 0.0000000000000000 9.8583300000000005 0.0000000000000000
  lattice_vector 0.0000000000000000 0.0000000000000000 9.8583300000000005
  atom 15.8956000000000000 12.9865999999999993 2.0330599999999999 O
  atom 15.1027000000000005 12.6762999999999995 1.5257200000000000 H
  atom 16.4937000000000005 13.4837000000000007 1.5406000000000000 H
  atom -3.8977200000000001 22.6456000000000017 8.6273599999999995 O
  atom -3.8601100000000002 21.7133000000000003 8.4736799999999999 H
  atom -3.0766100000000001 22.9318999999999988 8.7458399999999994 H
  atom -1.9487800000000000 5.0798100000000002 11.6313999999999993 O
  atom -1.3092400000000000 4.5758400000000004 11.1513000000000009 H
  atom -1.9510700000000001 5.8322399999999996 11.2850999999999999 H
  atom -3.7522000000000002 -3.3839399999999999 -3.2798900000000000 O
  atom -3.4562900000000001 -2.7182800000000000 -3.9788100000000002 H
  atom -4.5702900000000000 -2.9833400000000001 -3.1337600000000001 H
  atom -10.6815999999999995 12.0992999999999995 12.0998999999999999 O
  atom -11.5696999999999992 12.5452999999999992 12.1494000000000000 H
  atom -10.0202000000000009 12.7297999999999991 11.9743999999999993 H
  atom 8.2271300000000007 9.4556400000000007 6.9912400000000003 O
  atom 8.6041699999999999 8.7010600000000000 6.5764800000000001 H
  atom 7.6347899999999997 10.0307999999999993 6.2208600000000001 H
  atom -3.6129799999999999 10.3069000000000006 2.8841999999999999 O
  atom -3.7353700000000001 11.0973000000000006 2.4801500000000001 H
  atom -4.5535399999999999 9.9439600000000006 2.8279000000000001 H
  atom -10.8115000000000006 -12.0900999999999996 -4.8068600000000004 O
  atom -11.6100999999999992 -12.1927000000000003 -5.2830300000000001 H
  atom -10.4105000000000008 -13.0313999999999997 -4.7562300000000004 H
  atom 16.9126000000000012 -11.8899000000000008 -1.1153200000000001 O
  atom 16.5751999999999988 -12.7607999999999997 -1.5100600000000000 H
  atom 16.9701999999999984 -11.1327999999999996 -1.7573900000000000 H
  atom 11.1499000000000006 -2.1160800000000002 7.9091800000000001 O
  atom 11.9300999999999995 -2.1539299999999999 7.4631600000000002 H
  atom 10.6417000000000002 -1.3122600000000000 7.8335499999999998 H
  atom 3.9901000000000000 10.5225000000000009 -3.9238100000000000 O
  atom 4.9284200000000000 10.7065999999999999 -4.3350400000000002 H
  atom 3.8936799999999998 10.7171000000000003 -3.0429800000000000 H
  atom 10.7062000000000008 4.2663000000000002 -8.9237500000000001 O
  atom 10.6758000000000006 5.3097599999999998 -8.9879999999999995 H
  atom 10.5776000000000003 4.2745899999999999 -9.9381599999999999 H
  atom 13.2812000000000001 3.3252799999999998 -8.7361599999999999 O
  atom 13.5942000000000007 3.8440900000000000 -9.4461099999999991 H
  atom 12.2934000000000001 3.4725299999999999 -8.6857199999999999 H
  atom 6.3361599999999996 3.8435899999999998 5.8309800000000003 O
  atom 6.3037799999999997 3.4816600000000002 6.6787200000000002 H
  atom 6.4278000000000004 4.8741199999999996 5.8841400000000004 H
  atom 0.6371850000000000 -12.7850999999999999 -8.4047300000000007 O
  atom -0.3011230000000000 -12.3217999999999996 -8.6000700000000005 H
  atom 1.1636400000000000 -12.3145000000000007 -8.9820899999999995 H
  atom 2.3726900000000000 16.6347999999999985 13.6872000000000007 O
  atom 2.5497200000000002 15.7556999999999992 13.7577999999999996 H
  atom 1.5556399999999999 16.7408999999999999 13.4161999999999999 H
  atom -21.7607999999999997 -1.9247600000000000 1.4991800000000000 O
  atom -21.7336999999999989 -1.6265799999999999 0.6018130000000000 H
  atom -22.2967000000000013 -1.1343600000000000 1.7608600000000001 H
  atom 9.1203800000000008 13.6372999999999998 27.1062000000000012 O
  atom 10.0365000000000002 14.1893999999999991 27.3973000000000013 H
  atom 8.8572100000000002 13.8024000000000004 26.2699999999999996 H
  atom -5.8613999999999997 8.8231300000000008 12.7643000000000004 O
  atom -6.6556100000000002 9.5578699999999994 12.9037000000000006 H
  atom -6.3825500000000002 7.8941999999999997 12.9825999999999997 H
  atom -9.4095899999999997 1.4042600000000001 -2.0012599999999998 O
  atom -10.1587999999999994 0.9488630000000000 -2.0648800000000000 H
  atom -9.6731700000000007 2.3047300000000002 -2.3977200000000001 H
  atom 13.5016999999999996 -2.0915400000000002 6.1110400000000000 O
  atom 13.1846999999999994 -2.4960300000000002 5.2299899999999999 H
  atom 13.7815999999999992 -1.1496000000000000 5.8832100000000001 H
  atom 9.5344099999999994 30.1767000000000003 4.1934699999999996 O
  atom 9.3316300000000005 30.4252000000000002 3.3914800000000001 H
  atom 9.1856799999999996 29.2799000000000014 4.2267999999999999 H
  atom 2.9555899999999999 8.3240999999999996 10.0172000000000008 O
  atom 3.2399900000000001 9.3717199999999998 9.7550100000000004 H
  atom 2.1554899999999999 8.1983599999999992 9.4548900000000007 H
  atom -5.7858000000000001 5.6854399999999998 9.2837499999999995 O
  atom -4.8564699999999998 6.1254999999999997 9.2171800000000008 H
  atom -6.2313400000000003 6.5129599999999996 9.6613600000000002 H
  atom 3.1515300000000002 11.0386000000000006 8.9770599999999998 O
  atom 3.3938400000000000 11.8751999999999995 9.5420900000000000 H
  atom 2.3287200000000001 11.0642999999999994 8.6835900000000006 H
  atom -3.6859000000000002 -2.3115199999999998 4.0530900000000001 O
  atom -4.5507499999999999 -1.7272400000000001 3.7098000000000000 H
  atom -3.9741000000000000 -3.1493300000000000 3.8146700000000000 H
  atom -13.1550999999999991 0.9213209999999999 25.0797999999999988 O
  atom -13.2728999999999999 1.7896000000000001 24.8569999999999993 H
  atom -13.2791999999999994 0.5988160000000000 24.2104999999999997 H
  atom 12.1517999999999997 -8.9177199999999992 3.7855599999999998 O
  atom 12.5975000000000001 -8.9109900000000000 4.6615399999999996 H
  atom 11.1691000000000003 -8.9834899999999998 3.9714000000000000 H
  atom 1.5686500000000001 14.8917000000000002 -1.6859700000000000 O
  atom 1.2857600000000000 15.7904999999999998 -1.7509399999999999 H
  atom 2.5097000000000000 15.1280999999999999 -1.7170200000000000 H
  atom 12.0286000000000008 -6.0868000000000002 -5.9101100000000004 O
  atom 12.9738000000000007 -6.0676600000000001 -6.1058100000000000 H
  atom 11.9514999999999993 -7.0782400000000001 -6.1112000000000002 H
  atom 19.1768000000000001 -5.1301300000000003 14.5032999999999994 O
  atom 20.0808000000000000 -5.0939800000000002 14.2256000000000000 H
  atom 18.7007000000000012 -5.8304900000000002 14.0596999999999994 H
  atom 14.6771999999999991 4.9300600000000001 -6.2159700000000004 O
  atom 14.9107000000000003 4.4842899999999997 -5.4909600000000003 H
  atom 15.2308000000000003 4.3860999999999999 -6.8876700000000000 H
  
  -----------------------------------------------------------------------
  Completed first pass over input file geometry.in .
  -----------------------------------------------------------------------
  

  Basic array size parameters:
  | Number of species                 :        2
  | Number of atoms                   :       96
  | Number of lattice vectors         :        3
  | Max. basis fn. angular momentum   :        2
  | Max. atomic/ionic basis occupied n:        2
  | Max. number of basis fn. types    :        2
  | Max. radial fns per species/type  :        3
  | Max. logarithmic grid size        :     1301
  | Max. radial integration grid size :       36
  | Max. angular integration grid size:      302
  | Max. angular grid division number :        8
  | Radial grid for Hartree potential :     1301
  | Number of spin channels           :        1

------------------------------------------------------------
          Reading file control.in.
------------------------------------------------------------
  XC: Using Perdew-Wang parametrisation of Ceperley-Alder LDA.
  Spin treatment: No spin polarisation.
  Non-relativistic treatment of kinetic energy.
  Charge =   0.000000E+00: Neutral system requested explicitly.
  DFPT calculation will begin after the DFT/HF calculation.
  Convergence accuracy of self-consistent charge density:  0.1000E-05
  Found k-point grid:         1         1         1
  Threshold value for wave function integration:  0.1000E-07
 
  Reading configuration options for species H                   .
  | Found nuclear charge :   1.0000
  | Found atomic mass :    1.00794000000000      amu
  | Found l_max for Hartree potential  :   4
  | Found cutoff potl. onset [A], width [A], scale factor :    3.50000    1.50000    1.00000
  | Threshold for basis-dependent cutoff potential is   0.100000E-03
  | Found data for basic radial integration grid :    24 points, outermost radius =    5.000 A
  | Found multiplier for basic radial grid :   1
  | Found angular grid specification: user-specified.
  | Specified grid contains     5 separate shells.
  | Check grid settings after all constraints further below.
  | Found free-atom valence shell :  1 s   1.000
  | No ionic wave fns used. Skipping ion_occ.
  | Found hydrogenic basis function :  2 s   2.100
  | Found hydrogenic basis function :  2 p   3.500
  Species H                   : Missing cutoff potential type.
  Defaulting to exp(1/x)/(1-x)^2 type cutoff potential.
  Species H : No 'logarithmic' tag. Using default grid for free atom:
  | Default logarithmic grid data [bohr] : 0.1000E-03 0.1000E+03 0.1012E+01
  Species H : On-site basis accuracy parameter (for Gram-Schmidt orthonormalisation) not specified.
  Using default value basis_acc =  0.1000000E-03.
  Species H                   : Using default innermost maximum threshold i_radial=  2 for radial functions.
  Species H                   : Default cutoff onset for free atom density etc. : 0.35000000E+01 AA.
  Species H                   : Basic radial grid will be enhanced according to radial_multiplier =   1, to contain    24 grid points.
 
  Reading configuration options for species O                   .
  | Found nuclear charge :   8.0000
  | Found atomic mass :    15.9994000000000      amu
  | Found l_max for Hartree potential  :   4
  | Found cutoff potl. onset [A], width [A], scale factor :    3.50000    1.50000    1.00000
  | Threshold for basis-dependent cutoff potential is   0.100000E-03
  | Found data for basic radial integration grid :    36 points, outermost radius =    5.000 A
  | Found multiplier for basic radial grid :   1
  | Found angular grid specification: user-specified.
  | Specified grid contains     5 separate shells.
  | Check grid settings after all constraints further below.
  | Found free-atom valence shell :  2 s   2.000
  | Found free-atom valence shell :  2 p   4.000
  | No ionic wave fns used. Skipping ion_occ.
  | No ionic wave fns used. Skipping ion_occ.
  | Found hydrogenic basis function :  2 p   1.800
  | Found hydrogenic basis function :  3 d   7.600
  | Found hydrogenic basis function :  3 s   6.400
  Species O                   : Missing cutoff potential type.
  Defaulting to exp(1/x)/(1-x)^2 type cutoff potential.
  Species O : No 'logarithmic' tag. Using default grid for free atom:
  | Default logarithmic grid data [bohr] : 0.1000E-03 0.1000E+03 0.1012E+01
  Species O : On-site basis accuracy parameter (for Gram-Schmidt orthonormalisation) not specified.
  Using default value basis_acc =  0.1000000E-03.
  Species O                   : Using default innermost maximum threshold i_radial=  2 for radial functions.
  Species O                   : Default cutoff onset for free atom density etc. : 0.35000000E+01 AA.
  Species O                   : Basic radial grid will be enhanced according to radial_multiplier =   1, to contain    36 grid points.
 
  Finished reading input file 'control.in'.
 
------------------------------------------------------------


------------------------------------------------------------
          Reading geometry description geometry.in.
------------------------------------------------------------
  | The smallest distance between any two atoms is         0.82829937 AA.
  | The first atom of this pair is atom number                      7 .
  | The second atom of this pair is atom number                     9 .
  | Wigner-Seitz cell of the first atom image           0     0     0 .
  | (The Wigner-Seitz cell of the second atom is 0 0 0  by definition.)

  Symmetry information by spglib:
  | Precision set to  0.1E-04
  | Number of Operations  : 1
  | Space group           : 1
  | International         : P1       Vc
  | Schoenflies           : C1^1
  Input structure read successfully.
  The structure contains       96 atoms,  and a total of        320.000 electrons.

  Input geometry:
  | Unit cell:
  |        9.85833000        0.00000000        0.00000000
  |        0.00000000        9.85833000        0.00000000
  |        0.00000000        0.00000000        9.85833000
  | Atomic structure:
  |       Atom                x [A]            y [A]            z [A]
  |    1: Species O            15.89560000       12.98660000        2.03306000
  |    2: Species H            15.10270000       12.67630000        1.52572000
  |    3: Species H            16.49370000       13.48370000        1.54060000
  |    4: Species O            -3.89772000       22.64560000        8.62736000
  |    5: Species H            -3.86011000       21.71330000        8.47368000
  |    6: Species H            -3.07661000       22.93190000        8.74584000
  |    7: Species O            -1.94878000        5.07981000       11.63140000
  |    8: Species H            -1.30924000        4.57584000       11.15130000
  |    9: Species H            -1.95107000        5.83224000       11.28510000
  |   10: Species O            -3.75220000       -3.38394000       -3.27989000
  |   11: Species H            -3.45629000       -2.71828000       -3.97881000
  |   12: Species H            -4.57029000       -2.98334000       -3.13376000
  |   13: Species O           -10.68160000       12.09930000       12.09990000
  |   14: Species H           -11.56970000       12.54530000       12.14940000
  |   15: Species H           -10.02020000       12.72980000       11.97440000
  |   16: Species O             8.22713000        9.45564000        6.99124000
  |   17: Species H             8.60417000        8.70106000        6.57648000
  |   18: Species H             7.63479000       10.03080000        6.22086000
  |   19: Species O            -3.61298000       10.30690000        2.88420000
  |   20: Species H            -3.73537000       11.09730000        2.48015000
  |   21: Species H            -4.55354000        9.94396000        2.82790000
  |   22: Species O           -10.81150000      -12.09010000       -4.80686000
  |   23: Species H           -11.61010000      -12.19270000       -5.28303000
  |   24: Species H           -10.41050000      -13.03140000       -4.75623000
  |   25: Species O            16.91260000      -11.88990000       -1.11532000
  |   26: Species H            16.57520000      -12.76080000       -1.51006000
  |   27: Species H            16.97020000      -11.13280000       -1.75739000
  |   28: Species O            11.14990000       -2.11608000        7.90918000
  |   29: Species H            11.93010000       -2.15393000        7.46316000
  |   30: Species H            10.64170000       -1.31226000        7.83355000
  |   31: Species O             3.99010000       10.52250000       -3.92381000
  |   32: Species H             4.92842000       10.70660000       -4.33504000
  |   33: Species H             3.89368000       10.71710000       -3.04298000
  |   34: Species O            10.70620000        4.26630000       -8.92375000
  |   35: Species H            10.67580000        5.30976000       -8.98800000
  |   36: Species H            10.57760000        4.27459000       -9.93816000
  |   37: Species O            13.28120000        3.32528000       -8.73616000
  |   38: Species H            13.59420000        3.84409000       -9.44611000
  |   39: Species H            12.29340000        3.47253000       -8.68572000
  |   40: Species O             6.33616000        3.84359000        5.83098000
  |   41: Species H             6.30378000        3.48166000        6.67872000
  |   42: Species H             6.42780000        4.87412000        5.88414000
  |   43: Species O             0.63718500      -12.78510000       -8.40473000
  |   44: Species H            -0.30112300      -12.32180000       -8.60007000
  |   45: Species H             1.16364000      -12.31450000       -8.98209000
  |   46: Species O             2.37269000       16.63480000       13.68720000
  |   47: Species H             2.54972000       15.75570000       13.75780000
  |   48: Species H             1.55564000       16.74090000       13.41620000
  |   49: Species O           -21.76080000       -1.92476000        1.49918000
  |   50: Species H           -21.73370000       -1.62658000        0.60181300
  |   51: Species H           -22.29670000       -1.13436000        1.76086000
  |   52: Species O             9.12038000       13.63730000       27.10620000
  |   53: Species H            10.03650000       14.18940000       27.39730000
  |   54: Species H             8.85721000       13.80240000       26.27000000
  |   55: Species O            -5.86140000        8.82313000       12.76430000
  |   56: Species H            -6.65561000        9.55787000       12.90370000
  |   57: Species H            -6.38255000        7.89420000       12.98260000
  |   58: Species O            -9.40959000        1.40426000       -2.00126000
  |   59: Species H           -10.15880000        0.94886300       -2.06488000
  |   60: Species H            -9.67317000        2.30473000       -2.39772000
  |   61: Species O            13.50170000       -2.09154000        6.11104000
  |   62: Species H            13.18470000       -2.49603000        5.22999000
  |   63: Species H            13.78160000       -1.14960000        5.88321000
  |   64: Species O             9.53441000       30.17670000        4.19347000
  |   65: Species H             9.33163000       30.42520000        3.39148000
  |   66: Species H             9.18568000       29.27990000        4.22680000
  |   67: Species O             2.95559000        8.32410000       10.01720000
  |   68: Species H             3.23999000        9.37172000        9.75501000
  |   69: Species H             2.15549000        8.19836000        9.45489000
  |   70: Species O            -5.78580000        5.68544000        9.28375000
  |   71: Species H            -4.85647000        6.12550000        9.21718000
  |   72: Species H            -6.23134000        6.51296000        9.66136000
  |   73: Species O             3.15153000       11.03860000        8.97706000
  |   74: Species H             3.39384000       11.87520000        9.54209000
  |   75: Species H             2.32872000       11.06430000        8.68359000
  |   76: Species O            -3.68590000       -2.31152000        4.05309000
  |   77: Species H            -4.55075000       -1.72724000        3.70980000
  |   78: Species H            -3.97410000       -3.14933000        3.81467000
  |   79: Species O           -13.15510000        0.92132100       25.07980000
  |   80: Species H           -13.27290000        1.78960000       24.85700000
  |   81: Species H           -13.27920000        0.59881600       24.21050000
  |   82: Species O            12.15180000       -8.91772000        3.78556000
  |   83: Species H            12.59750000       -8.91099000        4.66154000
  |   84: Species H            11.16910000       -8.98349000        3.97140000
  |   85: Species O             1.56865000       14.89170000       -1.68597000
  |   86: Species H             1.28576000       15.79050000       -1.75094000
  |   87: Species H             2.50970000       15.12810000       -1.71702000
  |   88: Species O            12.02860000       -6.08680000       -5.91011000
  |   89: Species H            12.97380000       -6.06766000       -6.10581000
  |   90: Species H            11.95150000       -7.07824000       -6.11120000
  |   91: Species O            19.17680000       -5.13013000       14.50330000
  |   92: Species H            20.08080000       -5.09398000       14.22560000
  |   93: Species H            18.70070000       -5.83049000       14.05970000
  |   94: Species O            14.67720000        4.93006000       -6.21597000
  |   95: Species H            14.91070000        4.48429000       -5.49096000
  |   96: Species H            15.23080000        4.38610000       -6.88767000

  Lattice parameters for 3D lattice (in Angstroms) :     9.858330    9.858330    9.858330
  Angle(s) between unit vectors (in degrees)       :    90.000000   90.000000   90.000000


  Quantities derived from the lattice vectors (in Angstrom^-1):
  | Reciprocal lattice vector 1:  0.637348  0.000000  0.000000
  | Reciprocal lattice vector 2:  0.000000  0.637348  0.000000
  | Reciprocal lattice vector 3:  0.000000  0.000000  0.637348
  | Unit cell volume                               :   0.958098E+03  Angstrom^3

  Fractional coordinates:
                         L1                L2                L3
       atom_frac         1.61240291        1.31732251        0.20622763  O
       atom_frac         1.53197347        1.28584659        0.15476455  H
       atom_frac         1.67307242        1.36774687        0.15627393  H
       atom_frac        -0.39537325        2.29710306        0.87513402  O
       atom_frac        -0.39155821        2.20253329        0.85954518  H
       atom_frac        -0.31208227        2.32614449        0.88715229  H
       atom_frac        -0.19767851        0.51528099        1.17985501  O
       atom_frac        -0.13280545        0.46415975        1.13115507  H
       atom_frac        -0.19791080        0.59160527        1.14472735  H
       atom_frac        -0.38061213       -0.34325692       -0.33270239  O
       atom_frac        -0.35059589       -0.27573433       -0.40359878  H
       atom_frac        -0.46359678       -0.30262124       -0.31787940  H
       atom_frac        -1.08351009        1.22731741        1.22737827  O
       atom_frac        -1.17359634        1.27255833        1.23239940  H
       atom_frac        -1.01641962        1.29127347        1.21464792  H
       atom_frac         0.83453587        0.95915231        0.70917082  O
       atom_frac         0.87278170        0.88260993        0.66709879  H
       atom_frac         0.77445064        1.01749485        0.63102574  H
       atom_frac        -0.36649006        1.04550162        0.29256477  O
       atom_frac        -0.37890495        1.12567747        0.25157912  H
       atom_frac        -0.46189770        1.00868606        0.28685386  H
       atom_frac        -1.09668676       -1.22638418       -0.48759374  O
       atom_frac        -1.17769440       -1.23679163       -0.53589502  H
       atom_frac        -1.05601050       -1.32186689       -0.48245798  H
       atom_frac         1.71556440       -1.20607649       -0.11313478  O
       atom_frac         1.68133954       -1.29441802       -0.15317605  H
       atom_frac         1.72140718       -1.12927849       -0.17826447  H
       atom_frac         1.13101306       -0.21464893        0.80228396  O
       atom_frac         1.21015426       -0.21848832        0.75704100  H
       atom_frac         1.07946275       -0.13311179        0.79461227  H
       atom_frac         0.40474401        1.06737145       -0.39801975  O
       atom_frac         0.49992443        1.08604601       -0.43973371  H
       atom_frac         0.39496345        1.08711110       -0.30867094  H
       atom_frac         1.08600544        0.43276092       -0.90519895  O
       atom_frac         1.08292175        0.53860644       -0.91171628  H
       atom_frac         1.07296063        0.43360184       -1.00809772  H
       atom_frac         1.34720587        0.33730662       -0.88617038  O
       atom_frac         1.37895566        0.38993318       -0.95818562  H
       atom_frac         1.24700634        0.35224323       -0.88105389  H
       atom_frac         0.64272143        0.38988246        0.59147746  O
       atom_frac         0.63943690        0.35316935        0.67746971  H
       atom_frac         0.65201713        0.49441640        0.59686986  H
       atom_frac         0.06463417       -1.29688294       -0.85255109  O
       atom_frac        -0.03054503       -1.24988715       -0.87236581  H
       atom_frac         0.11803622       -1.24914666       -0.91111679  H
       atom_frac         0.24067870        1.68738519        1.38838931  O
       atom_frac         0.25863610        1.59821187        1.39555077  H
       atom_frac         0.15779955        1.69814766        1.36089987  H
       atom_frac        -2.20735155       -0.19524199        0.15207241  O
       atom_frac        -2.20460261       -0.16499549        0.06104614  H
       atom_frac        -2.26171167       -0.11506614        0.17861646  H
       atom_frac         0.92514452        1.38332760        2.74957320  O
       atom_frac         1.01807304        1.43933100        2.77910153  H
       atom_frac         0.89844933        1.40007486        2.66475153  H
       atom_frac        -0.59456318        0.89499236        1.29477305  O
       atom_frac        -0.67512550        0.96952222        1.30891338  H
       atom_frac        -0.64742710        0.80076443        1.31691676  H
       atom_frac        -0.95448113        0.14244400       -0.20300193  O
       atom_frac        -1.03047879        0.09624987       -0.20945535  H
       atom_frac        -0.98121791        0.23378503       -0.24321766  H
       atom_frac         1.36957274       -0.21215967        0.61988592  O
       atom_frac         1.33741719       -0.25318994        0.53051480  H
       atom_frac         1.39796497       -0.11661204        0.59677552  H
       atom_frac         0.96714251        3.06103569        0.42537326  O
       atom_frac         0.94657310        3.08624280        0.34402176  H
       atom_frac         0.93176836        2.97006694        0.42875416  H
       atom_frac         0.29980636        0.84437222        1.01611531  O
       atom_frac         0.32865506        0.95063971        0.98951952  H
       atom_frac         0.21864657        0.83161753        0.95907623  H
       atom_frac        -0.58689453        0.57671431        0.94171629  O
       atom_frac        -0.49262603        0.62135270        0.93496363  H
       atom_frac        -0.63208880        0.66065551        0.98001994  H
       atom_frac         0.31968193        1.11972312        0.91060656  O
       atom_frac         0.34426115        1.20458536        0.96792154  H
       atom_frac         0.23621851        1.12233005        0.88083783  H
       atom_frac        -0.37388686       -0.23447379        0.41113353  O
       atom_frac        -0.46161470       -0.17520615        0.37631120  H
       atom_frac        -0.40312102       -0.31945877        0.38694891  H
       atom_frac        -1.33441465        0.09345609        2.54402115  O
       atom_frac        -1.34636394        0.18153176        2.52142097  H
       atom_frac        -1.34700299        0.06074213        2.45584191  H
       atom_frac         1.23264285       -0.90458729        0.38399607  O
       atom_frac         1.27785335       -0.90390462        0.47285291  H
       atom_frac         1.13296065       -0.91125880        0.40284714  H
       atom_frac         0.15911924        1.51057025       -0.17101984  O
       atom_frac         0.13042371        1.60174188       -0.17761020  H
       atom_frac         0.25457659        1.53454997       -0.17416946  H
       atom_frac         1.22014581       -0.61742709       -0.59950418  O
       atom_frac         1.31602411       -0.61548558       -0.61935541  H
       atom_frac         1.21232501       -0.71799585       -0.61990215  H
       atom_frac         1.94523819       -0.52038530        1.47117210  O
       atom_frac         2.03693729       -0.51671835        1.44300302  H
       atom_frac         1.89694401       -0.59142776        1.42617462  H
       atom_frac         1.48881200        0.50009079       -0.63052971  O
       atom_frac         1.51249755        0.45487319       -0.55698683  H
       atom_frac         1.54496756        0.44491308       -0.69866499  H

 
  Finished reading input file 'geometry.in'.
 

 
  Consistency checks for stacksize environment parameter are next.
 
  | Maximum stacksize for task 0: unlimited
  | Maximum stacksize for task 1: unlimited
  | Maximum stacksize for task 2: unlimited
  | Maximum stacksize for task 3: unlimited
  | Maximum stacksize for task 4: unlimited
  | Maximum stacksize for task 5: unlimited
  | Maximum stacksize for task 6: unlimited
  | Maximum stacksize for task 7: unlimited
  | Maximum stacksize for task 8: unlimited
  | Maximum stacksize for task 9: unlimited
  | Maximum stacksize for task 10: unlimited
  | Maximum stacksize for task 11: unlimited
  | Maximum stacksize for task 12: unlimited
  | Maximum stacksize for task 13: unlimited
  | Maximum stacksize for task 14: unlimited
  | Maximum stacksize for task 15: unlimited
  | Maximum stacksize for task 16: unlimited
  | Maximum stacksize for task 17: unlimited
  | Current stacksize for task 0: unlimited
  | Current stacksize for task 1: unlimited
  | Current stacksize for task 2: unlimited
  | Current stacksize for task 3: unlimited
  | Current stacksize for task 4: unlimited
  | Current stacksize for task 5: unlimited
  | Current stacksize for task 6: unlimited
  | Current stacksize for task 7: unlimited
  | Current stacksize for task 8: unlimited
  | Current stacksize for task 9: unlimited
  | Current stacksize for task 10: unlimited
  | Current stacksize for task 11: unlimited
  | Current stacksize for task 12: unlimited
  | Current stacksize for task 13: unlimited
  | Current stacksize for task 14: unlimited
  | Current stacksize for task 15: unlimited
  | Current stacksize for task 16: unlimited
  | Current stacksize for task 17: unlimited
 
  Consistency checks for the contents of control.in are next.
 
  MPI_IN_PLACE appears to work with this MPI implementation.
  | Keeping use_mpi_in_place .true. (see manual).
  Explicit treatment of the Coulomb operator is needed, but the RI method is not specified.
  Coulomb operator: Defaulting to 'LVL fast' resolution of identity - RI_type = LVL_fast
  Species H: Using default value for prodbas_acc =   1.000000E-06.
  Species H: Using default value max_l_prodbas =     6.
  Species O: Using default value for prodbas_acc =   1.000000E-06.
  Species O: Using default value max_l_prodbas =     6.
  Target number of points in a grid batch is not set.  Since GPU acceleration is enabled, defaulting to  200
  Method for grid partitioning is not set. Defaulting to parallel hash+maxmin partitioning.
  Batch size limit is not set. Defaulting to    200
  By default, will store active basis functions for each batch.
  If in need of memory, prune_basis_once .false. can be used to disable this option.
  communication_type for Hartree potential was not specified.
  Defaulting to calc_hartree .
  Defaulting to Pulay charge density mixer.
  Pulay mixer: Number of relevant iterations not set.
  Defaulting to    8 iterations.
  Pulay mixer: Number of initial linear mixing iterations not set.
  Defaulting to    0 iterations.
  Work space size for distributed Hartree potential not set.
  Defaulting to   0.200000E+03 MB.
  Mixing parameter for charge density mixing has not been set.
  Using default: charge_mix_param =     0.0500.
  The mixing parameter will be adjusted in iteration number     2 of the first full s.c.f. cycle only.
  Algorithm-dependent basis array size parameters:
  | n_max_pulay                         :        8
  Maximum number of self-consistency iterations not provided.
  Presetting  1000 iterations.
  Presetting      1001 iterations before the initial mixing cycle
  is restarted anyway using the sc_init_iter criterion / keyword.
  Presetting a factor      1.000 between actual scf density residual
  and density convergence criterion sc_accuracy_rho below which sc_init_iter
  takes no effect.
  Calculation of forces was not defined in control.in. No forces will be calculated.
  Geometry relaxation not requested: no relaxation will be performed.
  No accuracy limit for integral partition fn. given. Defaulting to  0.1000E-14.
  No occupation type (smearing scheme) given. Defaulting to Gaussian broadening, width =  0.1000E-01 eV.
  The width will be adjusted in iteration number     2 of the first full s.c.f. cycle only.
  S.C.F. convergence parameters will be adjusted in iteration number     2 of the first full s.c.f. cycle only.
  No accuracy for occupation numbers given. Defaulting to  0.1000E-12.
  No threshold value for occupation numbers given. Defaulting to  0.0000E+00.
  No accuracy for fermi level given. Defaulting to  0.1000E-19.
  Maximum # of iterations to find E_F not set. Defaulting to  200.
  Preferred method for the eigenvalue solver ('KS_method') not specified in 'control.in'.
  Calling BLACS routine to test compilation state
  Since ScaLAPACK support is enabled, defaulting to ELPA (via ELSI).
  Will not use alltoall communication since running on < 1024 CPUs.
  Threshold for basis singularities not set.
  Default threshold for basis singularities:  0.1000E-04
  partition_type (choice of integration weights) for integrals was not specified.
  | Using a version of the partition function of Stratmann and coworkers ('stratmann_sparse').
  | At each grid point, the set of atoms used to build the partition table is smoothly restricted to
  | only those atoms whose free-atom density would be non-zero at that grid point.
  Partitioning for Hartree potential was not defined. Using partition_type for integrals.
  | Adjusted default value of keyword multip_moments_threshold to:       0.10000000E-11
  | This value may affect high angular momentum components of the Hartree potential in periodic systems.
  Angular momentum expansion for Kerker preconditioner not set explicitly.
  | Using default value of   0
  No explicit requirement for turning off preconditioner.
  | By default, it will be turned off when the charge convergence reaches
  | sc_accuracy_rho  =   0.100000E-05
  No special mixing parameter while Kerker preconditioner is on.
  Using default: charge_mix_param =     0.0500.
  Threshold for auxiliary basis singularities not set.
  Default threshold for auxiliary basis singularities:  0.1000E-04
  No q(lm)/r^(l+1) cutoff set for long-range Hartree potential.
  | Using default value of  0.100000E-09 .
  | Verify using the multipole_threshold keyword.
  Defaulting to new monopole extrapolation.
  Density update method: automatic selection selected.
  Using density matrix based charge density update.
  Using density matrix based charge density update.
  Using packed matrix style: index .
  Defaulting to use time-reversal symmetry for k-point grid.
  Charge integration errors on the 3D integration grid will be compensated
  by explicit normalization and distribution of residual charges.
  Use the "compensate_multipole_errors" flag to change this behaviour.
  Default to 1D ("use_logsbt") integrations for auxiliary 2-center integrals.
  Default onset of logarithmic r-grid for SBT is -38.000000000000
  Default onset of logarithmic k-grid for SBT is -25.000000000000
  Default range of logarithmic r- and k-grid for SBT is  45.000000000000
  Default number of logarithmic r- and k-grid for SBT is   4096
  Default of use_2d_corr is to use the efficient 2D distribution where possible
 
  Consistency checks for the contents of geometry.in are next.
 

  Range separation radius for Ewald summation (hartree_convergence_parameter):      2.97371909 bohr.
  Number of empty states per atom not set in control.in .
  | Since you are using a method that relies on the unoccupied spectrum
  | (MP2,GW,RPA et al.), will use the full Hamiltonian size (see below)
  | as the max. possible number of states (occupied plus empty).

  Structure-dependent array size parameters: 
  | Maximum number of distinct radial functions  :        9
  | Maximum number of basis functions            :      768
  | Number of Kohn-Sham states (occupied + empty):      768
------------------------------------------------------------

  Performing system and environment tests:
  | Environment variable OMP_NUM_THREADS correctly set to 1.
  | Checking for ScaLAPACK...
  | Testing pdtran()...
  | All pdtran() tests passed.
CUDA runtime version: 11060
CUDA driver version: 11060
  Initializing GPUs...

  Number of GPUs available to MPI task         0 :   1
  Number of GPUs available to MPI task         1 :   1
  Number of GPUs available to MPI task         2 :   1
  Number of GPUs available to MPI task         3 :   1
  Number of GPUs available to MPI task         4 :   1
  Number of GPUs available to MPI task         5 :   1
  Number of GPUs available to MPI task         6 :   1
  Number of GPUs available to MPI task         7 :   1
  Number of GPUs available to MPI task         8 :   1
  Number of GPUs available to MPI task         9 :   1
  Number of GPUs available to MPI task        10 :   1
  Number of GPUs available to MPI task        11 :   1
  Number of GPUs available to MPI task        12 :   1
  Number of GPUs available to MPI task        13 :   1
  Number of GPUs available to MPI task        14 :   1
  Number of GPUs available to MPI task        15 :   1
  Number of GPUs available to MPI task        16 :   1
  Number of GPUs available to MPI task        17 :   1

  | MPI task         0, GPU activated = T, Device Name = NVIDIA A100-SXM4-80GB
  | MPI task         1, GPU activated = T, Device Name = NVIDIA A100-SXM4-80GB
  | MPI task         2, GPU activated = T, Device Name = NVIDIA A100-SXM4-80GB
  | MPI task         3, GPU activated = T, Device Name = NVIDIA A100-SXM4-80GB
  | MPI task         4, GPU activated = T, Device Name = NVIDIA A100-SXM4-80GB
  | MPI task         5, GPU activated = T, Device Name = NVIDIA A100-SXM4-80GB
  | MPI task         6, GPU activated = T, Device Name = NVIDIA A100-SXM4-80GB
  | MPI task         7, GPU activated = T, Device Name = NVIDIA A100-SXM4-80GB
  | MPI task         8, GPU activated = T, Device Name = NVIDIA A100-SXM4-80GB
  | MPI task         9, GPU activated = T, Device Name = NVIDIA A100-SXM4-80GB
  | MPI task        10, GPU activated = T, Device Name = NVIDIA A100-SXM4-80GB
  | MPI task        11, GPU activated = T, Device Name = NVIDIA A100-SXM4-80GB
  | MPI task        12, GPU activated = T, Device Name = NVIDIA A100-SXM4-80GB
  | MPI task        13, GPU activated = T, Device Name = NVIDIA A100-SXM4-80GB
  | MPI task        14, GPU activated = T, Device Name = NVIDIA A100-SXM4-80GB
  | MPI task        15, GPU activated = T, Device Name = NVIDIA A100-SXM4-80GB
  | MPI task        16, GPU activated = T, Device Name = NVIDIA A100-SXM4-80GB
  | MPI task        17, GPU activated = T, Device Name = NVIDIA A100-SXM4-80GB

------------------------------------------------------------
          Preparing all fixed parts of the calculation.
------------------------------------------------------------
  Determining machine precision:
    2.225073858507201E-308
  Setting up grids for atomic and cluster calculations.

  Creating wave function, potential, and density for free atoms.
  Runtime choices for atomic solver:
  | atomic solver xc        : PW-LDA
  | compute density gradient: 0
  | compute kinetic density : F

  Species: H

  List of occupied orbitals and eigenvalues:
    n    l              occ      energy [Ha]    energy [eV]
    1    0           1.0000        -0.232375        -6.3233


  Species: O

  List of occupied orbitals and eigenvalues:
    n    l              occ      energy [Ha]    energy [eV]
    1    0           2.0000       -18.757744      -510.4242
    2    0           2.0000        -0.870917       -23.6989
    2    1           4.0000        -0.337950        -9.1961


  Adding cutoff potential to free-atom effective potential.
  Creating fixed part of basis set: Ionic, confined, hydrogenic.
 
  H                    hydrogenic:
 
  List of hydrogenic basis orbitals: 
    n    l      effective z      eigenvalue [eV]  inner max. [A]     outer max. [A]     outer radius [A]   
    2    0         2.100000       -14.9728           0.193243           1.317208           4.696947
    2    1         3.500000       -41.6669           0.602369           0.602369           3.862494
 
 
  O                    hydrogenic:
 
  List of hydrogenic basis orbitals: 
    n    l      effective z      eigenvalue [eV]  inner max. [A]     outer max. [A]     outer radius [A]   
    2    1         1.800000       -10.9749           1.164242           1.164242           4.691341
    3    2         7.600000       -87.3180           0.624125           0.624125           3.413946
    3    0         6.400000       -61.9207           0.061167           1.081902           4.151495
 
  Creating atomic-like basis functions for current effective potential.

  Species H                   :

  List of atomic basis orbitals and eigenvalues:
    n    l      energy [Ha]    energy [eV]    outer radius [A]
    1    0        -0.232375        -6.3233       4.696947


  Species O                   :

  List of atomic basis orbitals and eigenvalues:
    n    l      energy [Ha]    energy [eV]    outer radius [A]
    1    0       -18.757744      -510.4242       1.830144
    2    0        -0.870917       -23.6989       4.578029
    2    1        -0.337950        -9.1961       4.634338

  Assembling full basis from fixed parts.
  | Species H :   atomic orbital   1 s accepted.
  | Species H :    hydro orbital   2 s accepted.
  | Species H :    hydro orbital   2 p accepted.
  | Species O :   atomic orbital   1 s accepted.
  | Species O :    hydro orbital   3 s accepted.
  | Species O :   atomic orbital   2 s accepted.
  | Species O :   atomic orbital   2 p accepted.
  | Species O :    hydro orbital   2 p accepted.
  | Species O :    hydro orbital   3 d accepted.
 
  Basis size parameters after reduction:
  | Total number of radial functions:        9
  | Total number of basis functions :      768
 
  Per-task memory consumption for arrays in subroutine allocate_ext:
  |           2.268304MB.
  Testing on-site integration grid accuracy.
  |  Species  Function  <phi|h_atom|phi> (log., in eV)  <phi|h_atom|phi> (rad., in eV)
           1        1                 -6.3245358373                 -6.3232436907
           1        2                 14.1326137532                 14.1384481100
           1        3                 25.3627025200                 25.3628451197
           2        4               -510.4241781764               -510.4240769407
           2        5                 14.9072942213                 14.9072945271
           2        6                -21.2004736474                -21.2005650551
           2        7                 -9.1962086505                 -9.1963509834
           2        8                  8.1896755006                  8.1702200081
           2        9                 45.7920584937                 45.7920228520

  Preparing densities etc. for the partition functions (integrals / Hartree potential).

  Preparations completed.
  max(cpu_time)          :      0.070 s.
  Wall clock time (cpu1) :      0.066 s.
------------------------------------------------------------

  Initializing index lists of integration centers etc. from given atomic structure:
  Mapping all atomic coordinates to central unit cell.

  Initializing the k-points
  Using symmetry for reducing the k-points
  | k-points reduced from:        1 to        1
  | Number of k-points                             :         1
  | Consuming          0 KiB for k_phase_exx.
  The eigenvectors in the calculations are REAL.
  | Number of basis functions in the Hamiltonian integrals :      4630
  | Number of basis functions in a single unit cell        :       768
  | Number of centers in hartree potential         :      2617
  | Number of centers in hartree multipole         :      1918
  | Number of centers in electron density summation:      1494
  | Number of centers in basis integrals           :      1601
  | Number of centers in integrals                 :       705
  | Number of centers in hamiltonian               :      1494
  | Consuming          0 KiB for k_phase.
  | Number of super-cells (origin) [n_cells]                     :         125
  | Number of super-cells (after PM_index) [n_cells]             :          28
  | Number of super-cells in hamiltonian [n_cells_in_hamiltonian]:          28
  | Size of matrix packed + index [n_hamiltonian_matrix_size] :      789673
  | Size of matrix packed + index (no_symmetry):     1578577

------------------------------------------------------------
          Begin self-consistency loop: Initialization.

          Date     :  20230221, Time     :  143549.605
------------------------------------------------------------
  | Estimated reciprocal-space cutoff momentum G_max:         3.17949183 bohr^-1 .
  | Reciprocal lattice points for long-range Hartree potential:    3430
  Using simple linear distribution as default method for k-point parallelism.
  * Using 18 tasks for Scalapack Eigenvalue solver.
  Detailed listing of tasks and assigned k-points:
   Task     0 k-point     1 on adag040
   Task     1 k-point     1 on adag040
   Task     2 k-point     1 on adag040
   Task     3 k-point     1 on adag040
   Task     4 k-point     1 on adag040
   Task     5 k-point     1 on adag040
   Task     6 k-point     1 on adag040
   Task     7 k-point     1 on adag040
   Task     8 k-point     1 on adag040
   Task     9 k-point     1 on adag040
   Task    10 k-point     1 on adag040
   Task    11 k-point     1 on adag040
   Task    12 k-point     1 on adag040
   Task    13 k-point     1 on adag040
   Task    14 k-point     1 on adag040
   Task    15 k-point     1 on adag040
   Task    16 k-point     1 on adag040
   Task    17 k-point     1 on adag040
  K-point:     1 Tasks:    18 split into      6 X      3 BLACS grid
  Calculating block size based on n_basis =          768  max_nprow =            6  max_npcol =            3
  ScaLAPACK block size set to:           16
  Allocating        0.250 MB for ovlp
  Allocating        0.250 MB for ham
  Allocating        0.250 MB for eigenvec
  Required Scalapack workspace - INTEGER:            1  REAL:             1
  Partitioning the integration grid into batches with parallel hashing+maxmin method.
  | Number of batches:     4224
  | Maximal batch size:     187
  | Minimal batch size:      99
  | Average batch size:     120.636
  | Standard deviation of batch sizes:      15.671

  Integration load balanced across    18 MPI tasks.
  Work distribution over tasks is as follows:
  Task     0 has      28287 integration points.
  Task     1 has      28310 integration points.
  Task     2 has      28248 integration points.
  Task     3 has      28338 integration points.
  Task     4 has      28347 integration points.
  Task     5 has      28327 integration points.
  Task     6 has      28357 integration points.
  Task     7 has      28251 integration points.
  Task     8 has      28333 integration points.
  Task     9 has      28243 integration points.
  Task    10 has      28345 integration points.
  Task    11 has      28330 integration points.
  Task    12 has      28310 integration points.
  Task    13 has      28338 integration points.
  Task    14 has      28296 integration points.
  Task    15 has      28284 integration points.
  Task    16 has      28294 integration points.
  Task    17 has      28330 integration points.
  Initializing partition tables, free-atom densities, potentials, etc. across the integration grid (initialize_grid_storage).
  | initialize_grid_storage: Actual outermost partition radius vs. multipole_radius_free
  | (-- VB: in principle, multipole_radius_free should be larger, hence this output)
  | Species        1: Confinement radius =              4.999999999999999 AA, multipole_radius_free =              5.054417573612229 AA.
  | Species        1: outer_partition_radius set to              5.054417573612229 AA .
  | Species        2: Confinement radius =              4.999999999999999 AA, multipole_radius_free =              5.048384829883283 AA.
  | Species        2: outer_partition_radius set to              5.048384829883283 AA .
  | The sparse table of interatomic distances needs       5374.20 kbyte instead of     20505.61 kbyte of memory.
  | Net number of integration points:   509568
  | of which are non-zero points    :   405250
  | Numerical average free-atom electrostatic potential    :     -5.43918673 eV
  Renormalizing the initial density to the exact electron count on the 3D integration grid.
  | Initial density: Formal number of electrons (from input files) :     320.0000000000
  | Integrated number of electrons on 3D grid     :     319.9974096742
  | Charge integration error                      :      -0.0025903258
  | Normalization factor for density and gradient :       1.0000080948
  Renormalizing the free-atom superposition density to the exact electron count on the 3D integration grid.
  | Formal number of electrons (from input files) :     320.0000000000
  | Integrated number of electrons on 3D grid     :     319.9974096742
  | Charge integration error                      :      -0.0025903258
  | Normalization factor for density and gradient :       1.0000080948
  Obtaining max. number of non-zero basis functions in each batch (get_n_compute_maxes).
  | Maximal number of non-zero basis functions:      422 in task     0
  | Maximal number of non-zero basis functions:      413 in task     1
  | Maximal number of non-zero basis functions:      423 in task     2
  | Maximal number of non-zero basis functions:      419 in task     3
  | Maximal number of non-zero basis functions:      423 in task     4
  | Maximal number of non-zero basis functions:      419 in task     5
  | Maximal number of non-zero basis functions:      417 in task     6
  | Maximal number of non-zero basis functions:      424 in task     7
  | Maximal number of non-zero basis functions:      419 in task     8
  | Maximal number of non-zero basis functions:      439 in task     9
  | Maximal number of non-zero basis functions:      412 in task    10
  | Maximal number of non-zero basis functions:      424 in task    11
  | Maximal number of non-zero basis functions:      408 in task    12
  | Maximal number of non-zero basis functions:      425 in task    13
  | Maximal number of non-zero basis functions:      429 in task    14
  | Maximal number of non-zero basis functions:      423 in task    15
  | Maximal number of non-zero basis functions:      424 in task    16
  | Maximal number of non-zero basis functions:      415 in task    17
  Integrating Hamiltonian matrix: batch-based integration.
  GPU acceleration will be used when integrating the Hamiltonian matrix.
  Reporting GPU memory usage by myid 0.  Note that it is likely not the only MPI task binding to its GPU!
  Allocating        1.425 MB on GPU for hamiltonian_shell
  Allocating        0.631 MB on GPU for wave
  Allocating        0.001 MB on GPU for partition
  Allocating        0.631 MB on GPU for h_times_psi
  Time summed over all CPUs for integration: real work       12.297 s, elapsed       12.530 s
  Deallocating memory used on GPU for Hamiltonian integration.
  Integrating overlap matrix.
  Time summed over all CPUs for integration: real work        9.800 s, elapsed       10.204 s
  Deallocating overlap matrix.

  Updating Kohn-Sham eigenvalues and eigenvectors using ELSI and the ELPA eigensolver.
  Singularity check in k-point 1 (analysis for other k-points may follow below):
  Overlap matrix is not singular
  | Lowest and highest eigenvalues :  0.2285E-02,  0.7504E+01
  Finished singularity check of overlap matrix
  | Time :     0.137 s
  Starting ELPA eigensolver (GPU)
  Finished Cholesky decomposition
  | Time :     0.006 s
  Finished transformation to standard eigenproblem
  | Time :     0.027 s
  Finished solving standard eigenproblem
  | Time :     0.177 s
  Finished back-transformation of eigenvectors
  | Time :     0.019 s

  Obtaining occupation numbers and electronic chemical potential using ELSI.
  | Note that, for insulating systems, the printed 'chemical potential' value is not uniquely defined.
  | It can be anywhere in the energy gap, as long as it correctly separates occupied and unoccupied states.
  | In systems with a gap, the physically relevant chemical potential is the VBM or HOMO.

  | Chemical potential (Fermi level):    -9.15164058 eV
  Writing Kohn-Sham eigenvalues.

  State    Occupation    Eigenvalue [Ha]    Eigenvalue [eV]
      1       2.00000         -18.919414         -514.82346
      2       2.00000         -18.916377         -514.74081
      3       2.00000         -18.904857         -514.42733
      4       2.00000         -18.903089         -514.37923
      5       2.00000         -18.899074         -514.26997
      6       2.00000         -18.895310         -514.16753
      7       2.00000         -18.886366         -513.92416
      8       2.00000         -18.884313         -513.86830
      9       2.00000         -18.884245         -513.86646
     10       2.00000         -18.883571         -513.84810
     11       2.00000         -18.883354         -513.84222
     12       2.00000         -18.882137         -513.80909
     13       2.00000         -18.880024         -513.75160
     14       2.00000         -18.878521         -513.71069
     15       2.00000         -18.878194         -513.70180
     16       2.00000         -18.877327         -513.67819
     17       2.00000         -18.875703         -513.63402
     18       2.00000         -18.874361         -513.59750
     19       2.00000         -18.871088         -513.50844
     20       2.00000         -18.870609         -513.49539
     21       2.00000         -18.870334         -513.48792
     22       2.00000         -18.870117         -513.48200
     23       2.00000         -18.867467         -513.40991
     24       2.00000         -18.864628         -513.33264
     25       2.00000         -18.864069         -513.31743
     26       2.00000         -18.858614         -513.16899
     27       2.00000         -18.855987         -513.09752
     28       2.00000         -18.855728         -513.09046
     29       2.00000         -18.852872         -513.01276
     30       2.00000         -18.851153         -512.96599
     31       2.00000         -18.845939         -512.82408
     32       2.00000         -18.838720         -512.62766
     33       2.00000          -1.173383          -31.92937
     34       2.00000          -1.172406          -31.90279
     35       2.00000          -1.166796          -31.75013
     36       2.00000          -1.156093          -31.45890
     37       2.00000          -1.143709          -31.12191
     38       2.00000          -1.136109          -30.91511
     39       2.00000          -1.131740          -30.79621
     40       2.00000          -1.127710          -30.68654
     41       2.00000          -1.126175          -30.64477
     42       2.00000          -1.122721          -30.55079
     43       2.00000          -1.121188          -30.50906
     44       2.00000          -1.118862          -30.44580
     45       2.00000          -1.115205          -30.34628
     46       2.00000          -1.113985          -30.31308
     47       2.00000          -1.111665          -30.24993
     48       2.00000          -1.107994          -30.15004
     49       2.00000          -1.106350          -30.10533
     50       2.00000          -1.106036          -30.09677
     51       2.00000          -1.103044          -30.01536
     52       2.00000          -1.099766          -29.92616
     53       2.00000          -1.097272          -29.85829
     54       2.00000          -1.095640          -29.81389
     55       2.00000          -1.093052          -29.74347
     56       2.00000          -1.091042          -29.68876
     57       2.00000          -1.087520          -29.59294
     58       2.00000          -1.078864          -29.35738
     59       2.00000          -1.073190          -29.20299
     60       2.00000          -1.071764          -29.16417
     61       2.00000          -1.071490          -29.15673
     62       2.00000          -1.065807          -29.00208
     63       2.00000          -1.056899          -28.75969
     64       2.00000          -1.041067          -28.32887
     65       2.00000          -0.721616          -19.63618
     66       2.00000          -0.713492          -19.41511
     67       2.00000          -0.700208          -19.05363
     68       2.00000          -0.688376          -18.73166
     69       2.00000          -0.687475          -18.70714
     70       2.00000          -0.684084          -18.61486
     71       2.00000          -0.678947          -18.47510
     72       2.00000          -0.671840          -18.28171
     73       2.00000          -0.670669          -18.24984
     74       2.00000          -0.668545          -18.19204
     75       2.00000          -0.665491          -18.10892
     76       2.00000          -0.663900          -18.06563
     77       2.00000          -0.659378          -17.94259
     78       2.00000          -0.656235          -17.85706
     79       2.00000          -0.651636          -17.73193
     80       2.00000          -0.650701          -17.70646
     81       2.00000          -0.645922          -17.57645
     82       2.00000          -0.644303          -17.53237
     83       2.00000          -0.641592          -17.45862
     84       2.00000          -0.641347          -17.45193
     85       2.00000          -0.638781          -17.38211
     86       2.00000          -0.638345          -17.37026
     87       2.00000          -0.632210          -17.20331
     88       2.00000          -0.631022          -17.17098
     89       2.00000          -0.628679          -17.10722
     90       2.00000          -0.621172          -16.90294
     91       2.00000          -0.619884          -16.86791
     92       2.00000          -0.613604          -16.69701
     93       2.00000          -0.600871          -16.35053
     94       2.00000          -0.598334          -16.28149
     95       2.00000          -0.592380          -16.11947
     96       2.00000          -0.587243          -15.97968
     97       2.00000          -0.581710          -15.82914
     98       2.00000          -0.571817          -15.55994
     99       2.00000          -0.569814          -15.50543
    100       2.00000          -0.562772          -15.31382
    101       2.00000          -0.560695          -15.25730
    102       2.00000          -0.556815          -15.15170
    103       2.00000          -0.554029          -15.07590
    104       2.00000          -0.551553          -15.00851
    105       2.00000          -0.550642          -14.98374
    106       2.00000          -0.547908          -14.90934
    107       2.00000          -0.547071          -14.88655
    108       2.00000          -0.544293          -14.81096
    109       2.00000          -0.539709          -14.68622
    110       2.00000          -0.539083          -14.66918
    111       2.00000          -0.536826          -14.60777
    112       2.00000          -0.534921          -14.55595
    113       2.00000          -0.533407          -14.51475
    114       2.00000          -0.527280          -14.34803
    115       2.00000          -0.525592          -14.30207
    116       2.00000          -0.523939          -14.25711
    117       2.00000          -0.522431          -14.21606
    118       2.00000          -0.521041          -14.17824
    119       2.00000          -0.518885          -14.11957
    120       2.00000          -0.515437          -14.02574
    121       2.00000          -0.514900          -14.01115
    122       2.00000          -0.511876          -13.92885
    123       2.00000          -0.509653          -13.86836
    124       2.00000          -0.506389          -13.77955
    125       2.00000          -0.504101          -13.71729
    126       2.00000          -0.502515          -13.67414
    127       2.00000          -0.499191          -13.58369
    128       2.00000          -0.491759          -13.38145
    129       2.00000          -0.488387          -13.28968
    130       2.00000          -0.485840          -13.22038
    131       2.00000          -0.479952          -13.06015
    132       2.00000          -0.476233          -12.95895
    133       2.00000          -0.475235          -12.93180
    134       2.00000          -0.474440          -12.91017
    135       2.00000          -0.472787          -12.86518
    136       2.00000          -0.471553          -12.83162
    137       2.00000          -0.469020          -12.76267
    138       2.00000          -0.465394          -12.66402
    139       2.00000          -0.464531          -12.64052
    140       2.00000          -0.464227          -12.63227
    141       2.00000          -0.462814          -12.59381
    142       2.00000          -0.462569          -12.58714
    143       2.00000          -0.460592          -12.53336
    144       2.00000          -0.460057          -12.51877
    145       2.00000          -0.458485          -12.47601
    146       2.00000          -0.457882          -12.45960
    147       2.00000          -0.456505          -12.42212
    148       2.00000          -0.455701          -12.40026
    149       2.00000          -0.454569          -12.36946
    150       2.00000          -0.452978          -12.32615
    151       2.00000          -0.450831          -12.26773
    152       2.00000          -0.448337          -12.19988
    153       2.00000          -0.445409          -12.12020
    154       2.00000          -0.445252          -12.11591
    155       2.00000          -0.442454          -12.03979
    156       2.00000          -0.442252          -12.03429
    157       2.00000          -0.441733          -12.02017
    158       2.00000          -0.437267          -11.89865
    159       2.00000          -0.436210          -11.86988
    160       2.00000          -0.426455          -11.60444
    161       0.00000          -0.172700           -4.69940
    162       0.00000          -0.117953           -3.20966
    163       0.00000          -0.112390           -3.05828
    164       0.00000          -0.108495           -2.95229
    165       0.00000          -0.105027           -2.85793
    166       0.00000          -0.100512           -2.73507
    167       0.00000          -0.095460           -2.59760
    168       0.00000          -0.067515           -1.83718
    169       0.00000          -0.065649           -1.78640
    170       0.00000          -0.061556           -1.67502
    171       0.00000          -0.059912           -1.63028
    172       0.00000          -0.054822           -1.49179
    173       0.00000          -0.053870           -1.46588
    174       0.00000          -0.049468           -1.34608
    175       0.00000          -0.045538           -1.23914
    176       0.00000          -0.038693           -1.05290
    177       0.00000          -0.032767           -0.89163
    178       0.00000          -0.027798           -0.75641
    179       0.00000          -0.023788           -0.64732
    180       0.00000          -0.017934           -0.48800
    181       0.00000          -0.011788           -0.32077
    182       0.00000          -0.001812           -0.04930
    183       0.00000           0.003364            0.09153
    184       0.00000           0.010890            0.29633
    185       0.00000           0.012266            0.33378
    186       0.00000           0.016629            0.45249
    187       0.00000           0.024351            0.66261
    188       0.00000           0.026517            0.72158
    189       0.00000           0.034604            0.94162
    190       0.00000           0.036069            0.98150
    191       0.00000           0.038552            1.04906
    192       0.00000           0.041852            1.13886
    193       0.00000           0.047184            1.28395
    194       0.00000           0.048903            1.33073
    195       0.00000           0.051847            1.41083
    196       0.00000           0.054935            1.49487
    197       0.00000           0.058217            1.58418
    198       0.00000           0.060689            1.65142
    199       0.00000           0.062480            1.70017
    200       0.00000           0.063122            1.71764
    201       0.00000           0.066564            1.81131
    202       0.00000           0.068552            1.86540
    203       0.00000           0.072788            1.98065
    204       0.00000           0.075216            2.04672
    205       0.00000           0.078535            2.13704
    206       0.00000           0.080394            2.18763
    207       0.00000           0.082938            2.25685
    208       0.00000           0.084554            2.30084
    209       0.00000           0.087114            2.37049
    210       0.00000           0.089565            2.43717
    211       0.00000           0.093471            2.54348
    212       0.00000           0.094574            2.57348
    213       0.00000           0.095568            2.60055
    214       0.00000           0.096508            2.62611
    215       0.00000           0.099503            2.70760
    216       0.00000           0.100588            2.73714
    217       0.00000           0.105832            2.87985
    218       0.00000           0.110346            3.00267
    219       0.00000           0.111077            3.02257
    220       0.00000           0.115123            3.13264
    221       0.00000           0.117394            3.19444
    222       0.00000           0.123724            3.36669
    223       0.00000           0.126229            3.43487
    224       0.00000           0.132837            3.61468
    225       0.00000           0.135027            3.67427
    226       0.00000           0.140615            3.82634
    227       0.00000           0.149983            4.08124
    228       0.00000           0.156901            4.26950
    229       0.00000           0.166116            4.52024
    230       0.00000           0.171678            4.67161
    231       0.00000           0.175087            4.76437
    232       0.00000           0.183908            5.00439
    233       0.00000           0.191762            5.21810
    234       0.00000           0.195464            5.31885
    235       0.00000           0.200843            5.46522
    236       0.00000           0.207312            5.64125
    237       0.00000           0.214797            5.84492
    238       0.00000           0.217955            5.93087
    239       0.00000           0.226098            6.15244
    240       0.00000           0.232224            6.31915
    241       0.00000           0.238091            6.47879
    242       0.00000           0.244836            6.66234
    243       0.00000           0.245501            6.68042
    244       0.00000           0.251570            6.84556
    245       0.00000           0.260191            7.08015
    246       0.00000           0.262383            7.13980
    247       0.00000           0.265651            7.22874
    248       0.00000           0.275695            7.50204
    249       0.00000           0.280438            7.63112
    250       0.00000           0.284145            7.73197
    251       0.00000           0.292505            7.95946
    252       0.00000           0.296026            8.05527
    253       0.00000           0.301248            8.19739
    254       0.00000           0.308870            8.40478
    255       0.00000           0.314671            8.56264
    256       0.00000           0.318276            8.66072
    257       0.00000           0.325509            8.85756
    258       0.00000           0.329542            8.96730
    259       0.00000           0.341857            9.30241
    260       0.00000           0.350088            9.52637
[...]
  |    H      0     4.527807 A      4.527807 A        1.268855E-16 a.u.
  |    H      0     4.527807 A      4.583499 A       -4.900954E-17 a.u.
  |    H      0     4.527807 A      4.583499 A        4.713786E-16 a.u.
  |    H      2     3.678162 A  2.180220E+05 A            0.556529 a.u.
  |    H      1     3.958095 A  1.721251E+08 A            0.841931 a.u.
  |    H      0     4.527807 A  3.866455E+16 A            0.581436 a.u.
  |    O      0     2.043000 A      2.043000 A       -1.436841E-16 a.u.
  |    O      3     3.498446 A      3.498446 A        3.043453E-17 a.u.
  |    O      3     3.498446 A      3.498446 A        1.541443E-16 a.u.
  |    O      0     3.905335 A      3.905335 A        2.173090E-16 a.u.
  |    O      0     3.905335 A      3.905335 A        7.213445E-17 a.u.
  |    O      0     4.101052 A      4.101052 A        2.361718E-16 a.u.
  |    O      1     4.101052 A      4.101052 A        3.235185E-17 a.u.
  |    O      0     4.359549 A      4.359549 A       -5.329475E-17 a.u.
  |    O      1     4.413171 A      4.413171 A        3.261883E-17 a.u.
  |    O      1     4.522403 A      4.522403 A        6.417997E-16 a.u.
  |    O      1     4.522403 A      4.522403 A        4.224783E-16 a.u.
  |    O      2     4.522403 A      4.522403 A       -4.387647E-16 a.u.
  |    O      0     4.522403 A      4.578029 A        2.602039E-16 a.u.
  |    O      0     4.578029 A      4.578029 A        1.226235E-16 a.u.
  |    O      1     4.578029 A      4.578029 A       -6.107316E-16 a.u.
  |    O      1     4.578029 A      4.578029 A       -2.224438E-16 a.u.
  |    O      2     4.578029 A      4.578029 A       -7.020279E-16 a.u.
  |    O      2     4.522403 A      4.578029 A        1.323470E-15 a.u.
  |    O      2     4.578029 A      4.578029 A        7.923696E-16 a.u.
  |    O      2     4.522403 A      4.578029 A       -9.951815E-16 a.u.
  |    O      0     4.578029 A      4.634338 A       -8.813582E-18 a.u.
  |    O      1     4.578029 A      4.634338 A       -3.325386E-17 a.u.
  |    O      1     4.634338 A      4.634338 A        9.588032E-16 a.u.
  |    O      2     4.578029 A      4.634338 A        1.064715E-17 a.u.
  |    O      2     4.578029 A      4.634338 A       -3.770343E-15 a.u.
  |    O      4     3.251020 A  1.511584E+03 A            1.513372 a.u.
  |    O      3     3.541477 A  1.434166E+04 A            4.293220 a.u.
  |    O      2     4.634338 A  5.584435E+05 A            9.352428 a.u.
  |    O      1     4.634338 A  2.821283E+08 A            2.261940 a.u.
  |    O      0     4.578029 A  4.264100E+16 A            0.641234 a.u.

  | Shrink_full_auxil_basis : there are       38  radial auxiliary wave functions
                            accepted and       5 rejected.
  | Shrink_full_auxil_basis : there are totally                4544 partial auxiliary wave functions.
 
  | Maximal number of product basis functions per thread :   256   256
 
  | Minimal total memory requirement for three-center overlap :      10.450 Gbs
  | Number of local auxiliary basis functions on task:      0   256
  | Number of local auxiliary basis functions on task:      1   256
  | Number of local auxiliary basis functions on task:      2   256
  | Number of local auxiliary basis functions on task:      3   256
  | Number of local auxiliary basis functions on task:      4   256
  | Number of local auxiliary basis functions on task:      5   256
  | Number of local auxiliary basis functions on task:      6   256
  | Number of local auxiliary basis functions on task:      7   256
  | Number of local auxiliary basis functions on task:      8   256
  | Number of local auxiliary basis functions on task:      9   256
  | Number of local auxiliary basis functions on task:     10   256
  | Number of local auxiliary basis functions on task:     11   256
  | Number of local auxiliary basis functions on task:     12   256
  | Number of local auxiliary basis functions on task:     13   256
  | Number of local auxiliary basis functions on task:     14   240
  | Number of local auxiliary basis functions on task:     15   240
  | Number of local auxiliary basis functions on task:     16   240
  | Number of local auxiliary basis functions on task:     17   240
  | 2D aux task distribution:      3 X      6
  | 2D block size (nb_aux_2d):     64
 
  Basis pair condensation :    295296  -->     218504
 
 --------------------------------------------
  Constructing auxiliary basis (full product) ...
 
  Product basis:
  | charge radius: extent of product basis function
  | field radius: extent of its Coulomb potential
  | Species   l  charge radius    field radius  multipol momen
  |    H      1     3.910002 A      3.910002 A       -2.487223E-16 a.u.
  |    H      1     3.958095 A      3.958095 A       -2.441841E-16 a.u.
  |    H      0     4.527807 A      4.527807 A        1.268855E-16 a.u.
  |    H      0     4.527807 A      4.583499 A       -4.900954E-17 a.u.
  |    H      0     4.527807 A      4.583499 A        4.713786E-16 a.u.
  |    H      2     3.678162 A  2.180220E+05 A            0.556529 a.u.
  |    H      1     3.958095 A  1.721251E+08 A            0.841931 a.u.
  |    H      0     4.527807 A  3.866455E+16 A            0.581436 a.u.
  |    O      0     2.043000 A      2.043000 A       -1.436841E-16 a.u.
  |    O      3     3.498446 A      3.498446 A        3.043453E-17 a.u.
  |    O      3     3.498446 A      3.498446 A        1.541443E-16 a.u.
  |    O      0     3.905335 A      3.905335 A        2.173090E-16 a.u.
  |    O      0     3.905335 A      3.905335 A        7.213445E-17 a.u.
  |    O      0     4.101052 A      4.101052 A        2.361718E-16 a.u.
  |    O      1     4.101052 A      4.101052 A        3.235185E-17 a.u.
  |    O      0     4.359549 A      4.359549 A       -5.329475E-17 a.u.
  |    O      1     4.413171 A      4.413171 A        3.261883E-17 a.u.
  |    O      1     4.522403 A      4.522403 A        6.417997E-16 a.u.
  |    O      1     4.522403 A      4.522403 A        4.224783E-16 a.u.
  |    O      2     4.522403 A      4.522403 A       -4.387647E-16 a.u.
  |    O      0     4.522403 A      4.578029 A        2.602039E-16 a.u.
  |    O      0     4.578029 A      4.578029 A        1.226235E-16 a.u.
  |    O      1     4.578029 A      4.578029 A       -6.107316E-16 a.u.
  |    O      1     4.578029 A      4.578029 A       -2.224438E-16 a.u.
  |    O      2     4.578029 A      4.578029 A       -7.020279E-16 a.u.
  |    O      2     4.522403 A      4.578029 A        1.323470E-15 a.u.
  |    O      2     4.578029 A      4.578029 A        7.923696E-16 a.u.
  |    O      2     4.522403 A      4.578029 A       -9.951815E-16 a.u.
  |    O      0     4.578029 A      4.634338 A       -8.813582E-18 a.u.
  |    O      1     4.578029 A      4.634338 A       -3.325386E-17 a.u.
  |    O      1     4.634338 A      4.634338 A        9.588032E-16 a.u.
  |    O      2     4.578029 A      4.634338 A        1.064715E-17 a.u.
  |    O      2     4.578029 A      4.634338 A       -3.770343E-15 a.u.
  |    O      4     3.251020 A  1.511584E+03 A            1.513372 a.u.
  |    O      3     3.541477 A  1.434166E+04 A            4.293220 a.u.
  |    O      2     4.634338 A  5.584435E+05 A            9.352428 a.u.
  |    O      1     4.634338 A  2.821283E+08 A            2.261940 a.u.
  |    O      0     4.578029 A  4.264100E+16 A            0.641234 a.u.

  | Shrink_full_auxil_basis : there are       38  radial auxiliary wave functions
                            accepted and       5 rejected.
  | Shrink_full_auxil_basis : there are totally                4544 partial auxiliary wave functions.
 
  | Maximal number of product basis functions per thread :   256   256
 
  | Minimal total memory requirement for three-center overlap :      10.450 Gbs
  | Number of local auxiliary basis functions on task:      0   256
  | Number of local auxiliary basis functions on task:      1   256
  | Number of local auxiliary basis functions on task:      2   256
  | Number of local auxiliary basis functions on task:      3   256
  | Number of local auxiliary basis functions on task:      4   256
  | Number of local auxiliary basis functions on task:      5   256
  | Number of local auxiliary basis functions on task:      6   256
  | Number of local auxiliary basis functions on task:      7   256
  | Number of local auxiliary basis functions on task:      8   256
  | Number of local auxiliary basis functions on task:      9   256
  | Number of local auxiliary basis functions on task:     10   256
  | Number of local auxiliary basis functions on task:     11   256
  | Number of local auxiliary basis functions on task:     12   256
  | Number of local auxiliary basis functions on task:     13   256
  | Number of local auxiliary basis functions on task:     14   240
  | Number of local auxiliary basis functions on task:     15   240
  | Number of local auxiliary basis functions on task:     16   240
  | Number of local auxiliary basis functions on task:     17   240
  | 2D aux task distribution:      3 X      6
  | 2D block size (nb_aux_2d):     64
 
  Basis pair condensation :    295296  -->     218504
dP_dE (Bohr^3) at every cycle:--->
 (360.929636646671,0.000000000000000E+000) (0.911963709018285,0.000000000000000E+000) (6.15683068482820,0.000000000000000E+000)
 (0.904737519813686,0.000000000000000E+000) (371.290794467026,0.000000000000000E+000) (-1.46656358330264,0.000000000000000E+000)
 (6.15112279163868,0.000000000000000E+000) (-1.47357881936274,0.000000000000000E+000) (314.601282183597,0.000000000000000E+000)
DFPT polarizability (Bohr^3)        xx        yy        zz        xy        xz        yz
  | Polarizability:--->                       360.929636647                  371.290794467                  314.601282184                    0.911963709                    6.156830685                   -1.466563583

DFPT for dielectric_constant:--->  # PARSE DFPT_dielectric_tensor
               1.701496889676482             0.001772477625606             0.011966314586407
               0.001758432923435             1.721634665149716            -0.002850388795328
               0.011955220819333            -0.002864023492446             1.611453863945429

                                               :  max(cpu_time)    wall_clock(cpu1)
  | Time for  dielectric calculation            :        0.000 s           0.000 s
===========================================================================

------------------------------------------------------------------------------
  Final output of selected total energy values:

  The following output summarizes some interesting total energy values
  at the end of a run (AFTER all relaxation, molecular dynamics, etc.).

  | Total energy of the DFT / Hartree-Fock s.c.f. calculation      :         -66110.118673816 eV
  | Final zero-broadening corrected energy (caution - metals only) :         -66110.118673816 eV
  | For reference only, the value of 1 Hartree used in FHI-aims is :             27.211384500 eV
  | For reference only, the overall average (free atom contribution
  | + realspace contribution) of the electrostatic potential after
  | s.c.f. convergence is                                          :             -5.025836606 eV

  Before relying on these values, please be sure to understand exactly which
  total energy value is referred to by a given number. Different objects may
  all carry the same name 'total energy'. Definitions:

  Total energy of the DFT / Hartree-Fock s.c.f. calculation:
  | Note that this energy does not include ANY quantities calculated after the
  | s.c.f. cycle, in particular not ANY RPA, MP2, etc. many-body perturbation terms.

  Final zero-broadening corrected energy:
  | For metallic systems only, a broadening of the occupation numbers at the Fermi
  | level can be extrapolated back to zero broadening by an electron-gas inspired
  | formula. For all systems that are not real metals, this value can be
  | meaningless and should be avoided.

------------------------------------------------------------------------------
  Methods described in the following list of references were used in this FHI-aims run.
  If you publish the results, please make sure to cite these reference if they apply.
  FHI-aims is an academic code, and for our developers (often, Ph.D. students
  and postdocs), scientific credit in the community is essential.
  Thank you for helping us!

  For any use of FHI-aims, please cite:

    Volker Blum, Ralf Gehrke, Felix Hanke, Paula Havu, Ville Havu,
    Xinguo Ren, Karsten Reuter, and Matthias Scheffler
    'Ab initio molecular simulations with numeric atom-centered orbitals'
    Computer Physics Communications 180, 2175-2196 (2009)
    http://doi.org/10.1016/j.cpc.2009.06.022


  For Hartree-Fock, hybrid functionals, or many-body perturbation theory used in your run, please cite:

    Xinguo Ren, Patrick Rinke, Volker Blum, Juergen Wieferink, Alex Tkatchenko,
    Andrea Sanfilippo, Karsten Reuter, and Matthias Scheffler,
    'Resolution-of-identity approach to Hartree-Fock, hybrid density functionals,
    RPA, MP2, and GW with numeric atom-centered orbital basis functions'
    New Journal of Physics 14, 053020 (2012).
    http://doi.org/10.1088/1367-2630/14/5/053020


  The provided symmetry information was generated with SPGlib:

    Atsushi Togo, Yusuke Seto, Dimitar Pashov
    SPGlib 1.7.3 obtained from http://spglib.sourceforge.net
    Copyright (C) 2008 Atsushi Togo


  The DFPT (perturbation by an electric field) part of the code was used.
  Here is the corresponding reference:

    Honghui Shang, Nathaniel Raimbault, Mariana Rossi,
    Christian Carbogno, Patrick Rinke and Matthias Scheffler,
    'All-Electron, Real-Space Perturbation Theory for Homogeneous
    Electric Fields: Theory, Implementation, and Application within dft'
    New Journal of Physics, 20(7):073040, 2018


  The ELSI infrastructure was used in your run to solve the Kohn-Sham electronic structure.
  Please check out http://elsi-interchange.org to learn more.
  If scalability is important for your project, please acknowledge ELSI by citing:

    V. W-z. Yu, F. Corsetti, A. Garcia, W. P. Huhn, M. Jacquelin, W. Jia,
    B. Lange, L. Lin, J. Lu, W. Mi, A. Seifitokaldani, A. Vazquez-Mayagoitia,
    C. Yang, H. Yang, and V. Blum
    'ELSI: A unified software interface for Kohn-Sham electronic structure solvers'
    Computer Physics Communications 222, 267-285 (2018).
    http://doi.org/10.1016/j.cpc.2017.09.007


  For the real-space grid partitioning and parallelization used in this calculation, please cite:

    Ville Havu, Volker Blum, Paula Havu, and Matthias Scheffler,
    'Efficient O(N) integration for all-electron electronic structure calculation'
    'using numerically tabulated basis functions'
    Journal of Computational Physics 228, 8367-8379 (2009).
    http://doi.org/10.1016/j.jcp.2009.08.008


  The high-level electronic structure method used in your calculation
  employed our efficient localized resolution of identity for the Coulomb operator.
  Some calculations, especially large-scale hybrid density functional theory,
  are only possible thanks to this development. For this feature, please cite:

    Arvid Ihrig, Juergen Wieferink, Igor Ying Zhang, Matti Ropo, Xinguo Ren,
    Patrick Rinke, Matthias Scheffler, and Volker Blum,
    'Accurate localized resolution of identity approach for linear-scaling
    hybrid density functionals and for many-body perturbation theory'
    New Journal of Physics 117, 093020 (2015).
    http://doi.org/10.1088/1367-2630/17/9/093020

  Of course, there are many other important community references, e.g., those cited in the
  above references. Our list is limited to references that describe implementations in the
  FHI-aims code. The reason is purely practical (length of this list) - please credit others as well.

------------------------------------------------------------
          Leaving FHI-aims.
          Date     :  20230221, Time     :  144353.773

          Computational steps:
          | Number of self-consistency cycles          :           45
          | Number of SCF (re)initializations          :            1
          | Number of coupled perturbed self-consistency cycles          :            0
          | Number of CPSCF (re)initializations          :            0

          Detailed time accounting                     :  max(cpu_time)    wall_clock(cpu1)
          | Total time                                  :      484.139 s         495.330 s
          | GPU initialization                          :        1.794 s           9.696 s
          | Preparation time                            :        0.070 s           0.066 s
          | Boundary condition initalization            :        1.310 s           1.310 s
          | Grid partitioning                           :        0.450 s           0.450 s
          | Preloading free-atom quantities on grid     :        2.403 s           2.404 s
          | Free-atom superposition energy              :        0.319 s           0.319 s
          | Total time for integrations                 :       12.674 s          12.869 s
          | Product basis setup: Total time             :        0.000 s           0.000 s
          | Product basis: | 2-center integrations     :(       0.000 s)  (       0.000 s)
          | Product basis: | LVL 3-center & coefficient:(       0.000 s)  (       0.000 s)
          | Total time for solution of K.-S. equations  :        2.308 s           4.683 s
          | Total time for density update               :        9.196 s           9.492 s
          | Total time for mixing & preconditioning     :        8.170 s           8.173 s
          | Total time for Hartree multipole update     :        0.110 s           0.112 s
          | Total time for Hartree multipole sum        :       36.671 s          36.680 s
          | Total time for total energy evaluation      :        0.005 s           0.008 s
          | Total time for DFPT                         :      407.776 s         407.931 s
          | Total time first_order_DM                   :        0.318 s           0.319 s
          | Total time first_order_density              :       86.856 s          86.872 s
          | Total time first_order_potential            :       53.844 s          53.858 s
          | Total time first_order_H                    :      173.161 s         173.224 s
          | Total time solving of Sternheimer equations :        0.198 s           0.198 s
          | Total time for dielectric constant          :        0.000 s           0.000 s
          | Total time momentum matrix                  :        0.000 s           0.000 s

          GPU acceleration has been used for charge density update.
          GPU acceleration has been used for real-space Hamiltonian integration.
          Due to GPU usage, wall_clock(cpu1) will give a more reliable estimate for timings.

          Partial memory accounting:
          | Residual value for overall tracked memory usage across tasks:     0.000000 MB (should be 0.000000 MB)
          | Peak values for overall tracked memory usage:
          |   Minimum:      118.234 MB (on task  0 after allocating DFPT_pulay_mixing::pulay_mix::alphas)
          |   Maximum:      118.234 MB (on task  0 after allocating DFPT_pulay_mixing::pulay_mix::alphas)
          |   Average:      118.234 MB
          | Largest tracked array allocation:
          |   Minimum:       42.173 MB (DFPT_pulay_mixing::initialize_pulay_mixing::X_in_diffs on task  0)
          |   Maximum:       42.173 MB (DFPT_pulay_mixing::initialize_pulay_mixing::X_in_diffs on task  0)
          |   Average:       42.173 MB
          Note:  These values currently only include a subset of arrays which are explicitly tracked.
          The "true" memory usage will be greater.

          Have a nice day.
------------------------------------------------------------
