------------------------------------------------------------
          Invoking FHI-aims ...

          When using FHI-aims, please cite the following reference:

            Volker Blum, Ralf Gehrke, Felix Hanke, Paula Havu,
            Ville Havu, Xinguo Ren, Karsten Reuter, and Matthias Scheffler,
            'Ab Initio Molecular Simulations with Numeric Atom-Centered Orbitals',
            Computer Physics Communications 180, 2175-2196 (2009)

          In addition, many other developments in FHI-aims are likely important for
          your particular application. A partial list of references is given at the end of
          this file. Thank you for giving credit to the authors of these developments.

          For any questions about FHI-aims, please visit our slack channel at

            https://fhi-aims.slack.com

          and our main development and support site at

            https://aims-git.rz-berlin.mpg.de .

          The latter site, in particular, has a wiki to collect information, as well
          as an issue tracker to log discussions, suggest improvements, and report issues
          or bugs. https://aims-git.rz-berlin.mpg.de is also the main development site
          of the project and all new and updated code versions can be obtained there.
          Please send an email to aims-coordinators@fhi-berlin.mpg.de and we will add
          you to these sites. They are for you and everyone is welcome there.

------------------------------------------------------------



  Date     :  20230221, Time     :  152753.629
  Time zero on CPU 1             :   0.378726000000000E+00  s.
  Internal wall clock time zero  :           446225273.629  s.

  FHI-aims created a unique identifier for this run for later identification
  aims_uuid : 13CF15A1-5672-41FC-A2B9-C1A07A095DB1

  Build configuration of the current instance of FHI-aims
  -------------------------------------------------------
  FHI-aims version      : 221103
  Commit number         : 42523251a
  CMake host system     : Linux-5.3.18-150300.59.68-default
  CMake version         : 3.17.0
  Fortran compiler      : /mpcdf/soft/SLE_15/packages/x86_64/intel_oneapi/2021.3/mpi/2021.3.0/bin/mpiifort (Intel) version 20.2.3.20210609
  Fortran compiler flags: -O3 -ip -fp-model precise
  C compiler            : /mpcdf/soft/SLE_15/packages/x86_64/intel/2021.3.0/bin/icc (Intel) version 20.2.3.20210609
  C compiler flags      : -O3 -ip -fp-model precise -std=gnu99
  CUDA compiler         : /mpcdf/soft/SLE_15/packages/x86_64/cuda/11.6.2/bin/nvcc
  CUDA compiler flags   : -O3 -DAdd_ -lcublas
  HIP compiler          :
  HIP compiler flags    :
  HIP GPU arch          :
  ELPA2 kernel          : AVX512
  Using MPI
  Using ScaLAPACK
  Using LibXC
  Using CUDA
  Using i-PI
  Using RLSY
  Linking against: /mpcdf/soft/SLE_15/packages/x86_64/cuda/11.6.2/lib64/libcublas.so
                   /mpcdf/soft/SLE_15/packages/x86_64/cuda/11.6.2/lib64/libcudart.so
                   /mpcdf/soft/SLE_15/packages/x86_64/intel_oneapi/2021.3/mkl/latest/lib/intel64/libmkl_intel_lp64.so
                   /mpcdf/soft/SLE_15/packages/x86_64/intel_oneapi/2021.3/mkl/latest/lib/intel64/libmkl_sequential.so
                   /mpcdf/soft/SLE_15/packages/x86_64/intel_oneapi/2021.3/mkl/latest/lib/intel64/libmkl_core.so
                   /mpcdf/soft/SLE_15/packages/x86_64/intel_oneapi/2021.3/mkl/latest/lib/intel64/libmkl_blacs_intelmpi_lp64.so
                   /mpcdf/soft/SLE_15/packages/x86_64/intel_oneapi/2021.3/mkl/latest/lib/intel64/libmkl_scalapack_lp64.so

  Using       18 parallel tasks.
  Task        0 on host adag038 reporting.
  Task        1 on host adag038 reporting.
  Task        2 on host adag038 reporting.
  Task        3 on host adag038 reporting.
  Task        4 on host adag038 reporting.
  Task        5 on host adag038 reporting.
  Task        6 on host adag038 reporting.
  Task        7 on host adag038 reporting.
  Task        8 on host adag038 reporting.
  Task        9 on host adag038 reporting.
  Task       10 on host adag038 reporting.
  Task       11 on host adag038 reporting.
  Task       12 on host adag038 reporting.
  Task       13 on host adag038 reporting.
  Task       14 on host adag038 reporting.
  Task       15 on host adag038 reporting.
  Task       16 on host adag038 reporting.
  Task       17 on host adag038 reporting.

  Obtaining array dimensions for all initial allocations:
  
  -----------------------------------------------------------------------
  Parsing control.in (first pass over file, find array dimensions only).
  The contents of control.in will be repeated verbatim below
  unless switched off by setting 'verbatim_writeout .false.' .
  in the first line of control.in .
  -----------------------------------------------------------------------
  
  #########################################################################################
  #
  #  Volker Blum, 2017 : Test run input file control.in for simple H2O
  #
  #########################################################################################
  #
  #  Physical model
  #
    xc                 pw-lda
    spin               none
    relativistic       none
    charge             0.
  
    use_gpu
  
    DFPT dielectric
    ri_density_restart write
    ri_rho1 write
  #  ri_density_restart read 0
  #  ri_rho1 read
    ri_full_output .true.
    sc_accuracy_rho    1d-6
  #  use_calculate_fock_matrix_old .false.
  #  wave_threshold 1e-8
    k_grid 1 1 1
  #  output cube eigenstate 160
  #  output cube eigenstate 161
    wave_threshold 1e-8
    default_prodbas_acc 1e-6
    default_max_l_prodbas 6
  #
  #  Relaxation
  #
  #  relax_geometry   bfgs 1.e-2
  #
  
  ################################################################################
  
  
  ################################################################################
  #
  #  FHI-aims code project
  #  VB, Fritz-Haber Institut, 2009
  #
  #  Suggested "light" defaults for H atom (to be pasted into control.in file)
  #  Be sure to double-check any results obtained with these settings for post-processing,
  #  e.g., with the "tight" defaults and larger basis sets.
  #
  ################################################################################
    species        H
  #     global species definitions
      nucleus             1
      mass                1.00794
  #
      l_hartree           4
  #
      cut_pot             3.5  1.5  1.0
      basis_dep_cutoff    1e-4
  #
      radial_base         24 5.0
      radial_multiplier   1
      angular_grids       specified
        division   0.2421   50
        division   0.3822  110
        division   0.4799  194
        division   0.5341  302
  #      division   0.5626  434
  #      division   0.5922  590
  #      division   0.6542  770
  #      division   0.6868 1202
  #      outer_grid  770
        outer_grid  302
  ################################################################################
  #
  #  Definition of "minimal" basis
  #
  ################################################################################
  #     valence basis states
      valence      1  s   1.
  #     ion occupancy
      ion_occ      1  s   0.5
  ################################################################################
  #
  #  Suggested additional basis functions. For production calculations,
  #  uncomment them one after another (the most important basis functions are
  #  listed first).
  #
  #  Basis constructed for dimers: 0.5 A, 0.7 A, 1.0 A, 1.5 A, 2.5 A
  #
  ################################################################################
  #  "First tier" - improvements: -1014.90 meV to -62.69 meV
       hydro 2 s 2.1
       hydro 2 p 3.5
  #  "Second tier" - improvements: -12.89 meV to -1.83 meV
  #     hydro 1 s 0.85
  #     hydro 2 p 3.7
  #     hydro 2 s 1.2
  #     hydro 3 d 7
  #  "Third tier" - improvements: -0.25 meV to -0.12 meV
  #     hydro 4 f 11.2
  #     hydro 3 p 4.8
  #     hydro 4 d 9
  #     hydro 3 s 3.2
  ################################################################################
  #
  #  FHI-aims code project
  #  VB, Fritz-Haber Institut, 2009
  #
  #  Suggested "light" defaults for O atom (to be pasted into control.in file)
  #  Be sure to double-check any results obtained with these settings for post-processing,
  #  e.g., with the "tight" defaults and larger basis sets.
  #
  ################################################################################
    species        O
  #     global species definitions
      nucleus             8
      mass                15.9994
  #
      l_hartree           4
  #
      cut_pot             3.5  1.5  1.0
      basis_dep_cutoff    1e-4
  #
      radial_base         36 5.0
      radial_multiplier   1
       angular_grids specified
        division   0.2659   50
        division   0.4451  110
        division   0.6052  194
        division   0.7543  302
  #      division   0.8014  434
  #      division   0.8507  590
  #      division   0.8762  770
  #      division   0.9023  974
  #      division   1.2339 1202
  #      outer_grid 974
        outer_grid 302
  ################################################################################
  #
  #  Definition of "minimal" basis
  #
  ################################################################################
  #     valence basis states
      valence      2  s   2.
      valence      2  p   4.
  #     ion occupancy
      ion_occ      2  s   1.
      ion_occ      2  p   3.
  ################################################################################
  #
  #  Suggested additional basis functions. For production calculations,
  #  uncomment them one after another (the most important basis functions are
  #  listed first).
  #
  #  Constructed for dimers: 1.0 A, 1.208 A, 1.5 A, 2.0 A, 3.0 A
  #
  ################################################################################
  #  "First tier" - improvements: -699.05 meV to -159.38 meV
       hydro 2 p 1.8
       hydro 3 d 7.6
       hydro 3 s 6.4
  #  "Second tier" - improvements: -49.91 meV to -5.39 meV
  #     hydro 4 f 11.6
  #     hydro 3 p 6.2
  #     hydro 3 d 5.6
  #     hydro 5 g 17.6
  #     hydro 1 s 0.75
  #  "Third tier" - improvements: -2.83 meV to -0.50 meV
  #     ionic 2 p auto
  #     hydro 4 f 10.8
  #     hydro 4 d 4.7
  #     hydro 2 s 6.8
  #  "Fourth tier" - improvements: -0.40 meV to -0.12 meV
  #     hydro 3 p 5
  #     hydro 3 s 3.3
  #     hydro 5 g 15.6
  #     hydro 4 f 17.6
  #     hydro 4 d 14
  # Further basis functions - -0.08 meV and below
  #     hydro 3 s 2.1
  #     hydro 4 d 11.6
  #     hydro 3 p 16
  #     hydro 2 s 17.2
  
  -----------------------------------------------------------------------
  Completed first pass over input file control.in .
  -----------------------------------------------------------------------
  
  
  -----------------------------------------------------------------------
  Parsing geometry.in (first pass over file, find array dimensions only).
  The contents of geometry.in will be repeated verbatim below
  unless switched off by setting 'verbatim_writeout .false.' .
  in the first line of geometry.in .
  -----------------------------------------------------------------------
  
  #=======================================================
  # FHI-aims file: /ada/ptmp/mpsd/alewis/bulk_water/qmdata/data/geoms/199.in
  # Created using the Atomic Simulation Environment (ASE)
  # Tue Feb 21 11:23:37 2023
  #=======================================================
  lattice_vector 10.3484900000000000 0.0000000000000000 0.0000000000000000
  lattice_vector 0.0000000000000000 10.3484900000000000 0.0000000000000000
  lattice_vector 0.0000000000000000 0.0000000000000000 10.3484900000000000
  atom 10.6071000000000009 7.9210700000000003 -4.7202400000000004 O
  atom 11.3356999999999992 7.6604799999999997 -4.0746399999999996 H
  atom 10.5318000000000005 8.7681400000000007 -4.6883699999999999 H
  atom 24.0908000000000015 -0.0493280000000000 -7.7429500000000004 O
  atom 23.5458999999999996 -0.7389670000000000 -7.6029099999999996 H
  atom 23.8750999999999998 0.8015650000000000 -7.2757899999999998 H
  atom -1.3319000000000001 0.1854790000000000 21.0298000000000016 O
  atom -0.7800740000000000 0.2142960000000000 20.2185999999999986 H
  atom -1.0790000000000000 0.8708180000000000 21.7127000000000017 H
  atom 18.7783000000000015 11.9801000000000002 -3.9025900000000000 O
  atom 19.3826000000000001 12.7864000000000004 -3.7665299999999999 H
  atom 18.0203999999999986 12.2007999999999992 -3.4525899999999998 H
  atom 5.7514900000000004 -18.9506000000000014 7.1684700000000001 O
  atom 5.1510499999999997 -18.6244000000000014 7.6556199999999999 H
  atom 5.5413300000000003 -18.2643999999999984 6.4529899999999998 H
  atom -5.1280900000000003 9.1079699999999999 6.7512400000000001 O
  atom -5.9505499999999998 8.7934400000000004 7.0014700000000003 H
  atom -5.2038300000000000 10.0855999999999995 6.6709800000000001 H
  atom 4.0609299999999999 13.8100000000000005 2.4347200000000000 O
  atom 4.0110999999999999 14.7750000000000004 2.4867200000000000 H
  atom 4.8332699999999997 13.6738000000000000 1.9852099999999999 H
  atom -13.1690000000000005 -9.1113599999999995 -6.5554800000000002 O
  atom -13.9376999999999995 -9.7966499999999996 -6.4844400000000002 H
  atom -12.7561999999999998 -8.9006000000000007 -5.6922600000000001 H
  atom 1.7899499999999999 -23.2383999999999986 13.5267999999999997 O
  atom 1.1161799999999999 -23.2931999999999988 12.8178000000000001 H
  atom 1.2110399999999999 -23.2423999999999999 14.4080999999999992 H
  atom 9.8073399999999999 -8.5293500000000009 12.4623000000000008 O
  atom 9.1224600000000002 -8.4619199999999992 13.1298999999999992 H
  atom 9.5803899999999995 -7.9390200000000002 11.8366000000000007 H
  atom 11.1148000000000007 9.2669300000000003 -11.3613999999999997 O
  atom 10.4103999999999992 9.2402499999999996 -12.0319000000000003 H
  atom 11.9063999999999997 8.8485499999999995 -11.6410000000000000 H
  atom 26.4338000000000015 2.9753500000000002 10.6717999999999993 O
  atom 25.7467000000000006 3.1428699999999998 9.9375199999999992 H
  atom 26.5909000000000013 2.0853400000000000 10.4426000000000005 H
  atom 5.8404100000000003 9.3035700000000006 -6.4489500000000000 O
  atom 4.9393599999999998 9.3046699999999998 -7.0532800000000000 H
  atom 5.5315399999999997 9.3080900000000000 -5.5296099999999999 H
  atom -16.4028999999999989 -9.8982500000000009 10.0937999999999999 O
  atom -16.9207000000000001 -10.3265999999999991 10.8595000000000006 H
  atom -15.7149999999999999 -10.5782000000000007 10.0236999999999998 H
  atom 13.0536999999999992 18.0900999999999996 8.2588500000000007 O
  atom 13.2204999999999995 17.8218999999999994 7.3325199999999997 H
  atom 13.2430000000000003 17.3618999999999986 8.8283500000000004 H
  atom -4.2750300000000001 7.2603999999999997 1.9373199999999999 O
  atom -4.0245600000000001 7.4566299999999996 1.0894699999999999 H
  atom -4.0575999999999999 7.9762300000000002 2.5573399999999999 H
  atom -22.1409999999999982 -11.2265999999999995 -2.6622599999999998 O
  atom -22.8884000000000007 -11.8948000000000000 -2.8208700000000002 H
  atom -22.3231999999999999 -10.3341999999999992 -3.1202000000000001 H
  atom -16.6934000000000005 6.1435800000000000 13.5031999999999996 O
  atom -17.4723000000000006 6.5257800000000001 13.4937000000000005 H
  atom -15.8610000000000007 6.6410900000000002 12.9758999999999993 H
  atom 3.3885100000000001 6.5009600000000001 -4.4208400000000001 O
  atom 3.5588199999999999 6.6414099999999996 -5.3123699999999996 H
  atom 3.1104099999999999 5.5251599999999996 -4.3310500000000003 H
  atom 10.3171999999999997 -2.4814699999999998 1.0489900000000001 O
  atom 9.6187100000000001 -1.9747800000000000 1.2435400000000001 H
  atom 10.7853999999999992 -1.8718600000000001 0.3114790000000000 H
  atom 2.5008300000000001 3.9085800000000002 -3.8395800000000002 O
  atom 2.6578100000000000 3.3822999999999999 -4.6994400000000001 H
  atom 1.5652100000000000 3.9009999999999998 -3.8994800000000001 H
  atom 7.0643799999999999 27.9292000000000016 -2.7566700000000002 O
  atom 6.5400900000000002 28.5194000000000010 -3.3460399999999999 H
  atom 7.5369900000000003 27.2515000000000001 -3.4044300000000001 H
  atom -2.3081700000000001 3.8962200000000000 11.7658000000000005 O
  atom -3.2075700000000000 3.7402099999999998 11.3613000000000000 H
  atom -2.6296900000000001 4.3120300000000000 12.4827999999999992 H
  atom 12.7060999999999993 5.3671699999999998 20.3380000000000010 O
  atom 11.8597000000000001 5.1105700000000001 20.2420000000000009 H
  atom 13.0582999999999991 4.4769199999999998 20.3228000000000009 H
  atom -3.7545299999999999 -1.6376200000000001 10.1719000000000008 O
  atom -3.0207099999999998 -0.9306810000000000 10.4351000000000003 H
  atom -3.3964900000000000 -2.2178800000000001 9.4144400000000008 H
  atom 7.2398300000000004 5.2445399999999998 3.6223000000000001 O
  atom 6.5862499999999997 4.6143400000000003 4.1509600000000004 H
  atom 6.7153400000000003 5.9671700000000003 3.2801900000000002 H
  atom 5.8250500000000001 23.9780000000000015 4.6408500000000004 O
  atom 4.9925400000000000 24.0134000000000007 4.0424899999999999 H
  atom 6.4063699999999999 23.3399999999999999 4.4071400000000001 H
  atom 10.0309000000000008 24.7069000000000010 6.9768200000000000 O
  atom 9.5751899999999992 25.1924999999999990 6.2217300000000000 H
  atom 10.0063999999999993 25.2128000000000014 7.8273099999999998 H
  atom -1.7334099999999999 16.4248000000000012 16.0237000000000016 O
  atom -2.2273200000000002 16.2107999999999990 15.2103999999999999 H
  atom -0.9342200000000001 17.0100000000000016 16.0642999999999994 H
  atom 12.2019000000000002 12.7497000000000007 3.7557999999999998 O
  atom 11.3567000000000000 12.8215000000000003 3.2249699999999999 H
  atom 12.9428999999999998 13.2334999999999994 3.1783700000000001 H
  atom -6.9833100000000004 2.7833299999999999 19.3174999999999990 O
  atom -6.8963599999999996 1.8292100000000000 19.4536000000000016 H
  atom -7.5298100000000003 2.9299599999999999 18.6304000000000016 H
  atom -10.6547999999999998 5.2417199999999999 -0.2987720000000000 O
  atom -11.4983000000000004 4.8311099999999998 0.1044310000000000 H
  atom -10.7759999999999998 6.0430099999999998 0.5116080000000000 H
  
  -----------------------------------------------------------------------
  Completed first pass over input file geometry.in .
  -----------------------------------------------------------------------
  

  Basic array size parameters:
  | Number of species                 :        2
  | Number of atoms                   :       96
  | Number of lattice vectors         :        3
  | Max. basis fn. angular momentum   :        2
  | Max. atomic/ionic basis occupied n:        2
  | Max. number of basis fn. types    :        2
  | Max. radial fns per species/type  :        3
  | Max. logarithmic grid size        :     1301
  | Max. radial integration grid size :       36
  | Max. angular integration grid size:      302
  | Max. angular grid division number :        8
  | Radial grid for Hartree potential :     1301
  | Number of spin channels           :        1

------------------------------------------------------------
          Reading file control.in.
------------------------------------------------------------
  XC: Using Perdew-Wang parametrisation of Ceperley-Alder LDA.
  Spin treatment: No spin polarisation.
  Non-relativistic treatment of kinetic energy.
  Charge =   0.000000E+00: Neutral system requested explicitly.
  DFPT calculation will begin after the DFT/HF calculation.
  Convergence accuracy of self-consistent charge density:  0.1000E-05
  Found k-point grid:         1         1         1
  Threshold value for wave function integration:  0.1000E-07
 
  Reading configuration options for species H                   .
  | Found nuclear charge :   1.0000
  | Found atomic mass :    1.00794000000000      amu
  | Found l_max for Hartree potential  :   4
  | Found cutoff potl. onset [A], width [A], scale factor :    3.50000    1.50000    1.00000
  | Threshold for basis-dependent cutoff potential is   0.100000E-03
  | Found data for basic radial integration grid :    24 points, outermost radius =    5.000 A
  | Found multiplier for basic radial grid :   1
  | Found angular grid specification: user-specified.
  | Specified grid contains     5 separate shells.
  | Check grid settings after all constraints further below.
  | Found free-atom valence shell :  1 s   1.000
  | No ionic wave fns used. Skipping ion_occ.
  | Found hydrogenic basis function :  2 s   2.100
  | Found hydrogenic basis function :  2 p   3.500
  Species H                   : Missing cutoff potential type.
  Defaulting to exp(1/x)/(1-x)^2 type cutoff potential.
  Species H : No 'logarithmic' tag. Using default grid for free atom:
  | Default logarithmic grid data [bohr] : 0.1000E-03 0.1000E+03 0.1012E+01
  Species H : On-site basis accuracy parameter (for Gram-Schmidt orthonormalisation) not specified.
  Using default value basis_acc =  0.1000000E-03.
  Species H                   : Using default innermost maximum threshold i_radial=  2 for radial functions.
  Species H                   : Default cutoff onset for free atom density etc. : 0.35000000E+01 AA.
  Species H                   : Basic radial grid will be enhanced according to radial_multiplier =   1, to contain    24 grid points.
 
  Reading configuration options for species O                   .
  | Found nuclear charge :   8.0000
  | Found atomic mass :    15.9994000000000      amu
  | Found l_max for Hartree potential  :   4
  | Found cutoff potl. onset [A], width [A], scale factor :    3.50000    1.50000    1.00000
  | Threshold for basis-dependent cutoff potential is   0.100000E-03
  | Found data for basic radial integration grid :    36 points, outermost radius =    5.000 A
  | Found multiplier for basic radial grid :   1
  | Found angular grid specification: user-specified.
  | Specified grid contains     5 separate shells.
  | Check grid settings after all constraints further below.
  | Found free-atom valence shell :  2 s   2.000
  | Found free-atom valence shell :  2 p   4.000
  | No ionic wave fns used. Skipping ion_occ.
  | No ionic wave fns used. Skipping ion_occ.
  | Found hydrogenic basis function :  2 p   1.800
  | Found hydrogenic basis function :  3 d   7.600
  | Found hydrogenic basis function :  3 s   6.400
  Species O                   : Missing cutoff potential type.
  Defaulting to exp(1/x)/(1-x)^2 type cutoff potential.
  Species O : No 'logarithmic' tag. Using default grid for free atom:
  | Default logarithmic grid data [bohr] : 0.1000E-03 0.1000E+03 0.1012E+01
  Species O : On-site basis accuracy parameter (for Gram-Schmidt orthonormalisation) not specified.
  Using default value basis_acc =  0.1000000E-03.
  Species O                   : Using default innermost maximum threshold i_radial=  2 for radial functions.
  Species O                   : Default cutoff onset for free atom density etc. : 0.35000000E+01 AA.
  Species O                   : Basic radial grid will be enhanced according to radial_multiplier =   1, to contain    36 grid points.
 
  Finished reading input file 'control.in'.
 
------------------------------------------------------------


------------------------------------------------------------
          Reading geometry description geometry.in.
------------------------------------------------------------
  | The smallest distance between any two atoms is         0.83919590 AA.
  | The first atom of this pair is atom number                     13 .
  | The second atom of this pair is atom number                    14 .
  | Wigner-Seitz cell of the first atom image           1     0     0 .
  | (The Wigner-Seitz cell of the second atom is 0 0 0  by definition.)

  Symmetry information by spglib:
  | Precision set to  0.1E-04
  | Number of Operations  : 1
  | Space group           : 1
  | International         : P1
  | Schoenflies           : C1^1
  Input structure read successfully.
  The structure contains       96 atoms,  and a total of        320.000 electrons.

  Input geometry:
  | Unit cell:
  |       10.34849000        0.00000000        0.00000000
  |        0.00000000       10.34849000        0.00000000
  |        0.00000000        0.00000000       10.34849000
  | Atomic structure:
  |       Atom                x [A]            y [A]            z [A]
  |    1: Species O            10.60710000        7.92107000       -4.72024000
  |    2: Species H            11.33570000        7.66048000       -4.07464000
  |    3: Species H            10.53180000        8.76814000       -4.68837000
  |    4: Species O            24.09080000       -0.04932800       -7.74295000
  |    5: Species H            23.54590000       -0.73896700       -7.60291000
  |    6: Species H            23.87510000        0.80156500       -7.27579000
  |    7: Species O            -1.33190000        0.18547900       21.02980000
  |    8: Species H            -0.78007400        0.21429600       20.21860000
  |    9: Species H            -1.07900000        0.87081800       21.71270000
  |   10: Species O            18.77830000       11.98010000       -3.90259000
  |   11: Species H            19.38260000       12.78640000       -3.76653000
  |   12: Species H            18.02040000       12.20080000       -3.45259000
  |   13: Species O             5.75149000      -18.95060000        7.16847000
  |   14: Species H             5.15105000      -18.62440000        7.65562000
  |   15: Species H             5.54133000      -18.26440000        6.45299000
  |   16: Species O            -5.12809000        9.10797000        6.75124000
  |   17: Species H            -5.95055000        8.79344000        7.00147000
  |   18: Species H            -5.20383000       10.08560000        6.67098000
  |   19: Species O             4.06093000       13.81000000        2.43472000
  |   20: Species H             4.01110000       14.77500000        2.48672000
  |   21: Species H             4.83327000       13.67380000        1.98521000
  |   22: Species O           -13.16900000       -9.11136000       -6.55548000
  |   23: Species H           -13.93770000       -9.79665000       -6.48444000
  |   24: Species H           -12.75620000       -8.90060000       -5.69226000
  |   25: Species O             1.78995000      -23.23840000       13.52680000
  |   26: Species H             1.11618000      -23.29320000       12.81780000
  |   27: Species H             1.21104000      -23.24240000       14.40810000
  |   28: Species O             9.80734000       -8.52935000       12.46230000
  |   29: Species H             9.12246000       -8.46192000       13.12990000
  |   30: Species H             9.58039000       -7.93902000       11.83660000
  |   31: Species O            11.11480000        9.26693000      -11.36140000
  |   32: Species H            10.41040000        9.24025000      -12.03190000
  |   33: Species H            11.90640000        8.84855000      -11.64100000
  |   34: Species O            26.43380000        2.97535000       10.67180000
  |   35: Species H            25.74670000        3.14287000        9.93752000
  |   36: Species H            26.59090000        2.08534000       10.44260000
  |   37: Species O             5.84041000        9.30357000       -6.44895000
  |   38: Species H             4.93936000        9.30467000       -7.05328000
  |   39: Species H             5.53154000        9.30809000       -5.52961000
  |   40: Species O           -16.40290000       -9.89825000       10.09380000
  |   41: Species H           -16.92070000      -10.32660000       10.85950000
  |   42: Species H           -15.71500000      -10.57820000       10.02370000
  |   43: Species O            13.05370000       18.09010000        8.25885000
  |   44: Species H            13.22050000       17.82190000        7.33252000
  |   45: Species H            13.24300000       17.36190000        8.82835000
  |   46: Species O            -4.27503000        7.26040000        1.93732000
  |   47: Species H            -4.02456000        7.45663000        1.08947000
  |   48: Species H            -4.05760000        7.97623000        2.55734000
  |   49: Species O           -22.14100000      -11.22660000       -2.66226000
  |   50: Species H           -22.88840000      -11.89480000       -2.82087000
  |   51: Species H           -22.32320000      -10.33420000       -3.12020000
  |   52: Species O           -16.69340000        6.14358000       13.50320000
  |   53: Species H           -17.47230000        6.52578000       13.49370000
  |   54: Species H           -15.86100000        6.64109000       12.97590000
  |   55: Species O             3.38851000        6.50096000       -4.42084000
  |   56: Species H             3.55882000        6.64141000       -5.31237000
  |   57: Species H             3.11041000        5.52516000       -4.33105000
  |   58: Species O            10.31720000       -2.48147000        1.04899000
  |   59: Species H             9.61871000       -1.97478000        1.24354000
  |   60: Species H            10.78540000       -1.87186000        0.31147900
  |   61: Species O             2.50083000        3.90858000       -3.83958000
  |   62: Species H             2.65781000        3.38230000       -4.69944000
  |   63: Species H             1.56521000        3.90100000       -3.89948000
  |   64: Species O             7.06438000       27.92920000       -2.75667000
  |   65: Species H             6.54009000       28.51940000       -3.34604000
  |   66: Species H             7.53699000       27.25150000       -3.40443000
  |   67: Species O            -2.30817000        3.89622000       11.76580000
  |   68: Species H            -3.20757000        3.74021000       11.36130000
  |   69: Species H            -2.62969000        4.31203000       12.48280000
  |   70: Species O            12.70610000        5.36717000       20.33800000
  |   71: Species H            11.85970000        5.11057000       20.24200000
  |   72: Species H            13.05830000        4.47692000       20.32280000
  |   73: Species O            -3.75453000       -1.63762000       10.17190000
  |   74: Species H            -3.02071000       -0.93068100       10.43510000
  |   75: Species H            -3.39649000       -2.21788000        9.41444000
  |   76: Species O             7.23983000        5.24454000        3.62230000
  |   77: Species H             6.58625000        4.61434000        4.15096000
  |   78: Species H             6.71534000        5.96717000        3.28019000
  |   79: Species O             5.82505000       23.97800000        4.64085000
  |   80: Species H             4.99254000       24.01340000        4.04249000
  |   81: Species H             6.40637000       23.34000000        4.40714000
  |   82: Species O            10.03090000       24.70690000        6.97682000
  |   83: Species H             9.57519000       25.19250000        6.22173000
  |   84: Species H            10.00640000       25.21280000        7.82731000
  |   85: Species O            -1.73341000       16.42480000       16.02370000
  |   86: Species H            -2.22732000       16.21080000       15.21040000
  |   87: Species H            -0.93422000       17.01000000       16.06430000
  |   88: Species O            12.20190000       12.74970000        3.75580000
  |   89: Species H            11.35670000       12.82150000        3.22497000
  |   90: Species H            12.94290000       13.23350000        3.17837000
  |   91: Species O            -6.98331000        2.78333000       19.31750000
  |   92: Species H            -6.89636000        1.82921000       19.45360000
  |   93: Species H            -7.52981000        2.92996000       18.63040000
  |   94: Species O           -10.65480000        5.24172000       -0.29877200
  |   95: Species H           -11.49830000        4.83111000        0.10443100
  |   96: Species H           -10.77600000        6.04301000        0.51160800

  Lattice parameters for 3D lattice (in Angstroms) :    10.348490   10.348490   10.348490
  Angle(s) between unit vectors (in degrees)       :    90.000000   90.000000   90.000000


  Quantities derived from the lattice vectors (in Angstrom^-1):
  | Reciprocal lattice vector 1:  0.607160  0.000000  0.000000
  | Reciprocal lattice vector 2:  0.000000  0.607160  0.000000
  | Reciprocal lattice vector 3:  0.000000  0.000000  0.607160
  | Unit cell volume                               :   0.110823E+04  Angstrom^3

  Fractional coordinates:
                         L1                L2                L3
       atom_frac         1.02499012        0.76543244       -0.45612838  O
       atom_frac         1.09539653        0.74025099       -0.39374247  H
       atom_frac         1.01771370        0.84728690       -0.45304871  H
       atom_frac         2.32795316       -0.00476669       -0.74822027  O
       atom_frac         2.27529814       -0.07140820       -0.73468786  H
       atom_frac         2.30710954        0.07745719       -0.70307745  H
       atom_frac        -0.12870477        0.01792329        2.03216121  O
       atom_frac        -0.07538047        0.02070795        1.95377297  H
       atom_frac        -0.10426642        0.08414928        2.09815152  H
       atom_frac         1.81459324        1.15766648       -0.37711685  O
       atom_frac         1.87298823        1.23558123       -0.36396904  H
       atom_frac         1.74135550        1.17899326       -0.33363225  H
       atom_frac         0.55578060       -1.83124301        0.69270686  O
       atom_frac         0.49775861       -1.79972151        0.73978136  H
       atom_frac         0.53547232       -1.76493382        0.62356827  H
       atom_frac        -0.49553993        0.88012551        0.65238890  O
       atom_frac        -0.57501626        0.84973170        0.67656924  H
       atom_frac        -0.50285887        0.97459629        0.64463318  H
       atom_frac         0.39241764        1.33449421        0.23527297  O
       atom_frac         0.38760244        1.42774453        0.24029786  H
       atom_frac         0.46705075        1.32133287        0.19183572  H
       atom_frac        -1.27255281       -0.88045309       -0.63347213  O
       atom_frac        -1.34683418       -0.94667435       -0.62660736  H
       atom_frac        -1.23266293       -0.86008683       -0.55005706  H
       atom_frac         0.17296726       -2.24558366        1.30712790  O
       atom_frac         0.10785921       -2.25087911        1.23861549  H
       atom_frac         0.11702577       -2.24597019        1.39229008  H
       atom_frac         0.94770735       -0.82421203        1.20426265  O
       atom_frac         0.88152571       -0.81769611        1.26877448  H
       atom_frac         0.92577661       -0.76716700        1.14379972  H
       atom_frac         1.07405042        0.89548620       -1.09787998  O
       atom_frac         1.00598252        0.89290805       -1.16267204  H
       atom_frac         1.15054467        0.85505711       -1.12489842  H
       atom_frac         2.55436300        0.28751538        1.03124224  O
       atom_frac         2.48796684        0.30370325        0.96028696  H
       atom_frac         2.56954396        0.20151152        1.00909408  H
       atom_frac         0.56437316        0.89902681       -0.62317787  O
       atom_frac         0.47730249        0.89913311       -0.68157577  H
       atom_frac         0.53452629        0.89946359       -0.53433979  H
       atom_frac        -1.58505251       -0.95649220        0.97538868  O
       atom_frac        -1.63508879       -0.99788472        1.04938015  H
       atom_frac        -1.51857904       -1.02219744        0.96861474  H
       atom_frac         1.26141109        1.74809078        0.79807296  O
       atom_frac         1.27752938        1.72217396        0.70855941  H
       atom_frac         1.27970361        1.67772303        0.85310514  H
       atom_frac        -0.41310665        0.70159028        0.18720799  O
       atom_frac        -0.38890312        0.72055247        0.10527816  H
       atom_frac        -0.39209585        0.77076269        0.24712204  H
       atom_frac        -2.13953920       -1.08485393       -0.25726072  O
       atom_frac        -2.21176230       -1.14942373       -0.27258759  H
       atom_frac        -2.15714563       -0.99861912       -0.30151259  H
       atom_frac        -1.61312423        0.59366922        1.30484737  O
       atom_frac        -1.68839125        0.63060215        1.30392937  H
       atom_frac        -1.53268738        0.64174483        1.25389308  H
       atom_frac         0.32744004        0.62820373       -0.42719662  O
       atom_frac         0.34389752        0.64177576       -0.51334736  H
       atom_frac         0.30056656        0.53390978       -0.41852000  H
       atom_frac         0.99697637       -0.23979054        0.10136648  O
       atom_frac         0.92947957       -0.19082784        0.12016632  H
       atom_frac         1.04221969       -0.18088243        0.03009898  H
       atom_frac         0.24166134        0.37769568       -0.37102804  O
       atom_frac         0.25683071        0.32683995       -0.45411843  H
       atom_frac         0.15125009        0.37696321       -0.37681633  H
       atom_frac         0.68264839        2.69886718       -0.26638379  O
       atom_frac         0.63198496        2.75589965       -0.32333606  H
       atom_frac         0.72831785        2.63337936       -0.32897843  H
       atom_frac        -0.22304413        0.37650131        1.13695815  O
       atom_frac        -0.30995537        0.36142568        1.09787032  H
       atom_frac        -0.25411340        0.41668205        1.20624362  H
       atom_frac         1.22782164        0.51864282        1.96531088  O
       atom_frac         1.14603193        0.49384693        1.95603417  H
       atom_frac         1.26185559        0.43261577        1.96384207  H
       atom_frac        -0.36280945       -0.15824724        0.98293567  O
       atom_frac        -0.29189862       -0.08993399        1.00836934  H
       atom_frac        -0.32821117       -0.21431919        0.90974045  H
       atom_frac         0.69960255        0.50679278        0.35003174  O
       atom_frac         0.63644551        0.44589500        0.40111746  H
       atom_frac         0.64891979        0.57662229        0.31697281  H
       atom_frac         0.56288889        2.31705302        0.44845673  O
       atom_frac         0.48244140        2.32047381        0.39063574  H
       atom_frac         0.61906326        2.25540151        0.42587276  H
       atom_frac         0.96931050        2.38748842        0.67418725  O
       atom_frac         0.92527412        2.43441314        0.60122105  H
       atom_frac         0.96694300        2.43637478        0.75637219  H
       atom_frac        -0.16750366        1.58716876        1.54840948  O
       atom_frac        -0.21523140        1.56648941        1.46981830  H
       atom_frac        -0.09027597        1.64371807        1.55233276  H
       atom_frac         1.17909956        1.23203482        0.36293218  O
       atom_frac         1.09742581        1.23897303        0.31163677  H
       atom_frac         1.25070421        1.27878560        0.30713370  H
       atom_frac        -0.67481439        0.26896001        1.86669746  O
       atom_frac        -0.66641220        0.17676105        1.87984914  H
       atom_frac        -0.72762403        0.28312923        1.80030130  H
       atom_frac        -1.02959949        0.50652027       -0.02887107  O
       atom_frac        -1.11110896        0.46684202        0.01009142  H
       atom_frac        -1.04131134        0.58395090        0.04943794  H

 
  Finished reading input file 'geometry.in'.
 

 
  Consistency checks for stacksize environment parameter are next.
 
  | Maximum stacksize for task 0: unlimited
  | Maximum stacksize for task 1: unlimited
  | Maximum stacksize for task 2: unlimited
  | Maximum stacksize for task 3: unlimited
  | Maximum stacksize for task 4: unlimited
  | Maximum stacksize for task 5: unlimited
  | Maximum stacksize for task 6: unlimited
  | Maximum stacksize for task 7: unlimited
  | Maximum stacksize for task 8: unlimited
  | Maximum stacksize for task 9: unlimited
  | Maximum stacksize for task 10: unlimited
  | Maximum stacksize for task 11: unlimited
  | Maximum stacksize for task 12: unlimited
  | Maximum stacksize for task 13: unlimited
  | Maximum stacksize for task 14: unlimited
  | Maximum stacksize for task 15: unlimited
  | Maximum stacksize for task 16: unlimited
  | Maximum stacksize for task 17: unlimited
  | Current stacksize for task 0: unlimited
  | Current stacksize for task 1: unlimited
  | Current stacksize for task 2: unlimited
  | Current stacksize for task 3: unlimited
  | Current stacksize for task 4: unlimited
  | Current stacksize for task 5: unlimited
  | Current stacksize for task 6: unlimited
  | Current stacksize for task 7: unlimited
  | Current stacksize for task 8: unlimited
  | Current stacksize for task 9: unlimited
  | Current stacksize for task 10: unlimited
  | Current stacksize for task 11: unlimited
  | Current stacksize for task 12: unlimited
  | Current stacksize for task 13: unlimited
  | Current stacksize for task 14: unlimited
  | Current stacksize for task 15: unlimited
  | Current stacksize for task 16: unlimited
  | Current stacksize for task 17: unlimited
 
  Consistency checks for the contents of control.in are next.
 
  MPI_IN_PLACE appears to work with this MPI implementation.
  | Keeping use_mpi_in_place .true. (see manual).
  Explicit treatment of the Coulomb operator is needed, but the RI method is not specified.
  Coulomb operator: Defaulting to 'LVL fast' resolution of identity - RI_type = LVL_fast
  Species H: Using default value for prodbas_acc =   1.000000E-06.
  Species H: Using default value max_l_prodbas =     6.
  Species O: Using default value for prodbas_acc =   1.000000E-06.
  Species O: Using default value max_l_prodbas =     6.
  Target number of points in a grid batch is not set.  Since GPU acceleration is enabled, defaulting to  200
  Method for grid partitioning is not set. Defaulting to parallel hash+maxmin partitioning.
  Batch size limit is not set. Defaulting to    200
  By default, will store active basis functions for each batch.
  If in need of memory, prune_basis_once .false. can be used to disable this option.
  communication_type for Hartree potential was not specified.
  Defaulting to calc_hartree .
  Defaulting to Pulay charge density mixer.
  Pulay mixer: Number of relevant iterations not set.
  Defaulting to    8 iterations.
  Pulay mixer: Number of initial linear mixing iterations not set.
  Defaulting to    0 iterations.
  Work space size for distributed Hartree potential not set.
  Defaulting to   0.200000E+03 MB.
  Mixing parameter for charge density mixing has not been set.
  Using default: charge_mix_param =     0.0500.
  The mixing parameter will be adjusted in iteration number     2 of the first full s.c.f. cycle only.
  Algorithm-dependent basis array size parameters:
  | n_max_pulay                         :        8
  Maximum number of self-consistency iterations not provided.
  Presetting  1000 iterations.
  Presetting      1001 iterations before the initial mixing cycle
  is restarted anyway using the sc_init_iter criterion / keyword.
  Presetting a factor      1.000 between actual scf density residual
  and density convergence criterion sc_accuracy_rho below which sc_init_iter
  takes no effect.
  Calculation of forces was not defined in control.in. No forces will be calculated.
  Geometry relaxation not requested: no relaxation will be performed.
  No accuracy limit for integral partition fn. given. Defaulting to  0.1000E-14.
  No occupation type (smearing scheme) given. Defaulting to Gaussian broadening, width =  0.1000E-01 eV.
  The width will be adjusted in iteration number     2 of the first full s.c.f. cycle only.
  S.C.F. convergence parameters will be adjusted in iteration number     2 of the first full s.c.f. cycle only.
  No accuracy for occupation numbers given. Defaulting to  0.1000E-12.
  No threshold value for occupation numbers given. Defaulting to  0.0000E+00.
  No accuracy for fermi level given. Defaulting to  0.1000E-19.
  Maximum # of iterations to find E_F not set. Defaulting to  200.
  Preferred method for the eigenvalue solver ('KS_method') not specified in 'control.in'.
  Calling BLACS routine to test compilation state
  Since ScaLAPACK support is enabled, defaulting to ELPA (via ELSI).
  Will not use alltoall communication since running on < 1024 CPUs.
  Threshold for basis singularities not set.
  Default threshold for basis singularities:  0.1000E-04
  partition_type (choice of integration weights) for integrals was not specified.
  | Using a version of the partition function of Stratmann and coworkers ('stratmann_sparse').
  | At each grid point, the set of atoms used to build the partition table is smoothly restricted to
  | only those atoms whose free-atom density would be non-zero at that grid point.
  Partitioning for Hartree potential was not defined. Using partition_type for integrals.
  | Adjusted default value of keyword multip_moments_threshold to:       0.10000000E-11
  | This value may affect high angular momentum components of the Hartree potential in periodic systems.
  Angular momentum expansion for Kerker preconditioner not set explicitly.
  | Using default value of   0
  No explicit requirement for turning off preconditioner.
  | By default, it will be turned off when the charge convergence reaches
  | sc_accuracy_rho  =   0.100000E-05
  No special mixing parameter while Kerker preconditioner is on.
  Using default: charge_mix_param =     0.0500.
  Threshold for auxiliary basis singularities not set.
  Default threshold for auxiliary basis singularities:  0.1000E-04
  No q(lm)/r^(l+1) cutoff set for long-range Hartree potential.
  | Using default value of  0.100000E-09 .
  | Verify using the multipole_threshold keyword.
  Defaulting to new monopole extrapolation.
  Density update method: automatic selection selected.
  Using density matrix based charge density update.
  Using density matrix based charge density update.
  Using packed matrix style: index .
  Defaulting to use time-reversal symmetry for k-point grid.
  Charge integration errors on the 3D integration grid will be compensated
  by explicit normalization and distribution of residual charges.
  Use the "compensate_multipole_errors" flag to change this behaviour.
  Default to 1D ("use_logsbt") integrations for auxiliary 2-center integrals.
  Default onset of logarithmic r-grid for SBT is -38.000000000000
  Default onset of logarithmic k-grid for SBT is -25.000000000000
  Default range of logarithmic r- and k-grid for SBT is  45.000000000000
  Default number of logarithmic r- and k-grid for SBT is   4096
  Default of use_2d_corr is to use the efficient 2D distribution where possible
 
  Consistency checks for the contents of geometry.in are next.
 

  Range separation radius for Ewald summation (hartree_convergence_parameter):      3.15350721 bohr.
  Number of empty states per atom not set in control.in .
  | Since you are using a method that relies on the unoccupied spectrum
  | (MP2,GW,RPA et al.), will use the full Hamiltonian size (see below)
  | as the max. possible number of states (occupied plus empty).

  Structure-dependent array size parameters: 
  | Maximum number of distinct radial functions  :        9
  | Maximum number of basis functions            :      768
  | Number of Kohn-Sham states (occupied + empty):      768
------------------------------------------------------------

  Performing system and environment tests:
  | Environment variable OMP_NUM_THREADS correctly set to 1.
  | Checking for ScaLAPACK...
  | Testing pdtran()...
  | All pdtran() tests passed.
CUDA runtime version: 11060
CUDA driver version: 11060
  Initializing GPUs...

  Number of GPUs available to MPI task         0 :   1
  Number of GPUs available to MPI task         1 :   1
  Number of GPUs available to MPI task         2 :   1
  Number of GPUs available to MPI task         3 :   1
  Number of GPUs available to MPI task         4 :   1
  Number of GPUs available to MPI task         5 :   1
  Number of GPUs available to MPI task         6 :   1
  Number of GPUs available to MPI task         7 :   1
  Number of GPUs available to MPI task         8 :   1
  Number of GPUs available to MPI task         9 :   1
  Number of GPUs available to MPI task        10 :   1
  Number of GPUs available to MPI task        11 :   1
  Number of GPUs available to MPI task        12 :   1
  Number of GPUs available to MPI task        13 :   1
  Number of GPUs available to MPI task        14 :   1
  Number of GPUs available to MPI task        15 :   1
  Number of GPUs available to MPI task        16 :   1
  Number of GPUs available to MPI task        17 :   1

  | MPI task         0, GPU activated = T, Device Name = NVIDIA A100-SXM4-80GB
  | MPI task         1, GPU activated = T, Device Name = NVIDIA A100-SXM4-80GB
  | MPI task         2, GPU activated = T, Device Name = NVIDIA A100-SXM4-80GB
  | MPI task         3, GPU activated = T, Device Name = NVIDIA A100-SXM4-80GB
  | MPI task         4, GPU activated = T, Device Name = NVIDIA A100-SXM4-80GB
  | MPI task         5, GPU activated = T, Device Name = NVIDIA A100-SXM4-80GB
  | MPI task         6, GPU activated = T, Device Name = NVIDIA A100-SXM4-80GB
  | MPI task         7, GPU activated = T, Device Name = NVIDIA A100-SXM4-80GB
  | MPI task         8, GPU activated = T, Device Name = NVIDIA A100-SXM4-80GB
  | MPI task         9, GPU activated = T, Device Name = NVIDIA A100-SXM4-80GB
  | MPI task        10, GPU activated = T, Device Name = NVIDIA A100-SXM4-80GB
  | MPI task        11, GPU activated = T, Device Name = NVIDIA A100-SXM4-80GB
  | MPI task        12, GPU activated = T, Device Name = NVIDIA A100-SXM4-80GB
  | MPI task        13, GPU activated = T, Device Name = NVIDIA A100-SXM4-80GB
  | MPI task        14, GPU activated = T, Device Name = NVIDIA A100-SXM4-80GB
  | MPI task        15, GPU activated = T, Device Name = NVIDIA A100-SXM4-80GB
  | MPI task        16, GPU activated = T, Device Name = NVIDIA A100-SXM4-80GB
  | MPI task        17, GPU activated = T, Device Name = NVIDIA A100-SXM4-80GB

------------------------------------------------------------
          Preparing all fixed parts of the calculation.
------------------------------------------------------------
  Determining machine precision:
    2.225073858507201E-308
  Setting up grids for atomic and cluster calculations.

  Creating wave function, potential, and density for free atoms.
  Runtime choices for atomic solver:
  | atomic solver xc        : PW-LDA
  | compute density gradient: 0
  | compute kinetic density : F

  Species: H

  List of occupied orbitals and eigenvalues:
    n    l              occ      energy [Ha]    energy [eV]
    1    0           1.0000        -0.232375        -6.3233


  Species: O

  List of occupied orbitals and eigenvalues:
    n    l              occ      energy [Ha]    energy [eV]
    1    0           2.0000       -18.757744      -510.4242
    2    0           2.0000        -0.870917       -23.6989
    2    1           4.0000        -0.337950        -9.1961


  Adding cutoff potential to free-atom effective potential.
  Creating fixed part of basis set: Ionic, confined, hydrogenic.
 
  H                    hydrogenic:
 
  List of hydrogenic basis orbitals: 
    n    l      effective z      eigenvalue [eV]  inner max. [A]     outer max. [A]     outer radius [A]   
    2    0         2.100000       -14.9728           0.193243           1.317208           4.696947
    2    1         3.500000       -41.6669           0.602369           0.602369           3.862494
 
 
  O                    hydrogenic:
 
  List of hydrogenic basis orbitals: 
    n    l      effective z      eigenvalue [eV]  inner max. [A]     outer max. [A]     outer radius [A]   
    2    1         1.800000       -10.9749           1.164242           1.164242           4.691341
    3    2         7.600000       -87.3180           0.624125           0.624125           3.413946
    3    0         6.400000       -61.9207           0.061167           1.081902           4.151495
 
  Creating atomic-like basis functions for current effective potential.

  Species H                   :

  List of atomic basis orbitals and eigenvalues:
    n    l      energy [Ha]    energy [eV]    outer radius [A]
    1    0        -0.232375        -6.3233       4.696947


  Species O                   :

  List of atomic basis orbitals and eigenvalues:
    n    l      energy [Ha]    energy [eV]    outer radius [A]
    1    0       -18.757744      -510.4242       1.830144
    2    0        -0.870917       -23.6989       4.578029
    2    1        -0.337950        -9.1961       4.634338

  Assembling full basis from fixed parts.
  | Species H :   atomic orbital   1 s accepted.
  | Species H :    hydro orbital   2 s accepted.
  | Species H :    hydro orbital   2 p accepted.
  | Species O :   atomic orbital   1 s accepted.
  | Species O :    hydro orbital   3 s accepted.
  | Species O :   atomic orbital   2 s accepted.
  | Species O :   atomic orbital   2 p accepted.
  | Species O :    hydro orbital   2 p accepted.
  | Species O :    hydro orbital   3 d accepted.
 
  Basis size parameters after reduction:
  | Total number of radial functions:        9
  | Total number of basis functions :      768
 
  Per-task memory consumption for arrays in subroutine allocate_ext:
  |           2.268304MB.
  Testing on-site integration grid accuracy.
  |  Species  Function  <phi|h_atom|phi> (log., in eV)  <phi|h_atom|phi> (rad., in eV)
           1        1                 -6.3245358373                 -6.3232436907
           1        2                 14.1326137532                 14.1384481100
           1        3                 25.3627025200                 25.3628451197
           2        4               -510.4241781764               -510.4240769407
           2        5                 14.9072942213                 14.9072945271
           2        6                -21.2004736474                -21.2005650551
           2        7                 -9.1962086505                 -9.1963509834
           2        8                  8.1896755006                  8.1702200081
           2        9                 45.7920584937                 45.7920228520

  Preparing densities etc. for the partition functions (integrals / Hartree potential).

  Preparations completed.
  max(cpu_time)          :      0.069 s.
  Wall clock time (cpu1) :      0.064 s.
------------------------------------------------------------

  Initializing index lists of integration centers etc. from given atomic structure:
  Mapping all atomic coordinates to central unit cell.

  Initializing the k-points
  Using symmetry for reducing the k-points
  | k-points reduced from:        1 to        1
  | Number of k-points                             :         1
  | Consuming          0 KiB for k_phase_exx.
  The eigenvectors in the calculations are REAL.
  | Number of basis functions in the Hamiltonian integrals :      4283
  | Number of basis functions in a single unit cell        :       768
  | Number of centers in hartree potential         :      2486
  | Number of centers in hartree multipole         :      1760
  | Number of centers in electron density summation:      1353
  | Number of centers in basis integrals           :      1418
  | Number of centers in integrals                 :       666
  | Number of centers in hamiltonian               :      1354
  | Consuming          0 KiB for k_phase.
  | Number of super-cells (origin) [n_cells]                     :         125
  | Number of super-cells (after PM_index) [n_cells]             :          28
  | Number of super-cells in hamiltonian [n_cells_in_hamiltonian]:          28
  | Size of matrix packed + index [n_hamiltonian_matrix_size] :      686431
  | Size of matrix packed + index (no_symmetry):     1372093

------------------------------------------------------------
          Begin self-consistency loop: Initialization.

          Date     :  20230221, Time     :  152805.757
------------------------------------------------------------
  | Estimated reciprocal-space cutoff momentum G_max:         2.98996578 bohr^-1 .
  | Reciprocal lattice points for long-range Hartree potential:    3406
  Using simple linear distribution as default method for k-point parallelism.
  * Using 18 tasks for Scalapack Eigenvalue solver.
  Detailed listing of tasks and assigned k-points:
   Task     0 k-point     1 on adag038
   Task     1 k-point     1 on adag038
   Task     2 k-point     1 on adag038
   Task     3 k-point     1 on adag038
   Task     4 k-point     1 on adag038
   Task     5 k-point     1 on adag038
   Task     6 k-point     1 on adag038
   Task     7 k-point     1 on adag038
   Task     8 k-point     1 on adag038
   Task     9 k-point     1 on adag038
   Task    10 k-point     1 on adag038
   Task    11 k-point     1 on adag038
   Task    12 k-point     1 on adag038
   Task    13 k-point     1 on adag038
   Task    14 k-point     1 on adag038
   Task    15 k-point     1 on adag038
   Task    16 k-point     1 on adag038
   Task    17 k-point     1 on adag038
  K-point:     1 Tasks:    18 split into      6 X      3 BLACS grid
  Calculating block size based on n_basis =          768  max_nprow =            6  max_npcol =            3
  ScaLAPACK block size set to:           16
  Allocating        0.250 MB for ovlp
  Allocating        0.250 MB for ham
  Allocating        0.250 MB for eigenvec
  Required Scalapack workspace - INTEGER:            1  REAL:             1
  Partitioning the integration grid into batches with parallel hashing+maxmin method.
  | Number of batches:     4182
  | Maximal batch size:     200
  | Minimal batch size:      99
  | Average batch size:     121.848
  | Standard deviation of batch sizes:      20.416

  Integration load balanced across    18 MPI tasks.
  Work distribution over tasks is as follows:
  Task     0 has      28358 integration points.
  Task     1 has      28258 integration points.
  Task     2 has      28314 integration points.
  Task     3 has      28346 integration points.
  Task     4 has      28370 integration points.
  Task     5 has      28255 integration points.
  Task     6 has      28245 integration points.
  Task     7 has      28357 integration points.
  Task     8 has      28271 integration points.
  Task     9 has      28345 integration points.
  Task    10 has      28338 integration points.
  Task    11 has      28264 integration points.
  Task    12 has      28261 integration points.
  Task    13 has      28339 integration points.
  Task    14 has      28329 integration points.
  Task    15 has      28272 integration points.
  Task    16 has      28314 integration points.
  Task    17 has      28332 integration points.
  Initializing partition tables, free-atom densities, potentials, etc. across the integration grid (initialize_grid_storage).
  | initialize_grid_storage: Actual outermost partition radius vs. multipole_radius_free
  | (-- VB: in principle, multipole_radius_free should be larger, hence this output)
  | Species        1: Confinement radius =              4.999999999999999 AA, multipole_radius_free =              5.054417573612229 AA.
  | Species        1: outer_partition_radius set to              5.054417573612229 AA .
  | Species        2: Confinement radius =              4.999999999999999 AA, multipole_radius_free =              5.048384829883283 AA.
  | Species        2: outer_partition_radius set to              5.048384829883283 AA .
  | The sparse table of interatomic distances needs       4070.08 kbyte instead of     16085.79 kbyte of memory.
  | Net number of integration points:   509568
  | of which are non-zero points    :   413356
  | Numerical average free-atom electrostatic potential    :     -4.70238406 eV
  Renormalizing the initial density to the exact electron count on the 3D integration grid.
  | Initial density: Formal number of electrons (from input files) :     320.0000000000
  | Integrated number of electrons on 3D grid     :     320.0013883605
  | Charge integration error                      :       0.0013883605
  | Normalization factor for density and gradient :       0.9999956614
  Renormalizing the free-atom superposition density to the exact electron count on the 3D integration grid.
  | Formal number of electrons (from input files) :     320.0000000000
  | Integrated number of electrons on 3D grid     :     320.0013883605
  | Charge integration error                      :       0.0013883605
  | Normalization factor for density and gradient :       0.9999956614
  Obtaining max. number of non-zero basis functions in each batch (get_n_compute_maxes).
  | Maximal number of non-zero basis functions:      388 in task     0
  | Maximal number of non-zero basis functions:      362 in task     1
  | Maximal number of non-zero basis functions:      411 in task     2
  | Maximal number of non-zero basis functions:      364 in task     3
  | Maximal number of non-zero basis functions:      380 in task     4
  | Maximal number of non-zero basis functions:      392 in task     5
  | Maximal number of non-zero basis functions:      378 in task     6
  | Maximal number of non-zero basis functions:      397 in task     7
  | Maximal number of non-zero basis functions:      378 in task     8
  | Maximal number of non-zero basis functions:      388 in task     9
  | Maximal number of non-zero basis functions:      398 in task    10
  | Maximal number of non-zero basis functions:      372 in task    11
  | Maximal number of non-zero basis functions:      375 in task    12
  | Maximal number of non-zero basis functions:      382 in task    13
  | Maximal number of non-zero basis functions:      382 in task    14
  | Maximal number of non-zero basis functions:      380 in task    15
  | Maximal number of non-zero basis functions:      374 in task    16
  | Maximal number of non-zero basis functions:      379 in task    17
  Integrating Hamiltonian matrix: batch-based integration.
  GPU acceleration will be used when integrating the Hamiltonian matrix.
  Reporting GPU memory usage by myid 0.  Note that it is likely not the only MPI task binding to its GPU!
  Allocating        1.204 MB on GPU for hamiltonian_shell
  Allocating        0.621 MB on GPU for wave
  Allocating        0.002 MB on GPU for partition
  Allocating        0.621 MB on GPU for h_times_psi
  Time summed over all CPUs for integration: real work       10.656 s, elapsed       10.969 s
  Deallocating memory used on GPU for Hamiltonian integration.
  Integrating overlap matrix.
  Time summed over all CPUs for integration: real work        8.395 s, elapsed        8.680 s
  Deallocating overlap matrix.

  Updating Kohn-Sham eigenvalues and eigenvectors using ELSI and the ELPA eigensolver.
  Singularity check in k-point 1 (analysis for other k-points may follow below):
  Overlap matrix is not singular
  | Lowest and highest eigenvalues :  0.2055E-02,  0.6739E+01
  Finished singularity check of overlap matrix
  | Time :     0.157 s
  Starting ELPA eigensolver (GPU)
  Finished Cholesky decomposition
  | Time :     0.007 s
  Finished transformation to standard eigenproblem
  | Time :     0.026 s
  Finished solving standard eigenproblem
  | Time :     0.196 s
  Finished back-transformation of eigenvectors
  | Time :     0.015 s

  Obtaining occupation numbers and electronic chemical potential using ELSI.
  | Note that, for insulating systems, the printed 'chemical potential' value is not uniquely defined.
  | It can be anywhere in the energy gap, as long as it correctly separates occupied and unoccupied states.
  | In systems with a gap, the physically relevant chemical potential is the VBM or HOMO.

  | Chemical potential (Fermi level):    -7.82010625 eV
  Writing Kohn-Sham eigenvalues.

  State    Occupation    Eigenvalue [Ha]    Eigenvalue [eV]
      1       2.00000         -18.899999         -514.29515
      2       2.00000         -18.899871         -514.29165
      3       2.00000         -18.899287         -514.27578
      4       2.00000         -18.893324         -514.11351
      5       2.00000         -18.892769         -514.09841
      6       2.00000         -18.892581         -514.09329
      7       2.00000         -18.891710         -514.06959
      8       2.00000         -18.886655         -513.93204
      9       2.00000         -18.886324         -513.92301
     10       2.00000         -18.884717         -513.87929
     11       2.00000         -18.883666         -513.85070
     12       2.00000         -18.883382         -513.84297
     13       2.00000         -18.880215         -513.75680
     14       2.00000         -18.878589         -513.71254
     15       2.00000         -18.878246         -513.70322
     16       2.00000         -18.877236         -513.67573
     17       2.00000         -18.875626         -513.63191
     18       2.00000         -18.874261         -513.59476
     19       2.00000         -18.871474         -513.51894
     20       2.00000         -18.870093         -513.48136
     21       2.00000         -18.866379         -513.38030
     22       2.00000         -18.863414         -513.29960
     23       2.00000         -18.863077         -513.29043
     24       2.00000         -18.862283         -513.26884
     25       2.00000         -18.859755         -513.20006
     26       2.00000         -18.855660         -513.08863
     27       2.00000         -18.855654         -513.08845
     28       2.00000         -18.855012         -513.07099
     29       2.00000         -18.854819         -513.06573
     30       2.00000         -18.849660         -512.92534
     31       2.00000         -18.849644         -512.92492
     32       2.00000         -18.836677         -512.57207
     33       2.00000          -1.158938          -31.53631
     34       2.00000          -1.151674          -31.33865
     35       2.00000          -1.145169          -31.16163
     36       2.00000          -1.144690          -31.14860
     37       2.00000          -1.138515          -30.98056
     38       2.00000          -1.134213          -30.86350
     39       2.00000          -1.132830          -30.82588
     40       2.00000          -1.132455          -30.81567
     41       2.00000          -1.124952          -30.61150
     42       2.00000          -1.120992          -30.50375
     43       2.00000          -1.119012          -30.44988
     44       2.00000          -1.118696          -30.44128
     45       2.00000          -1.116204          -30.37347
     46       2.00000          -1.114069          -30.31536
     47       2.00000          -1.110810          -30.22668
     48       2.00000          -1.107160          -30.12735
     49       2.00000          -1.106539          -30.11045
     50       2.00000          -1.103956          -30.04016
     51       2.00000          -1.098048          -29.87941
     52       2.00000          -1.097492          -29.86428
     53       2.00000          -1.088283          -29.61370
     54       2.00000          -1.083583          -29.48578
     55       2.00000          -1.081225          -29.42164
     56       2.00000          -1.078536          -29.34846
     57       2.00000          -1.077832          -29.32929
     58       2.00000          -1.072748          -29.19095
     59       2.00000          -1.071807          -29.16535
     60       2.00000          -1.068344          -29.07112
     61       2.00000          -1.064476          -28.96587
     62       2.00000          -1.061575          -28.88692
     63       2.00000          -1.058353          -28.79924
     64       2.00000          -1.044566          -28.42410
     65       2.00000          -0.698123          -18.99689
     66       2.00000          -0.688608          -18.73797
     67       2.00000          -0.687902          -18.71877
     68       2.00000          -0.687771          -18.71521
     69       2.00000          -0.683549          -18.60031
     70       2.00000          -0.683261          -18.59247
     71       2.00000          -0.676832          -18.41753
     72       2.00000          -0.674475          -18.35340
     73       2.00000          -0.672263          -18.29321
     74       2.00000          -0.668668          -18.19538
     75       2.00000          -0.666170          -18.12742
     76       2.00000          -0.662521          -18.02811
     77       2.00000          -0.659581          -17.94812
     78       2.00000          -0.657661          -17.89588
     79       2.00000          -0.650547          -17.70228
     80       2.00000          -0.649892          -17.68446
     81       2.00000          -0.649170          -17.66483
     82       2.00000          -0.643220          -17.50290
     83       2.00000          -0.642705          -17.48891
     84       2.00000          -0.640617          -17.43207
     85       2.00000          -0.639309          -17.39648
     86       2.00000          -0.635400          -17.29012
     87       2.00000          -0.632451          -17.20987
     88       2.00000          -0.625065          -17.00889
     89       2.00000          -0.624546          -16.99477
     90       2.00000          -0.623647          -16.97031
     91       2.00000          -0.617925          -16.81460
     92       2.00000          -0.616049          -16.76355
     93       2.00000          -0.615771          -16.75598
     94       2.00000          -0.614101          -16.71055
     95       2.00000          -0.609301          -16.57993
     96       2.00000          -0.578476          -15.74113
     97       2.00000          -0.568512          -15.47001
     98       2.00000          -0.565447          -15.38660
     99       2.00000          -0.562960          -15.31893
    100       2.00000          -0.560700          -15.25743
    101       2.00000          -0.557749          -15.17712
    102       2.00000          -0.553831          -15.07051
    103       2.00000          -0.552665          -15.03879
    104       2.00000          -0.547545          -14.89947
    105       2.00000          -0.545347          -14.83965
    106       2.00000          -0.543798          -14.79749
    107       2.00000          -0.541841          -14.74424
    108       2.00000          -0.540562          -14.70944
    109       2.00000          -0.536798          -14.60701
    110       2.00000          -0.536183          -14.59028
    111       2.00000          -0.534422          -14.54237
    112       2.00000          -0.529034          -14.39574
    113       2.00000          -0.526934          -14.33860
    114       2.00000          -0.524198          -14.26414
    115       2.00000          -0.522768          -14.22523
    116       2.00000          -0.519379          -14.13302
    117       2.00000          -0.519054          -14.12419
    118       2.00000          -0.515337          -14.02303
    119       2.00000          -0.513068          -13.96129
    120       2.00000          -0.512274          -13.93969
    121       2.00000          -0.510842          -13.90072
    122       2.00000          -0.507461          -13.80871
    123       2.00000          -0.503457          -13.69975
    124       2.00000          -0.500760          -13.62637
    125       2.00000          -0.498587          -13.56723
    126       2.00000          -0.496228          -13.50304
    127       2.00000          -0.492662          -13.40600
    128       2.00000          -0.485651          -13.21523
    129       2.00000          -0.478356          -13.01674
    130       2.00000          -0.477277          -12.98737
    131       2.00000          -0.475404          -12.93640
    132       2.00000          -0.474280          -12.90582
    133       2.00000          -0.473104          -12.87381
    134       2.00000          -0.472213          -12.84957
    135       2.00000          -0.470681          -12.80788
    136       2.00000          -0.468725          -12.75466
    137       2.00000          -0.467778          -12.72887
    138       2.00000          -0.466009          -12.68075
    139       2.00000          -0.465744          -12.67354
    140       2.00000          -0.464865          -12.64962
    141       2.00000          -0.463835          -12.62158
    142       2.00000          -0.463196          -12.60420
    143       2.00000          -0.461213          -12.55025
    144       2.00000          -0.460190          -12.52242
    145       2.00000          -0.459091          -12.49249
    146       2.00000          -0.457499          -12.44917
    147       2.00000          -0.456745          -12.42866
    148       2.00000          -0.455307          -12.38953
    149       2.00000          -0.453189          -12.33189
    150       2.00000          -0.451373          -12.28247
    151       2.00000          -0.448414          -12.20198
    152       2.00000          -0.447601          -12.17983
    153       2.00000          -0.445581          -12.12488
    154       2.00000          -0.444698          -12.10084
    155       2.00000          -0.444178          -12.08670
    156       2.00000          -0.442574          -12.04305
    157       2.00000          -0.441057          -12.00176
    158       2.00000          -0.438707          -11.93782
    159       2.00000          -0.437178          -11.89623
    160       2.00000          -0.426048          -11.59335
    161       0.00000          -0.163480           -4.44851
    162       0.00000          -0.112939           -3.07323
    163       0.00000          -0.108890           -2.96305
    164       0.00000          -0.107363           -2.92149
    165       0.00000          -0.100884           -2.74519
    166       0.00000          -0.098043           -2.66787
    167       0.00000          -0.086614           -2.35688
    168       0.00000          -0.073051           -1.98781
    169       0.00000          -0.069312           -1.88608
    170       0.00000          -0.064185           -1.74657
    171       0.00000          -0.059595           -1.62165
    172       0.00000          -0.054409           -1.48055
    173       0.00000          -0.049644           -1.35089
    174       0.00000          -0.045709           -1.24379
    175       0.00000          -0.040935           -1.11390
    176       0.00000          -0.035100           -0.95513
    177       0.00000          -0.032859           -0.89415
    178       0.00000          -0.025381           -0.69064
    179       0.00000          -0.018226           -0.49596
    180       0.00000          -0.016363           -0.44525
    181       0.00000          -0.010437           -0.28402
    182       0.00000          -0.001492           -0.04061
    183       0.00000           0.002700            0.07347
    184       0.00000           0.006498            0.17682
    185       0.00000           0.014109            0.38392
    186       0.00000           0.019414            0.52828
    187       0.00000           0.023360            0.63565
    188       0.00000           0.026983            0.73424
    189       0.00000           0.031247            0.85028
    190       0.00000           0.033305            0.90627
    191       0.00000           0.036300            0.98776
    192       0.00000           0.037889            1.03100
    193       0.00000           0.041403            1.12663
    194       0.00000           0.047555            1.29405
    195       0.00000           0.050275            1.36805
    196       0.00000           0.055171            1.50127
    197       0.00000           0.057061            1.55270
    198       0.00000           0.058377            1.58852
    199       0.00000           0.060579            1.64845
    200       0.00000           0.063868            1.73792
    201       0.00000           0.066883            1.81997
    202       0.00000           0.068105            1.85322
    203       0.00000           0.072089            1.96164
    204       0.00000           0.072785            1.98059
    205       0.00000           0.075824            2.06327
    206       0.00000           0.079273            2.15713
    207       0.00000           0.081874            2.22790
    208       0.00000           0.085056            2.31450
    209       0.00000           0.085724            2.33266
    210       0.00000           0.086198            2.34557
    211       0.00000           0.089527            2.43616
    212       0.00000           0.092234            2.50983
    213       0.00000           0.092956            2.52945
    214       0.00000           0.095768            2.60599
    215       0.00000           0.099464            2.70656
    216       0.00000           0.103827            2.82528
    217       0.00000           0.107556            2.92675
    218       0.00000           0.111730            3.04032
    219       0.00000           0.113365            3.08482
    220       0.00000           0.118016            3.21138
    221       0.00000           0.123066            3.34879
    222       0.00000           0.125247            3.40813
    223       0.00000           0.130456            3.54988
    224       0.00000           0.134570            3.66183
    225       0.00000           0.139047            3.78366
    226       0.00000           0.139464            3.79501
    227       0.00000           0.145138            3.94941
    228       0.00000           0.156424            4.25653
    229       0.00000           0.158428            4.31106
    230       0.00000           0.163634            4.45270
    231       0.00000           0.167743            4.56452
    232       0.00000           0.171769            4.67408
    233       0.00000           0.177651            4.83414
    234       0.00000           0.184838            5.02969
    235       0.00000           0.190365            5.18008
    236       0.00000           0.192945            5.25029
    237       0.00000           0.202283            5.50440
    238       0.00000           0.203154            5.52811
    239       0.00000           0.207705            5.65193
    240       0.00000           0.215563            5.86576
    241       0.00000           0.217435            5.91670
    242       0.00000           0.225352            6.13215
    243       0.00000           0.231425            6.29739
    244       0.00000           0.239023            6.50415
    245       0.00000           0.245878            6.69068
    246       0.00000           0.250800            6.82462
    247       0.00000           0.254241            6.91824
    248       0.00000           0.256231            6.97239
    249       0.00000           0.267459            7.27794
    250       0.00000           0.268097            7.29530
    251       0.00000           0.277560            7.55280
    252       0.00000           0.280156            7.62345
    253       0.00000           0.287528            7.82404
    254       0.00000           0.290735            7.91129
    255       0.00000           0.296777            8.07572
    256       0.00000           0.300488            8.17670
    257       0.00000           0.301786            8.21201
    258       0.00000           0.309919            8.43333
    259       0.00000           0.315139            8.57536
    260       0.00000           0.319184            8.68543
[...]
  |    H      0     4.527807 A      4.527807 A        1.268855E-16 a.u.
  |    H      0     4.527807 A      4.583499 A       -4.900954E-17 a.u.
  |    H      0     4.527807 A      4.583499 A        4.713786E-16 a.u.
  |    H      2     3.678162 A  2.180220E+05 A            0.556529 a.u.
  |    H      1     3.958095 A  1.721251E+08 A            0.841931 a.u.
  |    H      0     4.527807 A  3.866455E+16 A            0.581436 a.u.
  |    O      0     2.043000 A      2.043000 A       -1.436841E-16 a.u.
  |    O      3     3.498446 A      3.498446 A        3.043453E-17 a.u.
  |    O      3     3.498446 A      3.498446 A        1.541443E-16 a.u.
  |    O      0     3.905335 A      3.905335 A        2.173090E-16 a.u.
  |    O      0     3.905335 A      3.905335 A        7.213445E-17 a.u.
  |    O      0     4.101052 A      4.101052 A        2.361718E-16 a.u.
  |    O      1     4.101052 A      4.101052 A        3.235185E-17 a.u.
  |    O      0     4.359549 A      4.359549 A       -5.329475E-17 a.u.
  |    O      1     4.413171 A      4.413171 A        3.261883E-17 a.u.
  |    O      1     4.522403 A      4.522403 A        6.417997E-16 a.u.
  |    O      1     4.522403 A      4.522403 A        4.224783E-16 a.u.
  |    O      2     4.522403 A      4.522403 A       -4.387647E-16 a.u.
  |    O      0     4.522403 A      4.578029 A        2.602039E-16 a.u.
  |    O      0     4.578029 A      4.578029 A        1.226235E-16 a.u.
  |    O      1     4.578029 A      4.578029 A       -6.107316E-16 a.u.
  |    O      1     4.578029 A      4.578029 A       -2.224438E-16 a.u.
  |    O      2     4.578029 A      4.578029 A       -7.020279E-16 a.u.
  |    O      2     4.522403 A      4.578029 A        1.323470E-15 a.u.
  |    O      2     4.578029 A      4.578029 A        7.923696E-16 a.u.
  |    O      2     4.522403 A      4.578029 A       -9.951815E-16 a.u.
  |    O      0     4.578029 A      4.634338 A       -8.813582E-18 a.u.
  |    O      1     4.578029 A      4.634338 A       -3.325386E-17 a.u.
  |    O      1     4.634338 A      4.634338 A        9.588032E-16 a.u.
  |    O      2     4.578029 A      4.634338 A        1.064715E-17 a.u.
  |    O      2     4.578029 A      4.634338 A       -3.770343E-15 a.u.
  |    O      4     3.251020 A  1.511584E+03 A            1.513372 a.u.
  |    O      3     3.541477 A  1.434166E+04 A            4.293220 a.u.
  |    O      2     4.634338 A  5.584435E+05 A            9.352428 a.u.
  |    O      1     4.634338 A  2.821283E+08 A            2.261940 a.u.
  |    O      0     4.578029 A  4.264100E+16 A            0.641234 a.u.

  | Shrink_full_auxil_basis : there are       38  radial auxiliary wave functions
                            accepted and       5 rejected.
  | Shrink_full_auxil_basis : there are totally                4544 partial auxiliary wave functions.
 
  | Maximal number of product basis functions per thread :   256   256
 
  | Minimal total memory requirement for three-center overlap :      10.450 Gbs
  | Number of local auxiliary basis functions on task:      0   256
  | Number of local auxiliary basis functions on task:      1   256
  | Number of local auxiliary basis functions on task:      2   256
  | Number of local auxiliary basis functions on task:      3   256
  | Number of local auxiliary basis functions on task:      4   256
  | Number of local auxiliary basis functions on task:      5   256
  | Number of local auxiliary basis functions on task:      6   256
  | Number of local auxiliary basis functions on task:      7   256
  | Number of local auxiliary basis functions on task:      8   256
  | Number of local auxiliary basis functions on task:      9   256
  | Number of local auxiliary basis functions on task:     10   256
  | Number of local auxiliary basis functions on task:     11   256
  | Number of local auxiliary basis functions on task:     12   256
  | Number of local auxiliary basis functions on task:     13   256
  | Number of local auxiliary basis functions on task:     14   240
  | Number of local auxiliary basis functions on task:     15   240
  | Number of local auxiliary basis functions on task:     16   240
  | Number of local auxiliary basis functions on task:     17   240
  | 2D aux task distribution:      3 X      6
  | 2D block size (nb_aux_2d):     64
 
  Basis pair condensation :    295296  -->     206736
 
 --------------------------------------------
  Constructing auxiliary basis (full product) ...
 
  Product basis:
  | charge radius: extent of product basis function
  | field radius: extent of its Coulomb potential
  | Species   l  charge radius    field radius  multipol momen
  |    H      1     3.910002 A      3.910002 A       -2.487223E-16 a.u.
  |    H      1     3.958095 A      3.958095 A       -2.441841E-16 a.u.
  |    H      0     4.527807 A      4.527807 A        1.268855E-16 a.u.
  |    H      0     4.527807 A      4.583499 A       -4.900954E-17 a.u.
  |    H      0     4.527807 A      4.583499 A        4.713786E-16 a.u.
  |    H      2     3.678162 A  2.180220E+05 A            0.556529 a.u.
  |    H      1     3.958095 A  1.721251E+08 A            0.841931 a.u.
  |    H      0     4.527807 A  3.866455E+16 A            0.581436 a.u.
  |    O      0     2.043000 A      2.043000 A       -1.436841E-16 a.u.
  |    O      3     3.498446 A      3.498446 A        3.043453E-17 a.u.
  |    O      3     3.498446 A      3.498446 A        1.541443E-16 a.u.
  |    O      0     3.905335 A      3.905335 A        2.173090E-16 a.u.
  |    O      0     3.905335 A      3.905335 A        7.213445E-17 a.u.
  |    O      0     4.101052 A      4.101052 A        2.361718E-16 a.u.
  |    O      1     4.101052 A      4.101052 A        3.235185E-17 a.u.
  |    O      0     4.359549 A      4.359549 A       -5.329475E-17 a.u.
  |    O      1     4.413171 A      4.413171 A        3.261883E-17 a.u.
  |    O      1     4.522403 A      4.522403 A        6.417997E-16 a.u.
  |    O      1     4.522403 A      4.522403 A        4.224783E-16 a.u.
  |    O      2     4.522403 A      4.522403 A       -4.387647E-16 a.u.
  |    O      0     4.522403 A      4.578029 A        2.602039E-16 a.u.
  |    O      0     4.578029 A      4.578029 A        1.226235E-16 a.u.
  |    O      1     4.578029 A      4.578029 A       -6.107316E-16 a.u.
  |    O      1     4.578029 A      4.578029 A       -2.224438E-16 a.u.
  |    O      2     4.578029 A      4.578029 A       -7.020279E-16 a.u.
  |    O      2     4.522403 A      4.578029 A        1.323470E-15 a.u.
  |    O      2     4.578029 A      4.578029 A        7.923696E-16 a.u.
  |    O      2     4.522403 A      4.578029 A       -9.951815E-16 a.u.
  |    O      0     4.578029 A      4.634338 A       -8.813582E-18 a.u.
  |    O      1     4.578029 A      4.634338 A       -3.325386E-17 a.u.
  |    O      1     4.634338 A      4.634338 A        9.588032E-16 a.u.
  |    O      2     4.578029 A      4.634338 A        1.064715E-17 a.u.
  |    O      2     4.578029 A      4.634338 A       -3.770343E-15 a.u.
  |    O      4     3.251020 A  1.511584E+03 A            1.513372 a.u.
  |    O      3     3.541477 A  1.434166E+04 A            4.293220 a.u.
  |    O      2     4.634338 A  5.584435E+05 A            9.352428 a.u.
  |    O      1     4.634338 A  2.821283E+08 A            2.261940 a.u.
  |    O      0     4.578029 A  4.264100E+16 A            0.641234 a.u.

  | Shrink_full_auxil_basis : there are       38  radial auxiliary wave functions
                            accepted and       5 rejected.
  | Shrink_full_auxil_basis : there are totally                4544 partial auxiliary wave functions.
 
  | Maximal number of product basis functions per thread :   256   256
 
  | Minimal total memory requirement for three-center overlap :      10.450 Gbs
  | Number of local auxiliary basis functions on task:      0   256
  | Number of local auxiliary basis functions on task:      1   256
  | Number of local auxiliary basis functions on task:      2   256
  | Number of local auxiliary basis functions on task:      3   256
  | Number of local auxiliary basis functions on task:      4   256
  | Number of local auxiliary basis functions on task:      5   256
  | Number of local auxiliary basis functions on task:      6   256
  | Number of local auxiliary basis functions on task:      7   256
  | Number of local auxiliary basis functions on task:      8   256
  | Number of local auxiliary basis functions on task:      9   256
  | Number of local auxiliary basis functions on task:     10   256
  | Number of local auxiliary basis functions on task:     11   256
  | Number of local auxiliary basis functions on task:     12   256
  | Number of local auxiliary basis functions on task:     13   256
  | Number of local auxiliary basis functions on task:     14   240
  | Number of local auxiliary basis functions on task:     15   240
  | Number of local auxiliary basis functions on task:     16   240
  | Number of local auxiliary basis functions on task:     17   240
  | 2D aux task distribution:      3 X      6
  | 2D block size (nb_aux_2d):     64
 
  Basis pair condensation :    295296  -->     206736
dP_dE (Bohr^3) at every cycle:--->
 (327.562678620978,0.000000000000000E+000) (7.11902096413966,0.000000000000000E+000) (-4.26061554463492,0.000000000000000E+000)
 (7.13346763352341,0.000000000000000E+000) (335.067093030784,0.000000000000000E+000) (6.44449566388534,0.000000000000000E+000)
 (-4.24796620849134,0.000000000000000E+000) (6.43961804837212,0.000000000000000E+000) (340.024957127431,0.000000000000000E+000)
DFPT polarizability (Bohr^3)        xx        yy        zz        xy        xz        yz
  | Polarizability:--->                       327.562678621                  335.067093031                  340.024957127                    7.119020964                   -4.260615545                    6.444495664

DFPT for dielectric_constant:--->  # PARSE DFPT_dielectric_tensor
               1.550397840860203             0.011961966437070            -0.007159037795072
               0.011986240923010             1.563007377164725             0.010828573370349
              -0.007137783336746             0.010820377598296             1.571337989509088

                                               :  max(cpu_time)    wall_clock(cpu1)
  | Time for  dielectric calculation            :        0.000 s           0.001 s
===========================================================================

------------------------------------------------------------------------------
  Final output of selected total energy values:

  The following output summarizes some interesting total energy values
  at the end of a run (AFTER all relaxation, molecular dynamics, etc.).

  | Total energy of the DFT / Hartree-Fock s.c.f. calculation      :         -66112.519020393 eV
  | Final zero-broadening corrected energy (caution - metals only) :         -66112.519020393 eV
  | For reference only, the value of 1 Hartree used in FHI-aims is :             27.211384500 eV
  | For reference only, the overall average (free atom contribution
  | + realspace contribution) of the electrostatic potential after
  | s.c.f. convergence is                                          :             -4.306517132 eV

  Before relying on these values, please be sure to understand exactly which
  total energy value is referred to by a given number. Different objects may
  all carry the same name 'total energy'. Definitions:

  Total energy of the DFT / Hartree-Fock s.c.f. calculation:
  | Note that this energy does not include ANY quantities calculated after the
  | s.c.f. cycle, in particular not ANY RPA, MP2, etc. many-body perturbation terms.

  Final zero-broadening corrected energy:
  | For metallic systems only, a broadening of the occupation numbers at the Fermi
  | level can be extrapolated back to zero broadening by an electron-gas inspired
  | formula. For all systems that are not real metals, this value can be
  | meaningless and should be avoided.

------------------------------------------------------------------------------
  Methods described in the following list of references were used in this FHI-aims run.
  If you publish the results, please make sure to cite these reference if they apply.
  FHI-aims is an academic code, and for our developers (often, Ph.D. students
  and postdocs), scientific credit in the community is essential.
  Thank you for helping us!

  For any use of FHI-aims, please cite:

    Volker Blum, Ralf Gehrke, Felix Hanke, Paula Havu, Ville Havu,
    Xinguo Ren, Karsten Reuter, and Matthias Scheffler
    'Ab initio molecular simulations with numeric atom-centered orbitals'
    Computer Physics Communications 180, 2175-2196 (2009)
    http://doi.org/10.1016/j.cpc.2009.06.022


  For Hartree-Fock, hybrid functionals, or many-body perturbation theory used in your run, please cite:

    Xinguo Ren, Patrick Rinke, Volker Blum, Juergen Wieferink, Alex Tkatchenko,
    Andrea Sanfilippo, Karsten Reuter, and Matthias Scheffler,
    'Resolution-of-identity approach to Hartree-Fock, hybrid density functionals,
    RPA, MP2, and GW with numeric atom-centered orbital basis functions'
    New Journal of Physics 14, 053020 (2012).
    http://doi.org/10.1088/1367-2630/14/5/053020


  The provided symmetry information was generated with SPGlib:

    Atsushi Togo, Yusuke Seto, Dimitar Pashov
    SPGlib 1.7.3 obtained from http://spglib.sourceforge.net
    Copyright (C) 2008 Atsushi Togo


  The DFPT (perturbation by an electric field) part of the code was used.
  Here is the corresponding reference:

    Honghui Shang, Nathaniel Raimbault, Mariana Rossi,
    Christian Carbogno, Patrick Rinke and Matthias Scheffler,
    'All-Electron, Real-Space Perturbation Theory for Homogeneous
    Electric Fields: Theory, Implementation, and Application within dft'
    New Journal of Physics, 20(7):073040, 2018


  The ELSI infrastructure was used in your run to solve the Kohn-Sham electronic structure.
  Please check out http://elsi-interchange.org to learn more.
  If scalability is important for your project, please acknowledge ELSI by citing:

    V. W-z. Yu, F. Corsetti, A. Garcia, W. P. Huhn, M. Jacquelin, W. Jia,
    B. Lange, L. Lin, J. Lu, W. Mi, A. Seifitokaldani, A. Vazquez-Mayagoitia,
    C. Yang, H. Yang, and V. Blum
    'ELSI: A unified software interface for Kohn-Sham electronic structure solvers'
    Computer Physics Communications 222, 267-285 (2018).
    http://doi.org/10.1016/j.cpc.2017.09.007


  For the real-space grid partitioning and parallelization used in this calculation, please cite:

    Ville Havu, Volker Blum, Paula Havu, and Matthias Scheffler,
    'Efficient O(N) integration for all-electron electronic structure calculation'
    'using numerically tabulated basis functions'
    Journal of Computational Physics 228, 8367-8379 (2009).
    http://doi.org/10.1016/j.jcp.2009.08.008


  The high-level electronic structure method used in your calculation
  employed our efficient localized resolution of identity for the Coulomb operator.
  Some calculations, especially large-scale hybrid density functional theory,
  are only possible thanks to this development. For this feature, please cite:

    Arvid Ihrig, Juergen Wieferink, Igor Ying Zhang, Matti Ropo, Xinguo Ren,
    Patrick Rinke, Matthias Scheffler, and Volker Blum,
    'Accurate localized resolution of identity approach for linear-scaling
    hybrid density functionals and for many-body perturbation theory'
    New Journal of Physics 117, 093020 (2015).
    http://doi.org/10.1088/1367-2630/17/9/093020

  Of course, there are many other important community references, e.g., those cited in the
  above references. Our list is limited to references that describe implementations in the
  FHI-aims code. The reason is purely practical (length of this list) - please credit others as well.

------------------------------------------------------------
          Leaving FHI-aims.
          Date     :  20230221, Time     :  153425.024

          Computational steps:
          | Number of self-consistency cycles          :           45
          | Number of SCF (re)initializations          :            1
          | Number of coupled perturbed self-consistency cycles          :            0
          | Number of CPSCF (re)initializations          :            0

          Detailed time accounting                     :  max(cpu_time)    wall_clock(cpu1)
          | Total time                                  :      379.768 s         391.395 s
          | GPU initialization                          :        2.136 s          10.617 s
          | Preparation time                            :        0.069 s           0.064 s
          | Boundary condition initalization            :        1.352 s           1.352 s
          | Grid partitioning                           :        0.401 s           0.401 s
          | Preloading free-atom quantities on grid     :        1.970 s           1.971 s
          | Free-atom superposition energy              :        0.283 s           0.282 s
          | Total time for integrations                 :       10.518 s          10.685 s
          | Product basis setup: Total time             :        0.000 s           0.000 s
          | Product basis: | 2-center integrations     :(       0.000 s)  (       0.000 s)
          | Product basis: | LVL 3-center & coefficient:(       0.000 s)  (       0.000 s)
          | Total time for solution of K.-S. equations  :        2.223 s           4.492 s
          | Total time for density update               :        7.475 s           7.687 s
          | Total time for mixing & preconditioning     :        7.682 s           7.687 s
          | Total time for Hartree multipole update     :        0.104 s           0.102 s
          | Total time for Hartree multipole sum        :       34.153 s          34.167 s
          | Total time for total energy evaluation      :        0.005 s           0.014 s
          | Total time for DFPT                         :      310.662 s         310.780 s
          | Total time first_order_DM                   :        0.265 s           0.271 s
          | Total time first_order_density              :       64.209 s          64.230 s
          | Total time first_order_potential            :       50.255 s          50.273 s
          | Total time first_order_H                    :      124.333 s         124.379 s
          | Total time solving of Sternheimer equations :        0.172 s           0.172 s
          | Total time for dielectric constant          :        0.000 s           0.001 s
          | Total time momentum matrix                  :        0.000 s           0.000 s

          GPU acceleration has been used for charge density update.
          GPU acceleration has been used for real-space Hamiltonian integration.
          Due to GPU usage, wall_clock(cpu1) will give a more reliable estimate for timings.

          Partial memory accounting:
          | Residual value for overall tracked memory usage across tasks:     0.000000 MB (should be 0.000000 MB)
          | Peak values for overall tracked memory usage:
          |   Minimum:      102.874 MB (on task  0 after allocating DFPT_pulay_mixing::pulay_mix::alphas)
          |   Maximum:      102.874 MB (on task  0 after allocating DFPT_pulay_mixing::pulay_mix::alphas)
          |   Average:      102.874 MB
          | Largest tracked array allocation:
          |   Minimum:       36.659 MB (DFPT_pulay_mixing::initialize_pulay_mixing::X_in_diffs on task  0)
          |   Maximum:       36.659 MB (DFPT_pulay_mixing::initialize_pulay_mixing::X_in_diffs on task  0)
          |   Average:       36.659 MB
          Note:  These values currently only include a subset of arrays which are explicitly tracked.
          The "true" memory usage will be greater.

          Have a nice day.
------------------------------------------------------------
