------------------------------------------------------------
          Invoking FHI-aims ...

          When using FHI-aims, please cite the following reference:

            Volker Blum, Ralf Gehrke, Felix Hanke, Paula Havu,
            Ville Havu, Xinguo Ren, Karsten Reuter, and Matthias Scheffler,
            'Ab Initio Molecular Simulations with Numeric Atom-Centered Orbitals',
            Computer Physics Communications 180, 2175-2196 (2009)

          In addition, many other developments in FHI-aims are likely important for
          your particular application. A partial list of references is given at the end of
          this file. Thank you for giving credit to the authors of these developments.

          For any questions about FHI-aims, please visit our slack channel at

            https://fhi-aims.slack.com

          and our main development and support site at

            https://aims-git.rz-berlin.mpg.de .

          The latter site, in particular, has a wiki to collect information, as well
          as an issue tracker to log discussions, suggest improvements, and report issues
          or bugs. https://aims-git.rz-berlin.mpg.de is also the main development site
          of the project and all new and updated code versions can be obtained there.
          Please send an email to aims-coordinators@fhi-berlin.mpg.de and we will add
          you to these sites. They are for you and everyone is welcome there.

------------------------------------------------------------



  Date     :  20230221, Time     :  155558.681
  Time zero on CPU 1             :   0.382525000000000E+00  s.
  Internal wall clock time zero  :           446226958.681  s.

  FHI-aims created a unique identifier for this run for later identification
  aims_uuid : BE99D72A-14B0-45AA-AB62-1AE094ABDAA3

  Build configuration of the current instance of FHI-aims
  -------------------------------------------------------
  FHI-aims version      : 221103
  Commit number         : 42523251a
  CMake host system     : Linux-5.3.18-150300.59.68-default
  CMake version         : 3.17.0
  Fortran compiler      : /mpcdf/soft/SLE_15/packages/x86_64/intel_oneapi/2021.3/mpi/2021.3.0/bin/mpiifort (Intel) version 20.2.3.20210609
  Fortran compiler flags: -O3 -ip -fp-model precise
  C compiler            : /mpcdf/soft/SLE_15/packages/x86_64/intel/2021.3.0/bin/icc (Intel) version 20.2.3.20210609
  C compiler flags      : -O3 -ip -fp-model precise -std=gnu99
  CUDA compiler         : /mpcdf/soft/SLE_15/packages/x86_64/cuda/11.6.2/bin/nvcc
  CUDA compiler flags   : -O3 -DAdd_ -lcublas
  HIP compiler          :
  HIP compiler flags    :
  HIP GPU arch          :
  ELPA2 kernel          : AVX512
  Using MPI
  Using ScaLAPACK
  Using LibXC
  Using CUDA
  Using i-PI
  Using RLSY
  Linking against: /mpcdf/soft/SLE_15/packages/x86_64/cuda/11.6.2/lib64/libcublas.so
                   /mpcdf/soft/SLE_15/packages/x86_64/cuda/11.6.2/lib64/libcudart.so
                   /mpcdf/soft/SLE_15/packages/x86_64/intel_oneapi/2021.3/mkl/latest/lib/intel64/libmkl_intel_lp64.so
                   /mpcdf/soft/SLE_15/packages/x86_64/intel_oneapi/2021.3/mkl/latest/lib/intel64/libmkl_sequential.so
                   /mpcdf/soft/SLE_15/packages/x86_64/intel_oneapi/2021.3/mkl/latest/lib/intel64/libmkl_core.so
                   /mpcdf/soft/SLE_15/packages/x86_64/intel_oneapi/2021.3/mkl/latest/lib/intel64/libmkl_blacs_intelmpi_lp64.so
                   /mpcdf/soft/SLE_15/packages/x86_64/intel_oneapi/2021.3/mkl/latest/lib/intel64/libmkl_scalapack_lp64.so

  Using       18 parallel tasks.
  Task        0 on host adag037 reporting.
  Task        1 on host adag037 reporting.
  Task        2 on host adag037 reporting.
  Task        3 on host adag037 reporting.
  Task        4 on host adag037 reporting.
  Task        5 on host adag037 reporting.
  Task        6 on host adag037 reporting.
  Task        7 on host adag037 reporting.
  Task        8 on host adag037 reporting.
  Task        9 on host adag037 reporting.
  Task       10 on host adag037 reporting.
  Task       11 on host adag037 reporting.
  Task       12 on host adag037 reporting.
  Task       13 on host adag037 reporting.
  Task       14 on host adag037 reporting.
  Task       15 on host adag037 reporting.
  Task       16 on host adag037 reporting.
  Task       17 on host adag037 reporting.

  Obtaining array dimensions for all initial allocations:
  
  -----------------------------------------------------------------------
  Parsing control.in (first pass over file, find array dimensions only).
  The contents of control.in will be repeated verbatim below
  unless switched off by setting 'verbatim_writeout .false.' .
  in the first line of control.in .
  -----------------------------------------------------------------------
  
  #########################################################################################
  #
  #  Volker Blum, 2017 : Test run input file control.in for simple H2O
  #
  #########################################################################################
  #
  #  Physical model
  #
    xc                 pw-lda
    spin               none
    relativistic       none
    charge             0.
  
    use_gpu
  
    DFPT dielectric
    ri_density_restart write
    ri_rho1 write
  #  ri_density_restart read 0
  #  ri_rho1 read
    ri_full_output .true.
    sc_accuracy_rho    1d-6
  #  use_calculate_fock_matrix_old .false.
  #  wave_threshold 1e-8
    k_grid 1 1 1
  #  output cube eigenstate 160
  #  output cube eigenstate 161
    wave_threshold 1e-8
    default_prodbas_acc 1e-6
    default_max_l_prodbas 6
  #
  #  Relaxation
  #
  #  relax_geometry   bfgs 1.e-2
  #
  
  ################################################################################
  
  
  ################################################################################
  #
  #  FHI-aims code project
  #  VB, Fritz-Haber Institut, 2009
  #
  #  Suggested "light" defaults for H atom (to be pasted into control.in file)
  #  Be sure to double-check any results obtained with these settings for post-processing,
  #  e.g., with the "tight" defaults and larger basis sets.
  #
  ################################################################################
    species        H
  #     global species definitions
      nucleus             1
      mass                1.00794
  #
      l_hartree           4
  #
      cut_pot             3.5  1.5  1.0
      basis_dep_cutoff    1e-4
  #
      radial_base         24 5.0
      radial_multiplier   1
      angular_grids       specified
        division   0.2421   50
        division   0.3822  110
        division   0.4799  194
        division   0.5341  302
  #      division   0.5626  434
  #      division   0.5922  590
  #      division   0.6542  770
  #      division   0.6868 1202
  #      outer_grid  770
        outer_grid  302
  ################################################################################
  #
  #  Definition of "minimal" basis
  #
  ################################################################################
  #     valence basis states
      valence      1  s   1.
  #     ion occupancy
      ion_occ      1  s   0.5
  ################################################################################
  #
  #  Suggested additional basis functions. For production calculations,
  #  uncomment them one after another (the most important basis functions are
  #  listed first).
  #
  #  Basis constructed for dimers: 0.5 A, 0.7 A, 1.0 A, 1.5 A, 2.5 A
  #
  ################################################################################
  #  "First tier" - improvements: -1014.90 meV to -62.69 meV
       hydro 2 s 2.1
       hydro 2 p 3.5
  #  "Second tier" - improvements: -12.89 meV to -1.83 meV
  #     hydro 1 s 0.85
  #     hydro 2 p 3.7
  #     hydro 2 s 1.2
  #     hydro 3 d 7
  #  "Third tier" - improvements: -0.25 meV to -0.12 meV
  #     hydro 4 f 11.2
  #     hydro 3 p 4.8
  #     hydro 4 d 9
  #     hydro 3 s 3.2
  ################################################################################
  #
  #  FHI-aims code project
  #  VB, Fritz-Haber Institut, 2009
  #
  #  Suggested "light" defaults for O atom (to be pasted into control.in file)
  #  Be sure to double-check any results obtained with these settings for post-processing,
  #  e.g., with the "tight" defaults and larger basis sets.
  #
  ################################################################################
    species        O
  #     global species definitions
      nucleus             8
      mass                15.9994
  #
      l_hartree           4
  #
      cut_pot             3.5  1.5  1.0
      basis_dep_cutoff    1e-4
  #
      radial_base         36 5.0
      radial_multiplier   1
       angular_grids specified
        division   0.2659   50
        division   0.4451  110
        division   0.6052  194
        division   0.7543  302
  #      division   0.8014  434
  #      division   0.8507  590
  #      division   0.8762  770
  #      division   0.9023  974
  #      division   1.2339 1202
  #      outer_grid 974
        outer_grid 302
  ################################################################################
  #
  #  Definition of "minimal" basis
  #
  ################################################################################
  #     valence basis states
      valence      2  s   2.
      valence      2  p   4.
  #     ion occupancy
      ion_occ      2  s   1.
      ion_occ      2  p   3.
  ################################################################################
  #
  #  Suggested additional basis functions. For production calculations,
  #  uncomment them one after another (the most important basis functions are
  #  listed first).
  #
  #  Constructed for dimers: 1.0 A, 1.208 A, 1.5 A, 2.0 A, 3.0 A
  #
  ################################################################################
  #  "First tier" - improvements: -699.05 meV to -159.38 meV
       hydro 2 p 1.8
       hydro 3 d 7.6
       hydro 3 s 6.4
  #  "Second tier" - improvements: -49.91 meV to -5.39 meV
  #     hydro 4 f 11.6
  #     hydro 3 p 6.2
  #     hydro 3 d 5.6
  #     hydro 5 g 17.6
  #     hydro 1 s 0.75
  #  "Third tier" - improvements: -2.83 meV to -0.50 meV
  #     ionic 2 p auto
  #     hydro 4 f 10.8
  #     hydro 4 d 4.7
  #     hydro 2 s 6.8
  #  "Fourth tier" - improvements: -0.40 meV to -0.12 meV
  #     hydro 3 p 5
  #     hydro 3 s 3.3
  #     hydro 5 g 15.6
  #     hydro 4 f 17.6
  #     hydro 4 d 14
  # Further basis functions - -0.08 meV and below
  #     hydro 3 s 2.1
  #     hydro 4 d 11.6
  #     hydro 3 p 16
  #     hydro 2 s 17.2
  
  -----------------------------------------------------------------------
  Completed first pass over input file control.in .
  -----------------------------------------------------------------------
  
  
  -----------------------------------------------------------------------
  Parsing geometry.in (first pass over file, find array dimensions only).
  The contents of geometry.in will be repeated verbatim below
  unless switched off by setting 'verbatim_writeout .false.' .
  in the first line of geometry.in .
  -----------------------------------------------------------------------
  
  #=======================================================
  # FHI-aims file: /ada/ptmp/mpsd/alewis/bulk_water/qmdata/data/geoms/205.in
  # Created using the Atomic Simulation Environment (ASE)
  # Tue Feb 21 11:23:37 2023
  #=======================================================
  lattice_vector 9.6671700000000005 0.0000000000000000 0.0000000000000000
  lattice_vector 0.0000000000000000 9.6671700000000005 0.0000000000000000
  lattice_vector 0.0000000000000000 0.0000000000000000 9.6671700000000005
  atom -0.6628210000000000 20.4220000000000006 -19.1499999999999986 O
  atom -1.2498100000000001 21.0618000000000016 -18.8541999999999987 H
  atom 0.0365310000000000 20.7778999999999989 -19.6251999999999995 H
  atom -14.0991999999999997 -0.0570910000000000 8.4624600000000001 O
  atom -13.4077000000000002 -0.5035630000000000 8.2996200000000009 H
  atom -14.6775000000000002 -0.0917630000000000 7.6943700000000002 H
  atom -6.1016500000000002 -12.1559000000000008 21.3811000000000000 O
  atom -6.0136200000000004 -11.3683999999999994 21.7411999999999992 H
  atom -5.2920400000000001 -12.6126000000000005 21.9075999999999986 H
  atom 1.8281700000000001 1.8859999999999999 -0.4972570000000000 O
  atom 2.0190899999999998 2.8132700000000002 -0.6419280000000001 H
  atom 2.2357200000000002 1.8195300000000001 0.3987730000000000 H
  atom -5.9021400000000002 -1.1720299999999999 23.9404000000000003 O
  atom -5.6937400000000000 -0.1830700000000000 24.1724999999999994 H
  atom -6.4432200000000002 -1.3557999999999999 24.7829000000000015 H
  atom -13.5386000000000006 2.6122999999999998 36.3663999999999987 O
  atom -13.4192999999999998 1.8660000000000001 36.9966999999999970 H
  atom -12.4460999999999995 2.6441300000000001 36.3003000000000000 H
  atom 13.7515999999999998 -2.5719799999999999 -0.9768850000000000 O
  atom 13.6928000000000001 -2.7875299999999998 0.1085890000000000 H
  atom 14.2385999999999999 -1.7887700000000000 -1.0260899999999999 H
  atom -21.9198999999999984 -18.9323000000000015 3.6875499999999999 O
  atom -22.5758000000000010 -19.0120000000000005 2.9193099999999998 H
  atom -21.8129999999999988 -19.8343999999999987 3.7504100000000000 H
  atom 11.6822999999999997 7.0039699999999998 -2.6359200000000000 O
  atom 10.8575999999999997 7.0418099999999999 -2.0940900000000000 H
  atom 12.5137999999999998 7.1271699999999996 -2.0669599999999999 H
  atom 9.2644199999999994 -0.3460310000000000 6.7692399999999999 O
  atom 9.4620700000000006 -0.6461500000000000 7.6345799999999997 H
  atom 9.2859900000000000 0.7225450000000000 6.9525800000000002 H
  atom 1.9508000000000001 1.8028700000000000 -24.1280000000000001 O
  atom 2.2492899999999998 1.0051099999999999 -23.5232999999999990 H
  atom 0.9354350000000000 1.7910600000000001 -24.1457000000000015 H
  atom 5.6376499999999998 -13.6957000000000004 2.3251700000000000 O
  atom 5.0169300000000003 -14.4033999999999995 2.6635800000000001 H
  atom 5.6716100000000003 -13.8789999999999996 1.3382400000000001 H
  atom 3.7063500000000000 13.6797000000000004 -15.7187999999999999 O
  atom 2.8933300000000002 13.9083000000000006 -16.0300000000000011 H
  atom 3.6990400000000001 12.7817000000000007 -15.4725999999999999 H
  atom -8.9553499999999993 5.6084600000000000 4.6296299999999997 O
  atom -8.4113199999999999 5.1493300000000000 5.4050399999999996 H
  atom -9.8423099999999994 5.4536699999999998 4.5610600000000003 H
  atom 1.8221300000000000 14.6967999999999996 2.0802399999999999 O
  atom 2.3822199999999998 15.5582999999999991 2.0788500000000001 H
  atom 1.1382200000000000 14.7005999999999997 2.8948399999999999 H
  atom -3.4749099999999999 14.9082000000000008 9.3333399999999997 O
  atom -3.0710700000000002 15.7573000000000008 9.1614599999999999 H
  atom -4.2626700000000000 14.9181000000000008 8.9680400000000002 H
  atom 15.8170000000000002 -3.1020200000000000 -13.5571000000000002 O
  atom 15.2258999999999993 -3.6837100000000000 -13.3376999999999999 H
  atom 15.3300000000000001 -2.3162400000000001 -13.9715000000000007 H
  atom -9.3147800000000007 17.0797999999999988 18.8076000000000008 O
  atom -9.2736300000000007 16.0015000000000001 18.9405999999999999 H
  atom -9.2503499999999992 17.4591999999999992 19.5843999999999987 H
  atom 7.7885099999999996 14.8645999999999994 -15.1644000000000005 O
  atom 7.4524600000000003 15.3369999999999997 -14.4048999999999996 H
  atom 7.4207299999999998 15.1910000000000007 -15.8406000000000002 H
  atom -9.4590399999999999 -5.1569599999999998 -0.0052080000000000 O
  atom -10.3181999999999992 -5.6879200000000001 0.0650210000000000 H
  atom -8.9655000000000005 -5.1065600000000000 0.8713050000000000 H
  atom 12.2934999999999999 20.4380999999999986 2.1420599999999999 O
  atom 12.4321000000000002 20.6204000000000001 2.9775399999999999 H
  atom 11.7172000000000001 19.7510000000000012 1.9488799999999999 H
  atom 16.8454000000000015 7.6606600000000000 18.1996000000000002 O
  atom 17.9055999999999997 7.6244300000000003 18.4274999999999984 H
  atom 16.9875000000000007 7.2285500000000003 17.2153999999999989 H
  atom 28.7322999999999986 8.1415600000000001 33.4072999999999993 O
  atom 28.9379999999999988 8.4705999999999992 34.3188999999999993 H
  atom 29.1054999999999993 7.2119000000000000 33.4724999999999966 H
  atom -8.2421699999999998 -5.5880799999999997 -3.1312899999999999 O
  atom -7.9073700000000002 -6.3412400000000000 -3.5650700000000000 H
  atom -7.5789299999999997 -4.9616499999999997 -2.7952699999999999 H
  atom -4.4046700000000003 0.6406610000000000 -8.3400099999999995 O
  atom -4.4771500000000000 0.5219060000000000 -9.3198200000000000 H
  atom -5.4986199999999998 0.8198460000000000 -8.0477100000000004 H
  atom 8.7222700000000000 11.8204999999999991 -5.2240399999999996 O
  atom 8.2711900000000007 11.1630000000000003 -5.7250300000000003 H
  atom 8.1004199999999997 12.5698000000000008 -5.5212599999999998 H
  atom 12.6082999999999998 9.6624999999999996 16.7267000000000010 O
  atom 12.1556999999999995 8.7239199999999997 16.6692999999999998 H
  atom 11.9948999999999995 10.2156000000000002 17.0404000000000018 H
  atom 26.4724000000000004 12.5484000000000009 10.5014000000000003 O
  atom 25.7235000000000014 12.0311000000000003 10.6492000000000004 H
  atom 25.9469999999999992 13.4306000000000001 10.2123000000000008 H
  atom 18.0213000000000001 -7.1353900000000001 16.6643000000000008 O
  atom 18.0717999999999996 -7.0443199999999999 15.5617999999999999 H
  atom 18.8566000000000003 -6.6892500000000004 16.9274999999999984 H
  atom 4.2330100000000002 4.8537999999999997 16.1056999999999988 O
  atom 4.9693199999999997 4.1160600000000001 16.3973000000000013 H
  atom 4.0295800000000002 4.6377199999999998 15.2965000000000000 H
  atom -4.7252000000000001 10.8267000000000007 -4.5665100000000001 O
  atom -3.9331299999999998 10.6318000000000001 -4.9742699999999997 H
  atom -4.8581700000000003 11.2824000000000009 -3.7185000000000001 H
  atom 0.5998170000000000 8.8812499999999996 1.7437800000000001 O
  atom -0.0224330000000000 9.4015799999999992 1.2545299999999999 H
  atom 0.1739860000000000 8.9620499999999996 2.4673099999999999 H
  
  -----------------------------------------------------------------------
  Completed first pass over input file geometry.in .
  -----------------------------------------------------------------------
  

  Basic array size parameters:
  | Number of species                 :        2
  | Number of atoms                   :       96
  | Number of lattice vectors         :        3
  | Max. basis fn. angular momentum   :        2
  | Max. atomic/ionic basis occupied n:        2
  | Max. number of basis fn. types    :        2
  | Max. radial fns per species/type  :        3
  | Max. logarithmic grid size        :     1301
  | Max. radial integration grid size :       36
  | Max. angular integration grid size:      302
  | Max. angular grid division number :        8
  | Radial grid for Hartree potential :     1301
  | Number of spin channels           :        1

------------------------------------------------------------
          Reading file control.in.
------------------------------------------------------------
  XC: Using Perdew-Wang parametrisation of Ceperley-Alder LDA.
  Spin treatment: No spin polarisation.
  Non-relativistic treatment of kinetic energy.
  Charge =   0.000000E+00: Neutral system requested explicitly.
  DFPT calculation will begin after the DFT/HF calculation.
  Convergence accuracy of self-consistent charge density:  0.1000E-05
  Found k-point grid:         1         1         1
  Threshold value for wave function integration:  0.1000E-07
 
  Reading configuration options for species H                   .
  | Found nuclear charge :   1.0000
  | Found atomic mass :    1.00794000000000      amu
  | Found l_max for Hartree potential  :   4
  | Found cutoff potl. onset [A], width [A], scale factor :    3.50000    1.50000    1.00000
  | Threshold for basis-dependent cutoff potential is   0.100000E-03
  | Found data for basic radial integration grid :    24 points, outermost radius =    5.000 A
  | Found multiplier for basic radial grid :   1
  | Found angular grid specification: user-specified.
  | Specified grid contains     5 separate shells.
  | Check grid settings after all constraints further below.
  | Found free-atom valence shell :  1 s   1.000
  | No ionic wave fns used. Skipping ion_occ.
  | Found hydrogenic basis function :  2 s   2.100
  | Found hydrogenic basis function :  2 p   3.500
  Species H                   : Missing cutoff potential type.
  Defaulting to exp(1/x)/(1-x)^2 type cutoff potential.
  Species H : No 'logarithmic' tag. Using default grid for free atom:
  | Default logarithmic grid data [bohr] : 0.1000E-03 0.1000E+03 0.1012E+01
  Species H : On-site basis accuracy parameter (for Gram-Schmidt orthonormalisation) not specified.
  Using default value basis_acc =  0.1000000E-03.
  Species H                   : Using default innermost maximum threshold i_radial=  2 for radial functions.
  Species H                   : Default cutoff onset for free atom density etc. : 0.35000000E+01 AA.
  Species H                   : Basic radial grid will be enhanced according to radial_multiplier =   1, to contain    24 grid points.
 
  Reading configuration options for species O                   .
  | Found nuclear charge :   8.0000
  | Found atomic mass :    15.9994000000000      amu
  | Found l_max for Hartree potential  :   4
  | Found cutoff potl. onset [A], width [A], scale factor :    3.50000    1.50000    1.00000
  | Threshold for basis-dependent cutoff potential is   0.100000E-03
  | Found data for basic radial integration grid :    36 points, outermost radius =    5.000 A
  | Found multiplier for basic radial grid :   1
  | Found angular grid specification: user-specified.
  | Specified grid contains     5 separate shells.
  | Check grid settings after all constraints further below.
  | Found free-atom valence shell :  2 s   2.000
  | Found free-atom valence shell :  2 p   4.000
  | No ionic wave fns used. Skipping ion_occ.
  | No ionic wave fns used. Skipping ion_occ.
  | Found hydrogenic basis function :  2 p   1.800
  | Found hydrogenic basis function :  3 d   7.600
  | Found hydrogenic basis function :  3 s   6.400
  Species O                   : Missing cutoff potential type.
  Defaulting to exp(1/x)/(1-x)^2 type cutoff potential.
  Species O : No 'logarithmic' tag. Using default grid for free atom:
  | Default logarithmic grid data [bohr] : 0.1000E-03 0.1000E+03 0.1012E+01
  Species O : On-site basis accuracy parameter (for Gram-Schmidt orthonormalisation) not specified.
  Using default value basis_acc =  0.1000000E-03.
  Species O                   : Using default innermost maximum threshold i_radial=  2 for radial functions.
  Species O                   : Default cutoff onset for free atom density etc. : 0.35000000E+01 AA.
  Species O                   : Basic radial grid will be enhanced according to radial_multiplier =   1, to contain    36 grid points.
 
  Finished reading input file 'control.in'.
 
------------------------------------------------------------


------------------------------------------------------------
          Reading geometry description geometry.in.
------------------------------------------------------------
  | The smallest distance between any two atoms is         0.83608943 AA.
  | The first atom of this pair is atom number                     55 .
  | The second atom of this pair is atom number                    57 .
  | Wigner-Seitz cell of the first atom image           0     0     0 .
  | (The Wigner-Seitz cell of the second atom is 0 0 0  by definition.)

  Symmetry information by spglib:
  | Precision set to  0.1E-04
  | Number of Operations  : 1
  | Space group           : 1
  | International         : P1        O
  | Schoenflies           : C1^1
  Input structure read successfully.
  The structure contains       96 atoms,  and a total of        320.000 electrons.

  Input geometry:
  | Unit cell:
  |        9.66717000        0.00000000        0.00000000
  |        0.00000000        9.66717000        0.00000000
  |        0.00000000        0.00000000        9.66717000
  | Atomic structure:
  |       Atom                x [A]            y [A]            z [A]
  |    1: Species O            -0.66282100       20.42200000      -19.15000000
  |    2: Species H            -1.24981000       21.06180000      -18.85420000
  |    3: Species H             0.03653100       20.77790000      -19.62520000
  |    4: Species O           -14.09920000       -0.05709100        8.46246000
  |    5: Species H           -13.40770000       -0.50356300        8.29962000
  |    6: Species H           -14.67750000       -0.09176300        7.69437000
  |    7: Species O            -6.10165000      -12.15590000       21.38110000
  |    8: Species H            -6.01362000      -11.36840000       21.74120000
  |    9: Species H            -5.29204000      -12.61260000       21.90760000
  |   10: Species O             1.82817000        1.88600000       -0.49725700
  |   11: Species H             2.01909000        2.81327000       -0.64192800
  |   12: Species H             2.23572000        1.81953000        0.39877300
  |   13: Species O            -5.90214000       -1.17203000       23.94040000
  |   14: Species H            -5.69374000       -0.18307000       24.17250000
  |   15: Species H            -6.44322000       -1.35580000       24.78290000
  |   16: Species O           -13.53860000        2.61230000       36.36640000
  |   17: Species H           -13.41930000        1.86600000       36.99670000
  |   18: Species H           -12.44610000        2.64413000       36.30030000
  |   19: Species O            13.75160000       -2.57198000       -0.97688500
  |   20: Species H            13.69280000       -2.78753000        0.10858900
  |   21: Species H            14.23860000       -1.78877000       -1.02609000
  |   22: Species O           -21.91990000      -18.93230000        3.68755000
  |   23: Species H           -22.57580000      -19.01200000        2.91931000
  |   24: Species H           -21.81300000      -19.83440000        3.75041000
  |   25: Species O            11.68230000        7.00397000       -2.63592000
  |   26: Species H            10.85760000        7.04181000       -2.09409000
  |   27: Species H            12.51380000        7.12717000       -2.06696000
  |   28: Species O             9.26442000       -0.34603100        6.76924000
  |   29: Species H             9.46207000       -0.64615000        7.63458000
  |   30: Species H             9.28599000        0.72254500        6.95258000
  |   31: Species O             1.95080000        1.80287000      -24.12800000
  |   32: Species H             2.24929000        1.00511000      -23.52330000
  |   33: Species H             0.93543500        1.79106000      -24.14570000
  |   34: Species O             5.63765000      -13.69570000        2.32517000
  |   35: Species H             5.01693000      -14.40340000        2.66358000
  |   36: Species H             5.67161000      -13.87900000        1.33824000
  |   37: Species O             3.70635000       13.67970000      -15.71880000
  |   38: Species H             2.89333000       13.90830000      -16.03000000
  |   39: Species H             3.69904000       12.78170000      -15.47260000
  |   40: Species O            -8.95535000        5.60846000        4.62963000
  |   41: Species H            -8.41132000        5.14933000        5.40504000
  |   42: Species H            -9.84231000        5.45367000        4.56106000
  |   43: Species O             1.82213000       14.69680000        2.08024000
  |   44: Species H             2.38222000       15.55830000        2.07885000
  |   45: Species H             1.13822000       14.70060000        2.89484000
  |   46: Species O            -3.47491000       14.90820000        9.33334000
  |   47: Species H            -3.07107000       15.75730000        9.16146000
  |   48: Species H            -4.26267000       14.91810000        8.96804000
  |   49: Species O            15.81700000       -3.10202000      -13.55710000
  |   50: Species H            15.22590000       -3.68371000      -13.33770000
  |   51: Species H            15.33000000       -2.31624000      -13.97150000
  |   52: Species O            -9.31478000       17.07980000       18.80760000
  |   53: Species H            -9.27363000       16.00150000       18.94060000
  |   54: Species H            -9.25035000       17.45920000       19.58440000
  |   55: Species O             7.78851000       14.86460000      -15.16440000
  |   56: Species H             7.45246000       15.33700000      -14.40490000
  |   57: Species H             7.42073000       15.19100000      -15.84060000
  |   58: Species O            -9.45904000       -5.15696000       -0.00520800
  |   59: Species H           -10.31820000       -5.68792000        0.06502100
  |   60: Species H            -8.96550000       -5.10656000        0.87130500
  |   61: Species O            12.29350000       20.43810000        2.14206000
  |   62: Species H            12.43210000       20.62040000        2.97754000
  |   63: Species H            11.71720000       19.75100000        1.94888000
  |   64: Species O            16.84540000        7.66066000       18.19960000
  |   65: Species H            17.90560000        7.62443000       18.42750000
  |   66: Species H            16.98750000        7.22855000       17.21540000
  |   67: Species O            28.73230000        8.14156000       33.40730000
  |   68: Species H            28.93800000        8.47060000       34.31890000
  |   69: Species H            29.10550000        7.21190000       33.47250000
  |   70: Species O            -8.24217000       -5.58808000       -3.13129000
  |   71: Species H            -7.90737000       -6.34124000       -3.56507000
  |   72: Species H            -7.57893000       -4.96165000       -2.79527000
  |   73: Species O            -4.40467000        0.64066100       -8.34001000
  |   74: Species H            -4.47715000        0.52190600       -9.31982000
  |   75: Species H            -5.49862000        0.81984600       -8.04771000
  |   76: Species O             8.72227000       11.82050000       -5.22404000
  |   77: Species H             8.27119000       11.16300000       -5.72503000
  |   78: Species H             8.10042000       12.56980000       -5.52126000
  |   79: Species O            12.60830000        9.66250000       16.72670000
  |   80: Species H            12.15570000        8.72392000       16.66930000
  |   81: Species H            11.99490000       10.21560000       17.04040000
  |   82: Species O            26.47240000       12.54840000       10.50140000
  |   83: Species H            25.72350000       12.03110000       10.64920000
  |   84: Species H            25.94700000       13.43060000       10.21230000
  |   85: Species O            18.02130000       -7.13539000       16.66430000
  |   86: Species H            18.07180000       -7.04432000       15.56180000
  |   87: Species H            18.85660000       -6.68925000       16.92750000
  |   88: Species O             4.23301000        4.85380000       16.10570000
  |   89: Species H             4.96932000        4.11606000       16.39730000
  |   90: Species H             4.02958000        4.63772000       15.29650000
  |   91: Species O            -4.72520000       10.82670000       -4.56651000
  |   92: Species H            -3.93313000       10.63180000       -4.97427000
  |   93: Species H            -4.85817000       11.28240000       -3.71850000
  |   94: Species O             0.59981700        8.88125000        1.74378000
  |   95: Species H            -0.02243300        9.40158000        1.25453000
  |   96: Species H             0.17398600        8.96205000        2.46731000

  Lattice parameters for 3D lattice (in Angstroms) :     9.667170    9.667170    9.667170
  Angle(s) between unit vectors (in degrees)       :    90.000000   90.000000   90.000000


  Quantities derived from the lattice vectors (in Angstrom^-1):
  | Reciprocal lattice vector 1:  0.649951  0.000000  0.000000
  | Reciprocal lattice vector 2:  0.000000  0.649951  0.000000
  | Reciprocal lattice vector 3:  0.000000  0.000000  0.649951
  | Unit cell volume                               :   0.903437E+03  Angstrom^3

  Fractional coordinates:
                         L1                L2                L3
       atom_frac        -0.06856412        2.11251069       -1.98093134  O
       atom_frac        -0.12928396        2.17869345       -1.95033293  H
       atom_frac         0.00377887        2.14932602       -2.03008740  H
       atom_frac        -1.45846199       -0.00590566        0.87538132  O
       atom_frac        -1.38693123       -0.05209001        0.85853668  H
       atom_frac        -1.51828301       -0.00949223        0.79592787  H
       atom_frac        -0.63117231       -1.25744142        2.21172277  O
       atom_frac        -0.62206623       -1.17598015        2.24897255  H
       atom_frac        -0.54742391       -1.30468379        2.26618545  H
       atom_frac         0.18911119        0.19509329       -0.05143770  O
       atom_frac         0.20886050        0.29101278       -0.06640289  H
       atom_frac         0.23126934        0.18821744        0.04125023  H
       atom_frac        -0.61053442       -0.12123817        2.47646416  O
       atom_frac        -0.58897692       -0.01893729        2.50047325  H
       atom_frac        -0.66650530       -0.14024787        2.56361479  H
       atom_frac        -1.40047191        0.27022386        3.76184550  O
       atom_frac        -1.38813117        0.19302443        3.82704556  H
       atom_frac        -1.28746055        0.27351645        3.75500793  H
       atom_frac         1.42250524       -0.26605304       -0.10105181  O
       atom_frac         1.41642280       -0.28835016        0.01123276  H
       atom_frac         1.47288193       -0.18503554       -0.10614171  H
       atom_frac        -2.26745780       -1.95841182        0.38145083  O
       atom_frac        -2.33530599       -1.96665622        0.30198186  H
       atom_frac        -2.25639975       -2.05172765        0.38795325  H
       atom_frac         1.20845087        0.72451090       -0.27266718  O
       atom_frac         1.12314152        0.72842518       -0.21661872  H
       atom_frac         1.29446363        0.73725506       -0.21381232  H
       atom_frac         0.95833838       -0.03579445        0.70022975  O
       atom_frac         0.97878386       -0.06683962        0.78974302  H
       atom_frac         0.96056964        0.07474214        0.71919497  H
       atom_frac         0.20179639        0.18649408       -2.49587004  O
       atom_frac         0.23267306        0.10397148       -2.43331813  H
       atom_frac         0.09676410        0.18527242       -2.49770098  H
       atom_frac         0.58317481       -1.41672278        0.24052230  O
       atom_frac         0.51896574       -1.48992932        0.27552841  H
       atom_frac         0.58668773       -1.43568387        0.13843141  H
       atom_frac         0.38339555        1.41506770       -1.62599809  O
       atom_frac         0.29929442        1.43871474       -1.65818952  H
       atom_frac         0.38263939        1.32217598       -1.60053046  H
       atom_frac        -0.92636728        0.58015531        0.47890231  O
       atom_frac        -0.87009125        0.53266158        0.55911296  H
       atom_frac        -1.01811699        0.56414338        0.47180923  H
       atom_frac         0.18848639        1.52027946        0.21518604  O
       atom_frac         0.24642372        1.60939551        0.21504225  H
       atom_frac         0.11774077        1.52067254        0.29945061  H
       atom_frac        -0.35945473        1.54214729        0.96546766  O
       atom_frac        -0.31768036        1.62998065        0.94768790  H
       atom_frac        -0.44094290        1.54317137        0.92767997  H
       atom_frac         1.63615619       -0.32088191       -1.40238560  O
       atom_frac         1.57501109       -0.38105361       -1.37969023  H
       atom_frac         1.58577950       -0.23959856       -1.44525233  H
       atom_frac        -0.96354776        1.76678387        1.94551249  O
       atom_frac        -0.95929109        1.65524140        1.95927040  H
       atom_frac        -0.95688293        1.80603010        2.02586693  H
       atom_frac         0.80566598        1.53763718       -1.56864936  O
       atom_frac         0.77090400        1.58650360       -1.49008448  H
       atom_frac         0.76762175        1.57140094       -1.63859744  H
       atom_frac        -0.97847043       -0.53345084       -0.00053873  O
       atom_frac        -1.06734442       -0.58837488        0.00672596  H
       atom_frac        -0.92741723       -0.52823732        0.09013031  H
       atom_frac         1.27167516        2.11417612        0.22158088  O
       atom_frac         1.28601235        2.13303376        0.30800534  H
       atom_frac         1.21206103        2.04310051        0.20159778  H
       atom_frac         1.74253685        0.79244081        1.88261922  O
       atom_frac         1.85220701        0.78869307        1.90619385  H
       atom_frac         1.75723609        0.74774210        1.78081072  H
       atom_frac         2.97215214        0.84218649        3.45574765  O
       atom_frac         2.99343034        0.87622334        3.55004619  H
       atom_frac         3.01075703        0.74601978        3.46249213  H
       atom_frac        -0.85259388       -0.57804714       -0.32390969  O
       atom_frac        -0.81796120       -0.65595619       -0.36878114  H
       atom_frac        -0.78398642       -0.51324741       -0.28915081  H
       atom_frac        -0.45563179        0.06627183       -0.86271473  O
       atom_frac        -0.46312933        0.05398746       -0.96406911  H
       atom_frac        -0.56879314        0.08480724       -0.83247838  H
       atom_frac         0.90225681        1.22274668       -0.54038979  O
       atom_frac         0.85559579        1.15473298       -0.59221365  H
       atom_frac         0.83793085        1.30025643       -0.57113509  H
       atom_frac         1.30423899        0.99951692        1.73025818  O
       atom_frac         1.25742073        0.90242749        1.72432056  H
       atom_frac         1.24078712        1.05673118        1.76270822  H
       atom_frac         2.73838155        1.29804276        1.08629516  O
       atom_frac         2.66091317        1.24453175        1.10158402  H
       atom_frac         2.68403266        1.38930007        1.05638982  H
       atom_frac         1.86417535       -0.73810536        1.72380335  O
       atom_frac         1.86939921       -0.72868482        1.60975756  H
       atom_frac         1.95058119       -0.69195535        1.75102952  H
       atom_frac         0.43787479        0.50209110        1.66602015  O
       atom_frac         0.51404082        0.42577714        1.69618410  H
       atom_frac         0.41683140        0.47973916        1.58231416  H
       atom_frac        -0.48878834        1.11994513       -0.47237299  O
       atom_frac        -0.40685433        1.09978411       -0.51455286  H
       atom_frac        -0.50254314        1.16708406       -0.38465239  H
       atom_frac         0.06204680        0.91870216        0.18038164  O
       atom_frac        -0.00232053        0.97252660        0.12977221  H
       atom_frac         0.01799761        0.92706035        0.25522568  H

 
  Finished reading input file 'geometry.in'.
 

 
  Consistency checks for stacksize environment parameter are next.
 
  | Maximum stacksize for task 0: unlimited
  | Maximum stacksize for task 1: unlimited
  | Maximum stacksize for task 2: unlimited
  | Maximum stacksize for task 3: unlimited
  | Maximum stacksize for task 4: unlimited
  | Maximum stacksize for task 5: unlimited
  | Maximum stacksize for task 6: unlimited
  | Maximum stacksize for task 7: unlimited
  | Maximum stacksize for task 8: unlimited
  | Maximum stacksize for task 9: unlimited
  | Maximum stacksize for task 10: unlimited
  | Maximum stacksize for task 11: unlimited
  | Maximum stacksize for task 12: unlimited
  | Maximum stacksize for task 13: unlimited
  | Maximum stacksize for task 14: unlimited
  | Maximum stacksize for task 15: unlimited
  | Maximum stacksize for task 16: unlimited
  | Maximum stacksize for task 17: unlimited
  | Current stacksize for task 0: unlimited
  | Current stacksize for task 1: unlimited
  | Current stacksize for task 2: unlimited
  | Current stacksize for task 3: unlimited
  | Current stacksize for task 4: unlimited
  | Current stacksize for task 5: unlimited
  | Current stacksize for task 6: unlimited
  | Current stacksize for task 7: unlimited
  | Current stacksize for task 8: unlimited
  | Current stacksize for task 9: unlimited
  | Current stacksize for task 10: unlimited
  | Current stacksize for task 11: unlimited
  | Current stacksize for task 12: unlimited
  | Current stacksize for task 13: unlimited
  | Current stacksize for task 14: unlimited
  | Current stacksize for task 15: unlimited
  | Current stacksize for task 16: unlimited
  | Current stacksize for task 17: unlimited
 
  Consistency checks for the contents of control.in are next.
 
  MPI_IN_PLACE appears to work with this MPI implementation.
  | Keeping use_mpi_in_place .true. (see manual).
  Explicit treatment of the Coulomb operator is needed, but the RI method is not specified.
  Coulomb operator: Defaulting to 'LVL fast' resolution of identity - RI_type = LVL_fast
  Species H: Using default value for prodbas_acc =   1.000000E-06.
  Species H: Using default value max_l_prodbas =     6.
  Species O: Using default value for prodbas_acc =   1.000000E-06.
  Species O: Using default value max_l_prodbas =     6.
  Target number of points in a grid batch is not set.  Since GPU acceleration is enabled, defaulting to  200
  Method for grid partitioning is not set. Defaulting to parallel hash+maxmin partitioning.
  Batch size limit is not set. Defaulting to    200
  By default, will store active basis functions for each batch.
  If in need of memory, prune_basis_once .false. can be used to disable this option.
  communication_type for Hartree potential was not specified.
  Defaulting to calc_hartree .
  Defaulting to Pulay charge density mixer.
  Pulay mixer: Number of relevant iterations not set.
  Defaulting to    8 iterations.
  Pulay mixer: Number of initial linear mixing iterations not set.
  Defaulting to    0 iterations.
  Work space size for distributed Hartree potential not set.
  Defaulting to   0.200000E+03 MB.
  Mixing parameter for charge density mixing has not been set.
  Using default: charge_mix_param =     0.0500.
  The mixing parameter will be adjusted in iteration number     2 of the first full s.c.f. cycle only.
  Algorithm-dependent basis array size parameters:
  | n_max_pulay                         :        8
  Maximum number of self-consistency iterations not provided.
  Presetting  1000 iterations.
  Presetting      1001 iterations before the initial mixing cycle
  is restarted anyway using the sc_init_iter criterion / keyword.
  Presetting a factor      1.000 between actual scf density residual
  and density convergence criterion sc_accuracy_rho below which sc_init_iter
  takes no effect.
  Calculation of forces was not defined in control.in. No forces will be calculated.
  Geometry relaxation not requested: no relaxation will be performed.
  No accuracy limit for integral partition fn. given. Defaulting to  0.1000E-14.
  No occupation type (smearing scheme) given. Defaulting to Gaussian broadening, width =  0.1000E-01 eV.
  The width will be adjusted in iteration number     2 of the first full s.c.f. cycle only.
  S.C.F. convergence parameters will be adjusted in iteration number     2 of the first full s.c.f. cycle only.
  No accuracy for occupation numbers given. Defaulting to  0.1000E-12.
  No threshold value for occupation numbers given. Defaulting to  0.0000E+00.
  No accuracy for fermi level given. Defaulting to  0.1000E-19.
  Maximum # of iterations to find E_F not set. Defaulting to  200.
  Preferred method for the eigenvalue solver ('KS_method') not specified in 'control.in'.
  Calling BLACS routine to test compilation state
  Since ScaLAPACK support is enabled, defaulting to ELPA (via ELSI).
  Will not use alltoall communication since running on < 1024 CPUs.
  Threshold for basis singularities not set.
  Default threshold for basis singularities:  0.1000E-04
  partition_type (choice of integration weights) for integrals was not specified.
  | Using a version of the partition function of Stratmann and coworkers ('stratmann_sparse').
  | At each grid point, the set of atoms used to build the partition table is smoothly restricted to
  | only those atoms whose free-atom density would be non-zero at that grid point.
  Partitioning for Hartree potential was not defined. Using partition_type for integrals.
  | Adjusted default value of keyword multip_moments_threshold to:       0.10000000E-11
  | This value may affect high angular momentum components of the Hartree potential in periodic systems.
  Angular momentum expansion for Kerker preconditioner not set explicitly.
  | Using default value of   0
  No explicit requirement for turning off preconditioner.
  | By default, it will be turned off when the charge convergence reaches
  | sc_accuracy_rho  =   0.100000E-05
  No special mixing parameter while Kerker preconditioner is on.
  Using default: charge_mix_param =     0.0500.
  Threshold for auxiliary basis singularities not set.
  Default threshold for auxiliary basis singularities:  0.1000E-04
  No q(lm)/r^(l+1) cutoff set for long-range Hartree potential.
  | Using default value of  0.100000E-09 .
  | Verify using the multipole_threshold keyword.
  Defaulting to new monopole extrapolation.
  Density update method: automatic selection selected.
  Using density matrix based charge density update.
  Using density matrix based charge density update.
  Using packed matrix style: index .
  Defaulting to use time-reversal symmetry for k-point grid.
  Charge integration errors on the 3D integration grid will be compensated
  by explicit normalization and distribution of residual charges.
  Use the "compensate_multipole_errors" flag to change this behaviour.
  Default to 1D ("use_logsbt") integrations for auxiliary 2-center integrals.
  Default onset of logarithmic r-grid for SBT is -38.000000000000
  Default onset of logarithmic k-grid for SBT is -25.000000000000
  Default range of logarithmic r- and k-grid for SBT is  45.000000000000
  Default number of logarithmic r- and k-grid for SBT is   4096
  Default of use_2d_corr is to use the efficient 2D distribution where possible
 
  Consistency checks for the contents of geometry.in are next.
 

  Range separation radius for Ewald summation (hartree_convergence_parameter):      2.90253427 bohr.
  Number of empty states per atom not set in control.in .
  | Since you are using a method that relies on the unoccupied spectrum
  | (MP2,GW,RPA et al.), will use the full Hamiltonian size (see below)
  | as the max. possible number of states (occupied plus empty).

  Structure-dependent array size parameters: 
  | Maximum number of distinct radial functions  :        9
  | Maximum number of basis functions            :      768
  | Number of Kohn-Sham states (occupied + empty):      768
------------------------------------------------------------

  Performing system and environment tests:
  | Environment variable OMP_NUM_THREADS correctly set to 1.
  | Checking for ScaLAPACK...
  | Testing pdtran()...
  | All pdtran() tests passed.
CUDA runtime version: 11060
CUDA driver version: 11060
  Initializing GPUs...

  Number of GPUs available to MPI task         0 :   1
  Number of GPUs available to MPI task         1 :   1
  Number of GPUs available to MPI task         2 :   1
  Number of GPUs available to MPI task         3 :   1
  Number of GPUs available to MPI task         4 :   1
  Number of GPUs available to MPI task         5 :   1
  Number of GPUs available to MPI task         6 :   1
  Number of GPUs available to MPI task         7 :   1
  Number of GPUs available to MPI task         8 :   1
  Number of GPUs available to MPI task         9 :   1
  Number of GPUs available to MPI task        10 :   1
  Number of GPUs available to MPI task        11 :   1
  Number of GPUs available to MPI task        12 :   1
  Number of GPUs available to MPI task        13 :   1
  Number of GPUs available to MPI task        14 :   1
  Number of GPUs available to MPI task        15 :   1
  Number of GPUs available to MPI task        16 :   1
  Number of GPUs available to MPI task        17 :   1

  | MPI task         0, GPU activated = T, Device Name = NVIDIA A100-SXM4-80GB
  | MPI task         1, GPU activated = T, Device Name = NVIDIA A100-SXM4-80GB
  | MPI task         2, GPU activated = T, Device Name = NVIDIA A100-SXM4-80GB
  | MPI task         3, GPU activated = T, Device Name = NVIDIA A100-SXM4-80GB
  | MPI task         4, GPU activated = T, Device Name = NVIDIA A100-SXM4-80GB
  | MPI task         5, GPU activated = T, Device Name = NVIDIA A100-SXM4-80GB
  | MPI task         6, GPU activated = T, Device Name = NVIDIA A100-SXM4-80GB
  | MPI task         7, GPU activated = T, Device Name = NVIDIA A100-SXM4-80GB
  | MPI task         8, GPU activated = T, Device Name = NVIDIA A100-SXM4-80GB
  | MPI task         9, GPU activated = T, Device Name = NVIDIA A100-SXM4-80GB
  | MPI task        10, GPU activated = T, Device Name = NVIDIA A100-SXM4-80GB
  | MPI task        11, GPU activated = T, Device Name = NVIDIA A100-SXM4-80GB
  | MPI task        12, GPU activated = T, Device Name = NVIDIA A100-SXM4-80GB
  | MPI task        13, GPU activated = T, Device Name = NVIDIA A100-SXM4-80GB
  | MPI task        14, GPU activated = T, Device Name = NVIDIA A100-SXM4-80GB
  | MPI task        15, GPU activated = T, Device Name = NVIDIA A100-SXM4-80GB
  | MPI task        16, GPU activated = T, Device Name = NVIDIA A100-SXM4-80GB
  | MPI task        17, GPU activated = T, Device Name = NVIDIA A100-SXM4-80GB

------------------------------------------------------------
          Preparing all fixed parts of the calculation.
------------------------------------------------------------
  Determining machine precision:
    2.225073858507201E-308
  Setting up grids for atomic and cluster calculations.

  Creating wave function, potential, and density for free atoms.
  Runtime choices for atomic solver:
  | atomic solver xc        : PW-LDA
  | compute density gradient: 0
  | compute kinetic density : F

  Species: H

  List of occupied orbitals and eigenvalues:
    n    l              occ      energy [Ha]    energy [eV]
    1    0           1.0000        -0.232375        -6.3233


  Species: O

  List of occupied orbitals and eigenvalues:
    n    l              occ      energy [Ha]    energy [eV]
    1    0           2.0000       -18.757744      -510.4242
    2    0           2.0000        -0.870917       -23.6989
    2    1           4.0000        -0.337950        -9.1961


  Adding cutoff potential to free-atom effective potential.
  Creating fixed part of basis set: Ionic, confined, hydrogenic.
 
  H                    hydrogenic:
 
  List of hydrogenic basis orbitals: 
    n    l      effective z      eigenvalue [eV]  inner max. [A]     outer max. [A]     outer radius [A]   
    2    0         2.100000       -14.9728           0.193243           1.317208           4.696947
    2    1         3.500000       -41.6669           0.602369           0.602369           3.862494
 
 
  O                    hydrogenic:
 
  List of hydrogenic basis orbitals: 
    n    l      effective z      eigenvalue [eV]  inner max. [A]     outer max. [A]     outer radius [A]   
    2    1         1.800000       -10.9749           1.164242           1.164242           4.691341
    3    2         7.600000       -87.3180           0.624125           0.624125           3.413946
    3    0         6.400000       -61.9207           0.061167           1.081902           4.151495
 
  Creating atomic-like basis functions for current effective potential.

  Species H                   :

  List of atomic basis orbitals and eigenvalues:
    n    l      energy [Ha]    energy [eV]    outer radius [A]
    1    0        -0.232375        -6.3233       4.696947


  Species O                   :

  List of atomic basis orbitals and eigenvalues:
    n    l      energy [Ha]    energy [eV]    outer radius [A]
    1    0       -18.757744      -510.4242       1.830144
    2    0        -0.870917       -23.6989       4.578029
    2    1        -0.337950        -9.1961       4.634338

  Assembling full basis from fixed parts.
  | Species H :   atomic orbital   1 s accepted.
  | Species H :    hydro orbital   2 s accepted.
  | Species H :    hydro orbital   2 p accepted.
  | Species O :   atomic orbital   1 s accepted.
  | Species O :    hydro orbital   3 s accepted.
  | Species O :   atomic orbital   2 s accepted.
  | Species O :   atomic orbital   2 p accepted.
  | Species O :    hydro orbital   2 p accepted.
  | Species O :    hydro orbital   3 d accepted.
 
  Basis size parameters after reduction:
  | Total number of radial functions:        9
  | Total number of basis functions :      768
 
  Per-task memory consumption for arrays in subroutine allocate_ext:
  |           2.268304MB.
  Testing on-site integration grid accuracy.
  |  Species  Function  <phi|h_atom|phi> (log., in eV)  <phi|h_atom|phi> (rad., in eV)
           1        1                 -6.3245358373                 -6.3232436907
           1        2                 14.1326137532                 14.1384481100
           1        3                 25.3627025200                 25.3628451197
           2        4               -510.4241781764               -510.4240769407
           2        5                 14.9072942213                 14.9072945271
           2        6                -21.2004736474                -21.2005650551
           2        7                 -9.1962086505                 -9.1963509834
           2        8                  8.1896755006                  8.1702200081
           2        9                 45.7920584937                 45.7920228520

  Preparing densities etc. for the partition functions (integrals / Hartree potential).

  Preparations completed.
  max(cpu_time)          :      0.072 s.
  Wall clock time (cpu1) :      0.067 s.
------------------------------------------------------------

  Initializing index lists of integration centers etc. from given atomic structure:
  Mapping all atomic coordinates to central unit cell.

  Initializing the k-points
  Using symmetry for reducing the k-points
  | k-points reduced from:        1 to        1
  | Number of k-points                             :         1
  | Consuming          0 KiB for k_phase_exx.
  The eigenvectors in the calculations are REAL.
  | Number of basis functions in the Hamiltonian integrals :      4511
  | Number of basis functions in a single unit cell        :       768
  | Number of centers in hartree potential         :      2715
  | Number of centers in hartree multipole         :      2054
  | Number of centers in electron density summation:      1589
  | Number of centers in basis integrals           :      1700
  | Number of centers in integrals                 :       722
  | Number of centers in hamiltonian               :      1590
  | Consuming          0 KiB for k_phase.
  | Number of super-cells (origin) [n_cells]                     :         125
  | Number of super-cells (after PM_index) [n_cells]             :          28
  | Number of super-cells in hamiltonian [n_cells_in_hamiltonian]:          28
  | Size of matrix packed + index [n_hamiltonian_matrix_size] :      837521
  | Size of matrix packed + index (no_symmetry):     1674273

------------------------------------------------------------
          Begin self-consistency loop: Initialization.

          Date     :  20230221, Time     :  155612.549
------------------------------------------------------------
  | Estimated reciprocal-space cutoff momentum G_max:         3.26116371 bohr^-1 .
  | Reciprocal lattice points for long-range Hartree potential:    3574
  Using simple linear distribution as default method for k-point parallelism.
  * Using 18 tasks for Scalapack Eigenvalue solver.
  Detailed listing of tasks and assigned k-points:
   Task     0 k-point     1 on adag037
   Task     1 k-point     1 on adag037
   Task     2 k-point     1 on adag037
   Task     3 k-point     1 on adag037
   Task     4 k-point     1 on adag037
   Task     5 k-point     1 on adag037
   Task     6 k-point     1 on adag037
   Task     7 k-point     1 on adag037
   Task     8 k-point     1 on adag037
   Task     9 k-point     1 on adag037
   Task    10 k-point     1 on adag037
   Task    11 k-point     1 on adag037
   Task    12 k-point     1 on adag037
   Task    13 k-point     1 on adag037
   Task    14 k-point     1 on adag037
   Task    15 k-point     1 on adag037
   Task    16 k-point     1 on adag037
   Task    17 k-point     1 on adag037
  K-point:     1 Tasks:    18 split into      6 X      3 BLACS grid
  Calculating block size based on n_basis =          768  max_nprow =            6  max_npcol =            3
  ScaLAPACK block size set to:           16
  Allocating        0.250 MB for ovlp
  Allocating        0.250 MB for ham
  Allocating        0.250 MB for eigenvec
  Required Scalapack workspace - INTEGER:            1  REAL:             1
  Partitioning the integration grid into batches with parallel hashing+maxmin method.
  | Number of batches:     4224
  | Maximal batch size:     186
  | Minimal batch size:      99
  | Average batch size:     120.636
  | Standard deviation of batch sizes:      19.820

  Integration load balanced across    18 MPI tasks.
  Work distribution over tasks is as follows:
  Task     0 has      28363 integration points.
  Task     1 has      28286 integration points.
  Task     2 has      28312 integration points.
  Task     3 has      28345 integration points.
  Task     4 has      28332 integration points.
  Task     5 has      28322 integration points.
  Task     6 has      28294 integration points.
  Task     7 has      28272 integration points.
  Task     8 has      28282 integration points.
  Task     9 has      28330 integration points.
  Task    10 has      28268 integration points.
  Task    11 has      28259 integration points.
  Task    12 has      28294 integration points.
  Task    13 has      28311 integration points.
  Task    14 has      28346 integration points.
  Task    15 has      28315 integration points.
  Task    16 has      28317 integration points.
  Task    17 has      28320 integration points.
  Initializing partition tables, free-atom densities, potentials, etc. across the integration grid (initialize_grid_storage).
  | initialize_grid_storage: Actual outermost partition radius vs. multipole_radius_free
  | (-- VB: in principle, multipole_radius_free should be larger, hence this output)
  | Species        1: Confinement radius =              4.999999999999999 AA, multipole_radius_free =              5.054417573612229 AA.
  | Species        1: outer_partition_radius set to              5.054417573612229 AA .
  | Species        2: Confinement radius =              4.999999999999999 AA, multipole_radius_free =              5.048384829883283 AA.
  | Species        2: outer_partition_radius set to              5.048384829883283 AA .
  | The sparse table of interatomic distances needs       6027.90 kbyte instead of     23120.00 kbyte of memory.
  | Net number of integration points:   509568
  | of which are non-zero points    :   403843
  | Numerical average free-atom electrostatic potential    :     -5.76835433 eV
  Renormalizing the initial density to the exact electron count on the 3D integration grid.
  | Initial density: Formal number of electrons (from input files) :     320.0000000000
  | Integrated number of electrons on 3D grid     :     320.0014075001
  | Charge integration error                      :       0.0014075001
  | Normalization factor for density and gradient :       0.9999956016
  Renormalizing the free-atom superposition density to the exact electron count on the 3D integration grid.
  | Formal number of electrons (from input files) :     320.0000000000
  | Integrated number of electrons on 3D grid     :     320.0014075001
  | Charge integration error                      :       0.0014075001
  | Normalization factor for density and gradient :       0.9999956016
  Obtaining max. number of non-zero basis functions in each batch (get_n_compute_maxes).
  | Maximal number of non-zero basis functions:      467 in task     0
  | Maximal number of non-zero basis functions:      458 in task     1
  | Maximal number of non-zero basis functions:      438 in task     2
  | Maximal number of non-zero basis functions:      448 in task     3
  | Maximal number of non-zero basis functions:      428 in task     4
  | Maximal number of non-zero basis functions:      448 in task     5
  | Maximal number of non-zero basis functions:      433 in task     6
  | Maximal number of non-zero basis functions:      432 in task     7
  | Maximal number of non-zero basis functions:      454 in task     8
  | Maximal number of non-zero basis functions:      440 in task     9
  | Maximal number of non-zero basis functions:      456 in task    10
  | Maximal number of non-zero basis functions:      434 in task    11
  | Maximal number of non-zero basis functions:      436 in task    12
  | Maximal number of non-zero basis functions:      451 in task    13
  | Maximal number of non-zero basis functions:      449 in task    14
  | Maximal number of non-zero basis functions:      451 in task    15
  | Maximal number of non-zero basis functions:      430 in task    16
  | Maximal number of non-zero basis functions:      440 in task    17
  Integrating Hamiltonian matrix: batch-based integration.
  GPU acceleration will be used when integrating the Hamiltonian matrix.
  Reporting GPU memory usage by myid 0.  Note that it is likely not the only MPI task binding to its GPU!
  Allocating        1.745 MB on GPU for hamiltonian_shell
  Allocating        0.695 MB on GPU for wave
  Allocating        0.001 MB on GPU for partition
  Allocating        0.695 MB on GPU for h_times_psi
  Time summed over all CPUs for integration: real work       14.621 s, elapsed       14.966 s
  Deallocating memory used on GPU for Hamiltonian integration.
  Integrating overlap matrix.
  Time summed over all CPUs for integration: real work       11.464 s, elapsed       11.764 s
  Deallocating overlap matrix.

  Updating Kohn-Sham eigenvalues and eigenvectors using ELSI and the ELPA eigensolver.
  Singularity check in k-point 1 (analysis for other k-points may follow below):
  Overlap matrix is not singular
  | Lowest and highest eigenvalues :  0.1951E-02,  0.7683E+01
  Finished singularity check of overlap matrix
  | Time :     0.159 s
  Starting ELPA eigensolver (GPU)
  Finished Cholesky decomposition
  | Time :     0.007 s
  Finished transformation to standard eigenproblem
  | Time :     0.030 s
  Finished solving standard eigenproblem
  | Time :     0.191 s
  Finished back-transformation of eigenvectors
  | Time :     0.019 s

  Obtaining occupation numbers and electronic chemical potential using ELSI.
  | Note that, for insulating systems, the printed 'chemical potential' value is not uniquely defined.
  | It can be anywhere in the energy gap, as long as it correctly separates occupied and unoccupied states.
  | In systems with a gap, the physically relevant chemical potential is the VBM or HOMO.

  | Chemical potential (Fermi level):    -5.36942003 eV
  Writing Kohn-Sham eigenvalues.

  State    Occupation    Eigenvalue [Ha]    Eigenvalue [eV]
      1       2.00000         -18.915048         -514.70466
      2       2.00000         -18.915000         -514.70334
      3       2.00000         -18.912974         -514.64822
      4       2.00000         -18.912929         -514.64700
      5       2.00000         -18.905186         -514.43629
      6       2.00000         -18.898304         -514.24901
      7       2.00000         -18.896531         -514.20078
      8       2.00000         -18.894310         -514.14034
      9       2.00000         -18.887674         -513.95977
     10       2.00000         -18.885139         -513.89079
     11       2.00000         -18.883818         -513.85482
     12       2.00000         -18.883314         -513.84112
     13       2.00000         -18.882971         -513.83178
     14       2.00000         -18.882497         -513.81887
     15       2.00000         -18.882467         -513.81808
     16       2.00000         -18.877316         -513.67791
     17       2.00000         -18.875458         -513.62734
     18       2.00000         -18.871832         -513.52867
     19       2.00000         -18.867764         -513.41799
     20       2.00000         -18.863835         -513.31107
     21       2.00000         -18.862658         -513.27903
     22       2.00000         -18.861938         -513.25944
     23       2.00000         -18.861898         -513.25836
     24       2.00000         -18.860121         -513.21001
     25       2.00000         -18.856871         -513.12158
     26       2.00000         -18.854941         -513.06905
     27       2.00000         -18.850650         -512.95229
     28       2.00000         -18.850607         -512.95111
     29       2.00000         -18.849727         -512.92718
     30       2.00000         -18.849668         -512.92556
     31       2.00000         -18.841880         -512.71363
     32       2.00000         -18.836308         -512.56201
     33       2.00000          -1.179840          -32.10509
     34       2.00000          -1.170724          -31.85703
     35       2.00000          -1.167810          -31.77772
     36       2.00000          -1.160789          -31.58667
     37       2.00000          -1.154819          -31.42421
     38       2.00000          -1.143104          -31.10543
     39       2.00000          -1.139583          -31.00963
     40       2.00000          -1.137804          -30.96123
     41       2.00000          -1.132881          -30.82726
     42       2.00000          -1.126627          -30.65707
     43       2.00000          -1.125265          -30.62001
     44       2.00000          -1.122560          -30.54641
     45       2.00000          -1.118935          -30.44777
     46       2.00000          -1.117586          -30.41106
     47       2.00000          -1.115513          -30.35466
     48       2.00000          -1.109201          -30.18289
     49       2.00000          -1.104095          -30.04394
     50       2.00000          -1.103566          -30.02957
     51       2.00000          -1.097515          -29.86489
     52       2.00000          -1.091994          -29.71466
     53       2.00000          -1.090149          -29.66448
     54       2.00000          -1.085072          -29.52632
     55       2.00000          -1.080298          -29.39641
     56       2.00000          -1.077344          -29.31602
     57       2.00000          -1.077230          -29.31293
     58       2.00000          -1.074258          -29.23205
     59       2.00000          -1.066500          -29.02093
     60       2.00000          -1.062942          -28.92411
     61       2.00000          -1.061301          -28.87946
     62       2.00000          -1.056617          -28.75201
     63       2.00000          -1.049836          -28.56749
     64       2.00000          -1.041482          -28.34016
     65       2.00000          -0.732355          -19.92840
     66       2.00000          -0.713401          -19.41262
     67       2.00000          -0.708627          -19.28272
     68       2.00000          -0.705482          -19.19715
     69       2.00000          -0.702217          -19.10828
     70       2.00000          -0.695338          -18.92110
     71       2.00000          -0.693882          -18.88149
     72       2.00000          -0.689210          -18.75436
     73       2.00000          -0.688413          -18.73266
     74       2.00000          -0.677366          -18.43206
     75       2.00000          -0.672452          -18.29835
     76       2.00000          -0.671783          -18.28016
     77       2.00000          -0.659529          -17.94669
     78       2.00000          -0.651545          -17.72943
     79       2.00000          -0.650269          -17.69472
     80       2.00000          -0.649394          -17.67090
     81       2.00000          -0.640519          -17.42941
     82       2.00000          -0.637386          -17.34417
     83       2.00000          -0.635255          -17.28616
     84       2.00000          -0.633058          -17.22637
     85       2.00000          -0.629457          -17.12840
     86       2.00000          -0.628322          -17.09751
     87       2.00000          -0.625605          -17.02357
     88       2.00000          -0.621114          -16.90136
     89       2.00000          -0.617884          -16.81347
     90       2.00000          -0.617233          -16.79578
     91       2.00000          -0.614729          -16.72764
     92       2.00000          -0.613322          -16.68933
     93       2.00000          -0.611156          -16.63041
     94       2.00000          -0.600714          -16.34625
     95       2.00000          -0.585587          -15.93463
     96       2.00000          -0.579955          -15.78138
     97       2.00000          -0.572923          -15.59002
     98       2.00000          -0.571346          -15.54713
     99       2.00000          -0.569065          -15.48505
    100       2.00000          -0.567437          -15.44073
    101       2.00000          -0.565402          -15.38537
    102       2.00000          -0.562575          -15.30845
    103       2.00000          -0.556305          -15.13784
    104       2.00000          -0.549913          -14.96390
    105       2.00000          -0.546745          -14.87769
    106       2.00000          -0.545918          -14.85517
    107       2.00000          -0.542968          -14.77492
    108       2.00000          -0.541916          -14.74629
    109       2.00000          -0.538367          -14.64971
    110       2.00000          -0.536870          -14.60897
    111       2.00000          -0.535366          -14.56806
    112       2.00000          -0.531452          -14.46154
    113       2.00000          -0.529522          -14.40903
    114       2.00000          -0.527711          -14.35974
    115       2.00000          -0.526454          -14.32554
    116       2.00000          -0.524540          -14.27345
    117       2.00000          -0.520020          -14.15045
    118       2.00000          -0.518198          -14.10088
    119       2.00000          -0.516968          -14.06743
    120       2.00000          -0.515005          -14.01401
    121       2.00000          -0.512281          -13.93989
    122       2.00000          -0.508621          -13.84028
    123       2.00000          -0.504901          -13.73905
    124       2.00000          -0.502573          -13.67572
    125       2.00000          -0.501265          -13.64012
    126       2.00000          -0.498816          -13.57347
    127       2.00000          -0.494435          -13.45426
    128       2.00000          -0.491838          -13.38359
    129       2.00000          -0.491016          -13.36122
    130       2.00000          -0.487995          -13.27901
    131       2.00000          -0.487237          -13.25840
    132       2.00000          -0.481690          -13.10745
    133       2.00000          -0.477376          -12.99006
    134       2.00000          -0.476129          -12.95612
    135       2.00000          -0.475092          -12.92792
    136       2.00000          -0.472012          -12.84411
    137       2.00000          -0.470638          -12.80671
    138       2.00000          -0.467937          -12.73322
    139       2.00000          -0.467433          -12.71949
    140       2.00000          -0.465573          -12.66890
    141       2.00000          -0.464634          -12.64333
    142       2.00000          -0.462533          -12.58617
    143       2.00000          -0.461876          -12.56829
    144       2.00000          -0.460339          -12.52646
    145       2.00000          -0.459506          -12.50380
    146       2.00000          -0.457054          -12.43707
    147       2.00000          -0.454678          -12.37241
    148       2.00000          -0.453318          -12.33540
    149       2.00000          -0.450097          -12.24777
    150       2.00000          -0.448578          -12.20642
    151       2.00000          -0.447426          -12.17508
    152       2.00000          -0.446933          -12.16165
    153       2.00000          -0.444774          -12.10291
    154       2.00000          -0.444388          -12.09241
    155       2.00000          -0.442194          -12.03270
    156       2.00000          -0.439349          -11.95530
    157       2.00000          -0.438145          -11.92253
    158       2.00000          -0.435383          -11.84738
    159       2.00000          -0.433142          -11.78639
    160       2.00000          -0.431626          -11.74515
    161       0.00000          -0.174620           -4.75166
    162       0.00000          -0.114606           -3.11858
    163       0.00000          -0.110610           -3.00986
    164       0.00000          -0.107518           -2.92571
    165       0.00000          -0.101271           -2.75571
    166       0.00000          -0.098395           -2.67747
    167       0.00000          -0.097288           -2.64734
    168       0.00000          -0.070421           -1.91625
    169       0.00000          -0.066962           -1.82213
    170       0.00000          -0.060994           -1.65974
    171       0.00000          -0.057352           -1.56062
    172       0.00000          -0.050775           -1.38167
    173       0.00000          -0.049107           -1.33626
    174       0.00000          -0.047209           -1.28461
    175       0.00000          -0.042436           -1.15474
    176       0.00000          -0.039312           -1.06974
    177       0.00000          -0.037982           -1.03354
    178       0.00000          -0.021901           -0.59595
    179       0.00000          -0.019041           -0.51814
    180       0.00000          -0.013679           -0.37224
    181       0.00000          -0.008791           -0.23922
    182       0.00000          -0.004398           -0.11967
    183       0.00000           0.001073            0.02920
    184       0.00000           0.006271            0.17064
    185       0.00000           0.008003            0.21776
    186       0.00000           0.012740            0.34667
    187       0.00000           0.020963            0.57042
    188       0.00000           0.027463            0.74731
    189       0.00000           0.030479            0.82937
    190       0.00000           0.032451            0.88303
    191       0.00000           0.036488            0.99288
    192       0.00000           0.036897            1.00402
    193       0.00000           0.039720            1.08084
    194       0.00000           0.045216            1.23038
    195       0.00000           0.050173            1.36528
    196       0.00000           0.054082            1.47165
    197       0.00000           0.058530            1.59269
    198       0.00000           0.059511            1.61938
    199       0.00000           0.062552            1.70211
    200       0.00000           0.066991            1.82291
    201       0.00000           0.069137            1.88130
    202       0.00000           0.070437            1.91670
    203       0.00000           0.073173            1.99114
    204       0.00000           0.079776            2.17081
    205       0.00000           0.081417            2.21547
    206       0.00000           0.084294            2.29375
    207       0.00000           0.088050            2.39595
    208       0.00000           0.091663            2.49428
    209       0.00000           0.093405            2.54169
    210       0.00000           0.096932            2.63767
    211       0.00000           0.099252            2.70078
    212       0.00000           0.100798            2.74286
    213       0.00000           0.103455            2.81517
    214       0.00000           0.105630            2.87434
    215       0.00000           0.109376            2.97627
    216       0.00000           0.111438            3.03237
    217       0.00000           0.114662            3.12010
    218       0.00000           0.118665            3.22903
    219       0.00000           0.122362            3.32965
    220       0.00000           0.124493            3.38764
    221       0.00000           0.126620            3.44549
    222       0.00000           0.133085            3.62143
    223       0.00000           0.137805            3.74987
    224       0.00000           0.146972            3.99931
    225       0.00000           0.148920            4.05233
    226       0.00000           0.154758            4.21117
    227       0.00000           0.155872            4.24150
    228       0.00000           0.159001            4.32665
    229       0.00000           0.165380            4.50021
    230       0.00000           0.177479            4.82944
    231       0.00000           0.181471            4.93808
    232       0.00000           0.188408            5.12683
    233       0.00000           0.194687            5.29769
    234       0.00000           0.198661            5.40585
    235       0.00000           0.201740            5.48963
    236       0.00000           0.210359            5.72417
    237       0.00000           0.212686            5.78747
    238       0.00000           0.220837            6.00927
    239       0.00000           0.225763            6.14333
    240       0.00000           0.230819            6.28089
    241       0.00000           0.234826            6.38995
    242       0.00000           0.239203            6.50904
    243       0.00000           0.246621            6.71089
    244       0.00000           0.254885            6.93576
    245       0.00000           0.255586            6.95485
    246       0.00000           0.263624            7.17359
    247       0.00000           0.269502            7.33351
    248       0.00000           0.274955            7.48190
    249       0.00000           0.288401            7.84778
    250       0.00000           0.297552            8.09679
    251       0.00000           0.302479            8.23087
    252       0.00000           0.306956            8.35269
    253       0.00000           0.310593            8.45166
    254       0.00000           0.311003            8.46282
    255       0.00000           0.317030            8.62682
    256       0.00000           0.320812            8.72975
    257       0.00000           0.323416            8.80059
    258       0.00000           0.340552            9.26689
    259       0.00000           0.344670            9.37896
[...]
  |    H      0     4.527807 A      4.527807 A        1.268855E-16 a.u.
  |    H      0     4.527807 A      4.583499 A       -4.900954E-17 a.u.
  |    H      0     4.527807 A      4.583499 A        4.713786E-16 a.u.
  |    H      2     3.678162 A  2.180220E+05 A            0.556529 a.u.
  |    H      1     3.958095 A  1.721251E+08 A            0.841931 a.u.
  |    H      0     4.527807 A  3.866455E+16 A            0.581436 a.u.
  |    O      0     2.043000 A      2.043000 A       -1.436841E-16 a.u.
  |    O      3     3.498446 A      3.498446 A        3.043453E-17 a.u.
  |    O      3     3.498446 A      3.498446 A        1.541443E-16 a.u.
  |    O      0     3.905335 A      3.905335 A        2.173090E-16 a.u.
  |    O      0     3.905335 A      3.905335 A        7.213445E-17 a.u.
  |    O      0     4.101052 A      4.101052 A        2.361718E-16 a.u.
  |    O      1     4.101052 A      4.101052 A        3.235185E-17 a.u.
  |    O      0     4.359549 A      4.359549 A       -5.329475E-17 a.u.
  |    O      1     4.413171 A      4.413171 A        3.261883E-17 a.u.
  |    O      1     4.522403 A      4.522403 A        6.417997E-16 a.u.
  |    O      1     4.522403 A      4.522403 A        4.224783E-16 a.u.
  |    O      2     4.522403 A      4.522403 A       -4.387647E-16 a.u.
  |    O      0     4.522403 A      4.578029 A        2.602039E-16 a.u.
  |    O      0     4.578029 A      4.578029 A        1.226235E-16 a.u.
  |    O      1     4.578029 A      4.578029 A       -6.107316E-16 a.u.
  |    O      1     4.578029 A      4.578029 A       -2.224438E-16 a.u.
  |    O      2     4.578029 A      4.578029 A       -7.020279E-16 a.u.
  |    O      2     4.522403 A      4.578029 A        1.323470E-15 a.u.
  |    O      2     4.578029 A      4.578029 A        7.923696E-16 a.u.
  |    O      2     4.522403 A      4.578029 A       -9.951815E-16 a.u.
  |    O      0     4.578029 A      4.634338 A       -8.813582E-18 a.u.
  |    O      1     4.578029 A      4.634338 A       -3.325386E-17 a.u.
  |    O      1     4.634338 A      4.634338 A        9.588032E-16 a.u.
  |    O      2     4.578029 A      4.634338 A        1.064715E-17 a.u.
  |    O      2     4.578029 A      4.634338 A       -3.770343E-15 a.u.
  |    O      4     3.251020 A  1.511584E+03 A            1.513372 a.u.
  |    O      3     3.541477 A  1.434166E+04 A            4.293220 a.u.
  |    O      2     4.634338 A  5.584435E+05 A            9.352428 a.u.
  |    O      1     4.634338 A  2.821283E+08 A            2.261940 a.u.
  |    O      0     4.578029 A  4.264100E+16 A            0.641234 a.u.

  | Shrink_full_auxil_basis : there are       38  radial auxiliary wave functions
                            accepted and       5 rejected.
  | Shrink_full_auxil_basis : there are totally                4544 partial auxiliary wave functions.
 
  | Maximal number of product basis functions per thread :   256   256
 
  | Minimal total memory requirement for three-center overlap :      10.450 Gbs
  | Number of local auxiliary basis functions on task:      0   256
  | Number of local auxiliary basis functions on task:      1   256
  | Number of local auxiliary basis functions on task:      2   256
  | Number of local auxiliary basis functions on task:      3   256
  | Number of local auxiliary basis functions on task:      4   256
  | Number of local auxiliary basis functions on task:      5   256
  | Number of local auxiliary basis functions on task:      6   256
  | Number of local auxiliary basis functions on task:      7   256
  | Number of local auxiliary basis functions on task:      8   256
  | Number of local auxiliary basis functions on task:      9   256
  | Number of local auxiliary basis functions on task:     10   256
  | Number of local auxiliary basis functions on task:     11   256
  | Number of local auxiliary basis functions on task:     12   256
  | Number of local auxiliary basis functions on task:     13   256
  | Number of local auxiliary basis functions on task:     14   240
  | Number of local auxiliary basis functions on task:     15   240
  | Number of local auxiliary basis functions on task:     16   240
  | Number of local auxiliary basis functions on task:     17   240
  | 2D aux task distribution:      3 X      6
  | 2D block size (nb_aux_2d):     64
 
  Basis pair condensation :    295296  -->     224451
 
 --------------------------------------------
  Constructing auxiliary basis (full product) ...
 
  Product basis:
  | charge radius: extent of product basis function
  | field radius: extent of its Coulomb potential
  | Species   l  charge radius    field radius  multipol momen
  |    H      1     3.910002 A      3.910002 A       -2.487223E-16 a.u.
  |    H      1     3.958095 A      3.958095 A       -2.441841E-16 a.u.
  |    H      0     4.527807 A      4.527807 A        1.268855E-16 a.u.
  |    H      0     4.527807 A      4.583499 A       -4.900954E-17 a.u.
  |    H      0     4.527807 A      4.583499 A        4.713786E-16 a.u.
  |    H      2     3.678162 A  2.180220E+05 A            0.556529 a.u.
  |    H      1     3.958095 A  1.721251E+08 A            0.841931 a.u.
  |    H      0     4.527807 A  3.866455E+16 A            0.581436 a.u.
  |    O      0     2.043000 A      2.043000 A       -1.436841E-16 a.u.
  |    O      3     3.498446 A      3.498446 A        3.043453E-17 a.u.
  |    O      3     3.498446 A      3.498446 A        1.541443E-16 a.u.
  |    O      0     3.905335 A      3.905335 A        2.173090E-16 a.u.
  |    O      0     3.905335 A      3.905335 A        7.213445E-17 a.u.
  |    O      0     4.101052 A      4.101052 A        2.361718E-16 a.u.
  |    O      1     4.101052 A      4.101052 A        3.235185E-17 a.u.
  |    O      0     4.359549 A      4.359549 A       -5.329475E-17 a.u.
  |    O      1     4.413171 A      4.413171 A        3.261883E-17 a.u.
  |    O      1     4.522403 A      4.522403 A        6.417997E-16 a.u.
  |    O      1     4.522403 A      4.522403 A        4.224783E-16 a.u.
  |    O      2     4.522403 A      4.522403 A       -4.387647E-16 a.u.
  |    O      0     4.522403 A      4.578029 A        2.602039E-16 a.u.
  |    O      0     4.578029 A      4.578029 A        1.226235E-16 a.u.
  |    O      1     4.578029 A      4.578029 A       -6.107316E-16 a.u.
  |    O      1     4.578029 A      4.578029 A       -2.224438E-16 a.u.
  |    O      2     4.578029 A      4.578029 A       -7.020279E-16 a.u.
  |    O      2     4.522403 A      4.578029 A        1.323470E-15 a.u.
  |    O      2     4.578029 A      4.578029 A        7.923696E-16 a.u.
  |    O      2     4.522403 A      4.578029 A       -9.951815E-16 a.u.
  |    O      0     4.578029 A      4.634338 A       -8.813582E-18 a.u.
  |    O      1     4.578029 A      4.634338 A       -3.325386E-17 a.u.
  |    O      1     4.634338 A      4.634338 A        9.588032E-16 a.u.
  |    O      2     4.578029 A      4.634338 A        1.064715E-17 a.u.
  |    O      2     4.578029 A      4.634338 A       -3.770343E-15 a.u.
  |    O      4     3.251020 A  1.511584E+03 A            1.513372 a.u.
  |    O      3     3.541477 A  1.434166E+04 A            4.293220 a.u.
  |    O      2     4.634338 A  5.584435E+05 A            9.352428 a.u.
  |    O      1     4.634338 A  2.821283E+08 A            2.261940 a.u.
  |    O      0     4.578029 A  4.264100E+16 A            0.641234 a.u.

  | Shrink_full_auxil_basis : there are       38  radial auxiliary wave functions
                            accepted and       5 rejected.
  | Shrink_full_auxil_basis : there are totally                4544 partial auxiliary wave functions.
 
  | Maximal number of product basis functions per thread :   256   256
 
  | Minimal total memory requirement for three-center overlap :      10.450 Gbs
  | Number of local auxiliary basis functions on task:      0   256
  | Number of local auxiliary basis functions on task:      1   256
  | Number of local auxiliary basis functions on task:      2   256
  | Number of local auxiliary basis functions on task:      3   256
  | Number of local auxiliary basis functions on task:      4   256
  | Number of local auxiliary basis functions on task:      5   256
  | Number of local auxiliary basis functions on task:      6   256
  | Number of local auxiliary basis functions on task:      7   256
  | Number of local auxiliary basis functions on task:      8   256
  | Number of local auxiliary basis functions on task:      9   256
  | Number of local auxiliary basis functions on task:     10   256
  | Number of local auxiliary basis functions on task:     11   256
  | Number of local auxiliary basis functions on task:     12   256
  | Number of local auxiliary basis functions on task:     13   256
  | Number of local auxiliary basis functions on task:     14   240
  | Number of local auxiliary basis functions on task:     15   240
  | Number of local auxiliary basis functions on task:     16   240
  | Number of local auxiliary basis functions on task:     17   240
  | 2D aux task distribution:      3 X      6
  | 2D block size (nb_aux_2d):     64
 
  Basis pair condensation :    295296  -->     224451
dP_dE (Bohr^3) at every cycle:--->
 (359.991635041560,0.000000000000000E+000) (-5.44131303115984,0.000000000000000E+000) (10.1276070757655,0.000000000000000E+000)
 (-5.42063333010719,0.000000000000000E+000) (364.753316580500,0.000000000000000E+000) (-7.34015425318213,0.000000000000000E+000)
 (10.1169214437438,0.000000000000000E+000) (-7.34957195623635,0.000000000000000E+000) (351.402877083791,0.000000000000000E+000)
DFPT polarizability (Bohr^3)        xx        yy        zz        xy        xz        yz
  | Polarizability:--->                       359.991635042                  364.753316580                  351.402877084                   -5.441313031                   10.127607076                   -7.340154253

DFPT for dielectric_constant:--->  # PARSE DFPT_dielectric_tensor
               1.742006316796237            -0.011215506827874             0.020874786224910
              -0.011172882312978             1.751820983128850            -0.015129353829266
               0.020852761250751            -0.015148765377968             1.724303370289262

                                               :  max(cpu_time)    wall_clock(cpu1)
  | Time for  dielectric calculation            :        0.000 s           0.000 s
===========================================================================

------------------------------------------------------------------------------
  Final output of selected total energy values:

  The following output summarizes some interesting total energy values
  at the end of a run (AFTER all relaxation, molecular dynamics, etc.).

  | Total energy of the DFT / Hartree-Fock s.c.f. calculation      :         -66109.686801880 eV
  | Final zero-broadening corrected energy (caution - metals only) :         -66109.686801880 eV
  | For reference only, the value of 1 Hartree used in FHI-aims is :             27.211384500 eV
  | For reference only, the overall average (free atom contribution
  | + realspace contribution) of the electrostatic potential after
  | s.c.f. convergence is                                          :             -5.324959264 eV

  Before relying on these values, please be sure to understand exactly which
  total energy value is referred to by a given number. Different objects may
  all carry the same name 'total energy'. Definitions:

  Total energy of the DFT / Hartree-Fock s.c.f. calculation:
  | Note that this energy does not include ANY quantities calculated after the
  | s.c.f. cycle, in particular not ANY RPA, MP2, etc. many-body perturbation terms.

  Final zero-broadening corrected energy:
  | For metallic systems only, a broadening of the occupation numbers at the Fermi
  | level can be extrapolated back to zero broadening by an electron-gas inspired
  | formula. For all systems that are not real metals, this value can be
  | meaningless and should be avoided.

------------------------------------------------------------------------------
  Methods described in the following list of references were used in this FHI-aims run.
  If you publish the results, please make sure to cite these reference if they apply.
  FHI-aims is an academic code, and for our developers (often, Ph.D. students
  and postdocs), scientific credit in the community is essential.
  Thank you for helping us!

  For any use of FHI-aims, please cite:

    Volker Blum, Ralf Gehrke, Felix Hanke, Paula Havu, Ville Havu,
    Xinguo Ren, Karsten Reuter, and Matthias Scheffler
    'Ab initio molecular simulations with numeric atom-centered orbitals'
    Computer Physics Communications 180, 2175-2196 (2009)
    http://doi.org/10.1016/j.cpc.2009.06.022


  For Hartree-Fock, hybrid functionals, or many-body perturbation theory used in your run, please cite:

    Xinguo Ren, Patrick Rinke, Volker Blum, Juergen Wieferink, Alex Tkatchenko,
    Andrea Sanfilippo, Karsten Reuter, and Matthias Scheffler,
    'Resolution-of-identity approach to Hartree-Fock, hybrid density functionals,
    RPA, MP2, and GW with numeric atom-centered orbital basis functions'
    New Journal of Physics 14, 053020 (2012).
    http://doi.org/10.1088/1367-2630/14/5/053020


  The provided symmetry information was generated with SPGlib:

    Atsushi Togo, Yusuke Seto, Dimitar Pashov
    SPGlib 1.7.3 obtained from http://spglib.sourceforge.net
    Copyright (C) 2008 Atsushi Togo


  The DFPT (perturbation by an electric field) part of the code was used.
  Here is the corresponding reference:

    Honghui Shang, Nathaniel Raimbault, Mariana Rossi,
    Christian Carbogno, Patrick Rinke and Matthias Scheffler,
    'All-Electron, Real-Space Perturbation Theory for Homogeneous
    Electric Fields: Theory, Implementation, and Application within dft'
    New Journal of Physics, 20(7):073040, 2018


  The ELSI infrastructure was used in your run to solve the Kohn-Sham electronic structure.
  Please check out http://elsi-interchange.org to learn more.
  If scalability is important for your project, please acknowledge ELSI by citing:

    V. W-z. Yu, F. Corsetti, A. Garcia, W. P. Huhn, M. Jacquelin, W. Jia,
    B. Lange, L. Lin, J. Lu, W. Mi, A. Seifitokaldani, A. Vazquez-Mayagoitia,
    C. Yang, H. Yang, and V. Blum
    'ELSI: A unified software interface for Kohn-Sham electronic structure solvers'
    Computer Physics Communications 222, 267-285 (2018).
    http://doi.org/10.1016/j.cpc.2017.09.007


  For the real-space grid partitioning and parallelization used in this calculation, please cite:

    Ville Havu, Volker Blum, Paula Havu, and Matthias Scheffler,
    'Efficient O(N) integration for all-electron electronic structure calculation'
    'using numerically tabulated basis functions'
    Journal of Computational Physics 228, 8367-8379 (2009).
    http://doi.org/10.1016/j.jcp.2009.08.008


  The high-level electronic structure method used in your calculation
  employed our efficient localized resolution of identity for the Coulomb operator.
  Some calculations, especially large-scale hybrid density functional theory,
  are only possible thanks to this development. For this feature, please cite:

    Arvid Ihrig, Juergen Wieferink, Igor Ying Zhang, Matti Ropo, Xinguo Ren,
    Patrick Rinke, Matthias Scheffler, and Volker Blum,
    'Accurate localized resolution of identity approach for linear-scaling
    hybrid density functionals and for many-body perturbation theory'
    New Journal of Physics 117, 093020 (2015).
    http://doi.org/10.1088/1367-2630/17/9/093020

  Of course, there are many other important community references, e.g., those cited in the
  above references. Our list is limited to references that describe implementations in the
  FHI-aims code. The reason is purely practical (length of this list) - please credit others as well.

------------------------------------------------------------
          Leaving FHI-aims.
          Date     :  20230221, Time     :  160507.649

          Computational steps:
          | Number of self-consistency cycles          :           45
          | Number of SCF (re)initializations          :            1
          | Number of coupled perturbed self-consistency cycles          :            0
          | Number of CPSCF (re)initializations          :            0

          Detailed time accounting                     :  max(cpu_time)    wall_clock(cpu1)
          | Total time                                  :      529.005 s         548.968 s
          | GPU initialization                          :        2.499 s          12.391 s
          | Preparation time                            :        0.072 s           0.067 s
          | Boundary condition initalization            :        1.353 s           1.354 s
          | Grid partitioning                           :        0.435 s           0.435 s
          | Preloading free-atom quantities on grid     :        2.643 s           2.645 s
          | Free-atom superposition energy              :        0.336 s           0.336 s
          | Total time for integrations                 :       13.397 s          13.664 s
          | Product basis setup: Total time             :        0.000 s           0.000 s
          | Product basis: | 2-center integrations     :(       0.000 s)  (       0.000 s)
          | Product basis: | LVL 3-center & coefficient:(       0.000 s)  (       0.000 s)
          | Total time for solution of K.-S. equations  :        3.351 s          11.152 s
          | Total time for density update               :        9.492 s          10.915 s
          | Total time for mixing & preconditioning     :        8.735 s           8.737 s
          | Total time for Hartree multipole update     :        0.106 s           0.107 s
          | Total time for Hartree multipole sum        :       36.464 s          36.473 s
          | Total time for total energy evaluation      :        0.008 s           0.007 s
          | Total time for DFPT                         :      449.372 s         449.553 s
          | Total time first_order_DM                   :        0.315 s           0.315 s
          | Total time first_order_density              :       96.955 s          96.980 s
          | Total time first_order_potential            :       55.332 s          55.348 s
          | Total time first_order_H                    :      196.963 s         197.037 s
          | Total time solving of Sternheimer equations :        0.190 s           0.189 s
          | Total time for dielectric constant          :        0.000 s           0.000 s
          | Total time momentum matrix                  :        0.000 s           0.000 s

          GPU acceleration has been used for charge density update.
          GPU acceleration has been used for real-space Hamiltonian integration.
          Due to GPU usage, wall_clock(cpu1) will give a more reliable estimate for timings.

          Partial memory accounting:
          | Residual value for overall tracked memory usage across tasks:     0.000000 MB (should be 0.000000 MB)
          | Peak values for overall tracked memory usage:
          |   Minimum:      125.353 MB (on task  0 after allocating DFPT_pulay_mixing::pulay_mix::alphas)
          |   Maximum:      125.353 MB (on task  0 after allocating DFPT_pulay_mixing::pulay_mix::alphas)
          |   Average:      125.353 MB
          | Largest tracked array allocation:
          |   Minimum:       44.728 MB (DFPT_pulay_mixing::initialize_pulay_mixing::X_in_diffs on task  0)
          |   Maximum:       44.728 MB (DFPT_pulay_mixing::initialize_pulay_mixing::X_in_diffs on task  0)
          |   Average:       44.728 MB
          Note:  These values currently only include a subset of arrays which are explicitly tracked.
          The "true" memory usage will be greater.

          Have a nice day.
------------------------------------------------------------
