------------------------------------------------------------
          Invoking FHI-aims ...

          When using FHI-aims, please cite the following reference:

            Volker Blum, Ralf Gehrke, Felix Hanke, Paula Havu,
            Ville Havu, Xinguo Ren, Karsten Reuter, and Matthias Scheffler,
            'Ab Initio Molecular Simulations with Numeric Atom-Centered Orbitals',
            Computer Physics Communications 180, 2175-2196 (2009)

          In addition, many other developments in FHI-aims are likely important for
          your particular application. A partial list of references is given at the end of
          this file. Thank you for giving credit to the authors of these developments.

          For any questions about FHI-aims, please visit our slack channel at

            https://fhi-aims.slack.com

          and our main development and support site at

            https://aims-git.rz-berlin.mpg.de .

          The latter site, in particular, has a wiki to collect information, as well
          as an issue tracker to log discussions, suggest improvements, and report issues
          or bugs. https://aims-git.rz-berlin.mpg.de is also the main development site
          of the project and all new and updated code versions can be obtained there.
          Please send an email to aims-coordinators@fhi-berlin.mpg.de and we will add
          you to these sites. They are for you and everyone is welcome there.

------------------------------------------------------------



  Date     :  20230221, Time     :  152339.151
  Time zero on CPU 1             :   0.336060000000000E+00  s.
  Internal wall clock time zero  :           446225019.151  s.

  FHI-aims created a unique identifier for this run for later identification
  aims_uuid : 27E2EA57-1276-42CB-AE81-B676AFF0BAC2

  Build configuration of the current instance of FHI-aims
  -------------------------------------------------------
  FHI-aims version      : 221103
  Commit number         : 42523251a
  CMake host system     : Linux-5.3.18-150300.59.68-default
  CMake version         : 3.17.0
  Fortran compiler      : /mpcdf/soft/SLE_15/packages/x86_64/intel_oneapi/2021.3/mpi/2021.3.0/bin/mpiifort (Intel) version 20.2.3.20210609
  Fortran compiler flags: -O3 -ip -fp-model precise
  C compiler            : /mpcdf/soft/SLE_15/packages/x86_64/intel/2021.3.0/bin/icc (Intel) version 20.2.3.20210609
  C compiler flags      : -O3 -ip -fp-model precise -std=gnu99
  CUDA compiler         : /mpcdf/soft/SLE_15/packages/x86_64/cuda/11.6.2/bin/nvcc
  CUDA compiler flags   : -O3 -DAdd_ -lcublas
  HIP compiler          :
  HIP compiler flags    :
  HIP GPU arch          :
  ELPA2 kernel          : AVX512
  Using MPI
  Using ScaLAPACK
  Using LibXC
  Using CUDA
  Using i-PI
  Using RLSY
  Linking against: /mpcdf/soft/SLE_15/packages/x86_64/cuda/11.6.2/lib64/libcublas.so
                   /mpcdf/soft/SLE_15/packages/x86_64/cuda/11.6.2/lib64/libcudart.so
                   /mpcdf/soft/SLE_15/packages/x86_64/intel_oneapi/2021.3/mkl/latest/lib/intel64/libmkl_intel_lp64.so
                   /mpcdf/soft/SLE_15/packages/x86_64/intel_oneapi/2021.3/mkl/latest/lib/intel64/libmkl_sequential.so
                   /mpcdf/soft/SLE_15/packages/x86_64/intel_oneapi/2021.3/mkl/latest/lib/intel64/libmkl_core.so
                   /mpcdf/soft/SLE_15/packages/x86_64/intel_oneapi/2021.3/mkl/latest/lib/intel64/libmkl_blacs_intelmpi_lp64.so
                   /mpcdf/soft/SLE_15/packages/x86_64/intel_oneapi/2021.3/mkl/latest/lib/intel64/libmkl_scalapack_lp64.so

  Using       18 parallel tasks.
  Task        0 on host adag040 reporting.
  Task        1 on host adag040 reporting.
  Task        2 on host adag040 reporting.
  Task        3 on host adag040 reporting.
  Task        4 on host adag040 reporting.
  Task        5 on host adag040 reporting.
  Task        6 on host adag040 reporting.
  Task        7 on host adag040 reporting.
  Task        8 on host adag040 reporting.
  Task        9 on host adag040 reporting.
  Task       10 on host adag040 reporting.
  Task       11 on host adag040 reporting.
  Task       12 on host adag040 reporting.
  Task       13 on host adag040 reporting.
  Task       14 on host adag040 reporting.
  Task       15 on host adag040 reporting.
  Task       16 on host adag040 reporting.
  Task       17 on host adag040 reporting.

  Obtaining array dimensions for all initial allocations:
  
  -----------------------------------------------------------------------
  Parsing control.in (first pass over file, find array dimensions only).
  The contents of control.in will be repeated verbatim below
  unless switched off by setting 'verbatim_writeout .false.' .
  in the first line of control.in .
  -----------------------------------------------------------------------
  
  #########################################################################################
  #
  #  Volker Blum, 2017 : Test run input file control.in for simple H2O
  #
  #########################################################################################
  #
  #  Physical model
  #
    xc                 pw-lda
    spin               none
    relativistic       none
    charge             0.
  
    use_gpu
  
    DFPT dielectric
    ri_density_restart write
    ri_rho1 write
  #  ri_density_restart read 0
  #  ri_rho1 read
    ri_full_output .true.
    sc_accuracy_rho    1d-6
  #  use_calculate_fock_matrix_old .false.
  #  wave_threshold 1e-8
    k_grid 1 1 1
  #  output cube eigenstate 160
  #  output cube eigenstate 161
    wave_threshold 1e-8
    default_prodbas_acc 1e-6
    default_max_l_prodbas 6
  #
  #  Relaxation
  #
  #  relax_geometry   bfgs 1.e-2
  #
  
  ################################################################################
  
  
  ################################################################################
  #
  #  FHI-aims code project
  #  VB, Fritz-Haber Institut, 2009
  #
  #  Suggested "light" defaults for H atom (to be pasted into control.in file)
  #  Be sure to double-check any results obtained with these settings for post-processing,
  #  e.g., with the "tight" defaults and larger basis sets.
  #
  ################################################################################
    species        H
  #     global species definitions
      nucleus             1
      mass                1.00794
  #
      l_hartree           4
  #
      cut_pot             3.5  1.5  1.0
      basis_dep_cutoff    1e-4
  #
      radial_base         24 5.0
      radial_multiplier   1
      angular_grids       specified
        division   0.2421   50
        division   0.3822  110
        division   0.4799  194
        division   0.5341  302
  #      division   0.5626  434
  #      division   0.5922  590
  #      division   0.6542  770
  #      division   0.6868 1202
  #      outer_grid  770
        outer_grid  302
  ################################################################################
  #
  #  Definition of "minimal" basis
  #
  ################################################################################
  #     valence basis states
      valence      1  s   1.
  #     ion occupancy
      ion_occ      1  s   0.5
  ################################################################################
  #
  #  Suggested additional basis functions. For production calculations,
  #  uncomment them one after another (the most important basis functions are
  #  listed first).
  #
  #  Basis constructed for dimers: 0.5 A, 0.7 A, 1.0 A, 1.5 A, 2.5 A
  #
  ################################################################################
  #  "First tier" - improvements: -1014.90 meV to -62.69 meV
       hydro 2 s 2.1
       hydro 2 p 3.5
  #  "Second tier" - improvements: -12.89 meV to -1.83 meV
  #     hydro 1 s 0.85
  #     hydro 2 p 3.7
  #     hydro 2 s 1.2
  #     hydro 3 d 7
  #  "Third tier" - improvements: -0.25 meV to -0.12 meV
  #     hydro 4 f 11.2
  #     hydro 3 p 4.8
  #     hydro 4 d 9
  #     hydro 3 s 3.2
  ################################################################################
  #
  #  FHI-aims code project
  #  VB, Fritz-Haber Institut, 2009
  #
  #  Suggested "light" defaults for O atom (to be pasted into control.in file)
  #  Be sure to double-check any results obtained with these settings for post-processing,
  #  e.g., with the "tight" defaults and larger basis sets.
  #
  ################################################################################
    species        O
  #     global species definitions
      nucleus             8
      mass                15.9994
  #
      l_hartree           4
  #
      cut_pot             3.5  1.5  1.0
      basis_dep_cutoff    1e-4
  #
      radial_base         36 5.0
      radial_multiplier   1
       angular_grids specified
        division   0.2659   50
        division   0.4451  110
        division   0.6052  194
        division   0.7543  302
  #      division   0.8014  434
  #      division   0.8507  590
  #      division   0.8762  770
  #      division   0.9023  974
  #      division   1.2339 1202
  #      outer_grid 974
        outer_grid 302
  ################################################################################
  #
  #  Definition of "minimal" basis
  #
  ################################################################################
  #     valence basis states
      valence      2  s   2.
      valence      2  p   4.
  #     ion occupancy
      ion_occ      2  s   1.
      ion_occ      2  p   3.
  ################################################################################
  #
  #  Suggested additional basis functions. For production calculations,
  #  uncomment them one after another (the most important basis functions are
  #  listed first).
  #
  #  Constructed for dimers: 1.0 A, 1.208 A, 1.5 A, 2.0 A, 3.0 A
  #
  ################################################################################
  #  "First tier" - improvements: -699.05 meV to -159.38 meV
       hydro 2 p 1.8
       hydro 3 d 7.6
       hydro 3 s 6.4
  #  "Second tier" - improvements: -49.91 meV to -5.39 meV
  #     hydro 4 f 11.6
  #     hydro 3 p 6.2
  #     hydro 3 d 5.6
  #     hydro 5 g 17.6
  #     hydro 1 s 0.75
  #  "Third tier" - improvements: -2.83 meV to -0.50 meV
  #     ionic 2 p auto
  #     hydro 4 f 10.8
  #     hydro 4 d 4.7
  #     hydro 2 s 6.8
  #  "Fourth tier" - improvements: -0.40 meV to -0.12 meV
  #     hydro 3 p 5
  #     hydro 3 s 3.3
  #     hydro 5 g 15.6
  #     hydro 4 f 17.6
  #     hydro 4 d 14
  # Further basis functions - -0.08 meV and below
  #     hydro 3 s 2.1
  #     hydro 4 d 11.6
  #     hydro 3 p 16
  #     hydro 2 s 17.2
  
  -----------------------------------------------------------------------
  Completed first pass over input file control.in .
  -----------------------------------------------------------------------
  
  
  -----------------------------------------------------------------------
  Parsing geometry.in (first pass over file, find array dimensions only).
  The contents of geometry.in will be repeated verbatim below
  unless switched off by setting 'verbatim_writeout .false.' .
  in the first line of geometry.in .
  -----------------------------------------------------------------------
  
  #=======================================================
  # FHI-aims file: /ada/ptmp/mpsd/alewis/bulk_water/qmdata/data/geoms/207.in
  # Created using the Atomic Simulation Environment (ASE)
  # Tue Feb 21 11:23:37 2023
  #=======================================================
  lattice_vector 9.9651899999999998 0.0000000000000000 0.0000000000000000
  lattice_vector 0.0000000000000000 9.9651899999999998 0.0000000000000000
  lattice_vector 0.0000000000000000 0.0000000000000000 9.9651899999999998
  atom 12.0094999999999992 11.0310000000000006 -2.6184799999999999 O
  atom 11.8962000000000003 10.3811999999999998 -1.7384999999999999 H
  atom 11.1973000000000003 10.8186999999999998 -3.2302000000000000 H
  atom 24.1935000000000002 0.7849060000000000 -6.1371900000000004 O
  atom 24.3976000000000006 0.5545740000000000 -7.0402300000000002 H
  atom 23.5462999999999987 1.4856600000000000 -6.3163000000000000 H
  atom -3.6811400000000001 3.4931299999999998 21.5573000000000015 O
  atom -4.7042099999999998 3.1973300000000000 21.1847999999999992 H
  atom -3.5770100000000000 3.4640000000000000 22.5842999999999989 H
  atom 17.1145999999999994 10.8796999999999997 -2.9851100000000002 O
  atom 17.2677000000000014 11.1069999999999993 -2.0433300000000001 H
  atom 16.2717999999999989 10.7827999999999999 -3.1812399999999998 H
  atom 3.9749500000000002 -16.7714999999999996 7.8856999999999999 O
  atom 2.9843600000000001 -17.1816999999999993 7.8801800000000002 H
  atom 4.3853000000000000 -17.1542999999999992 7.1536299999999997 H
  atom -5.5003900000000003 10.2230000000000008 6.3703500000000002 O
  atom -6.3861499999999998 10.4222000000000001 6.7416099999999997 H
  atom -5.6750100000000003 10.2888999999999999 5.2797799999999997 H
  atom 4.4208400000000001 12.1479999999999997 0.4527540000000000 O
  atom 3.5612699999999999 11.9359999999999999 0.6416700000000000 H
  atom 4.4419000000000004 12.5718999999999994 -0.4914800000000000 H
  atom -12.0523000000000007 -10.9797999999999991 -8.0471400000000006 O
  atom -12.0505999999999993 -10.7573000000000008 -7.0677700000000003 H
  atom -11.2157999999999998 -10.1813000000000002 -8.1520499999999991 H
  atom 0.2165440000000000 -24.6332999999999984 13.6440999999999999 O
  atom -0.1945450000000000 -24.6281999999999996 14.5591000000000008 H
  atom 0.6514230000000000 -23.7955000000000005 13.6316000000000006 H
  atom 10.5771999999999995 -12.2255000000000003 12.2850999999999999 O
  atom 11.0809999999999995 -12.1190999999999995 11.5531000000000006 H
  atom 9.8480399999999992 -11.8382000000000005 11.8665000000000003 H
  atom 11.2228999999999992 7.2321600000000004 -12.1013000000000002 O
  atom 10.3133999999999997 7.5610400000000002 -12.5327000000000002 H
  atom 11.8722999999999992 7.6255699999999997 -12.8551000000000002 H
  atom 24.7535999999999987 6.0463600000000000 8.2954200000000000 O
  atom 24.3707999999999991 6.4127200000000002 9.0830000000000002 H
  atom 24.2744999999999997 5.1934100000000001 8.0604700000000005 H
  atom 7.9477099999999998 9.3530700000000007 -5.3977100000000000 O
  atom 7.3273299999999999 10.0782000000000007 -5.0563200000000004 H
  atom 8.8874999999999993 9.5334900000000005 -5.3691599999999999 H
  atom -15.9616000000000007 -12.3714999999999993 10.5867000000000004 O
  atom -15.6877999999999993 -12.9042999999999992 11.3724000000000007 H
  atom -15.3651000000000000 -11.6277000000000008 10.8615999999999993 H
  atom 13.2603000000000009 17.6722999999999999 5.8973800000000001 O
  atom 13.9875000000000007 17.2088999999999999 5.4707200000000000 H
  atom 13.4783000000000008 18.5931999999999995 5.7472099999999999 H
  atom 0.6727690000000000 9.8934400000000000 4.7965999999999998 O
  atom 1.2615900000000000 9.3869500000000006 4.5475899999999996 H
  atom 0.8987600000000000 10.6494999999999997 4.3284500000000001 H
  atom -20.6545999999999985 -10.7431999999999999 -2.7133600000000002 O
  atom -20.2362000000000002 -10.5739999999999998 -3.5039400000000001 H
  atom -21.4435000000000002 -10.3253000000000004 -2.6455199999999999 H
  atom -15.1590000000000007 5.8247299999999997 12.4582999999999995 O
  atom -14.4351000000000003 5.4817700000000000 11.9463000000000008 H
  atom -14.5422999999999991 6.2608499999999996 13.1738999999999997 H
  atom 3.5169000000000001 3.6823999999999999 -6.4305500000000002 O
  atom 3.9089399999999999 4.3032700000000004 -7.1387600000000004 H
  atom 2.6313499999999999 3.8720699999999999 -6.3857699999999999 H
  atom 12.1704000000000008 -0.7885020000000000 -0.6686530000000001 O
  atom 12.9463000000000008 -1.1738900000000001 -0.1611040000000000 H
  atom 11.6661999999999999 -1.5273699999999999 -1.1977100000000001 H
  atom 0.7289060000000001 2.7750599999999999 -6.8128200000000003 O
  atom 0.0130480000000000 2.3500999999999999 -7.2155600000000000 H
  atom 0.4286950000000000 3.7489200000000000 -6.9134399999999996 H
  atom 7.1198600000000001 25.4875000000000007 -3.4619300000000002 O
  atom 6.9835700000000003 24.4863999999999997 -3.6926299999999999 H
  atom 6.3289200000000001 25.6752000000000002 -2.9569600000000000 H
  atom -2.8919299999999999 6.3891700000000000 9.9461700000000004 O
  atom -3.3755700000000002 6.3553699999999997 9.2104300000000006 H
  atom -3.5759300000000001 7.1642500000000000 10.3932000000000002 H
  atom 10.4292999999999996 3.2385000000000002 18.9033000000000015 O
  atom 10.4771999999999998 4.1639799999999996 19.4203000000000010 H
  atom 10.2217000000000002 3.4512800000000001 17.8902000000000001 H
  atom -4.6161500000000002 -0.1913940000000000 11.3788999999999998 O
  atom -4.9377399999999998 0.6820730000000000 10.9844000000000008 H
  atom -3.7161499999999998 -0.1862140000000000 11.4579000000000004 H
  atom 5.9961599999999997 7.2673800000000002 4.4698500000000001 O
  atom 6.3870500000000003 6.8571700000000000 5.2235300000000002 H
  atom 6.3356599999999998 8.1443899999999996 4.3606100000000003 H
  atom 5.7188499999999998 23.1800999999999995 5.1041800000000004 O
  atom 4.9772900000000000 23.4103999999999992 4.8006599999999997 H
  atom 5.8712999999999997 22.3431999999999995 4.9705199999999996 H
  atom 7.6505299999999998 22.6754999999999995 9.3729200000000006 O
  atom 8.6105099999999997 23.0121000000000002 9.2866599999999995 H
  atom 7.1092000000000004 23.1781000000000006 9.9075500000000005 H
  atom -0.1437570000000000 14.7905999999999995 16.6171000000000006 O
  atom -1.0802700000000001 15.0139999999999993 16.7631000000000014 H
  atom 0.4678260000000000 15.3109999999999999 17.1295999999999999 H
  atom 9.1418700000000008 11.2364999999999995 1.1531100000000001 O
  atom 8.4640199999999997 11.8567000000000000 0.6961130000000000 H
  atom 10.1847999999999992 11.5965000000000007 0.7888620000000000 H
  atom -8.0335900000000002 1.6223900000000000 20.6807000000000016 O
  atom -8.0724300000000007 0.6192540000000000 20.5467000000000013 H
  atom -8.3661799999999999 1.9715000000000000 19.7160000000000011 H
  atom -9.9990400000000008 5.6316800000000002 0.4718640000000000 O
  atom -9.8870699999999996 6.0353700000000003 1.3265899999999999 H
  atom -10.9305000000000003 5.8469199999999999 0.2023450000000000 H
  
  -----------------------------------------------------------------------
  Completed first pass over input file geometry.in .
  -----------------------------------------------------------------------
  

  Basic array size parameters:
  | Number of species                 :        2
  | Number of atoms                   :       96
  | Number of lattice vectors         :        3
  | Max. basis fn. angular momentum   :        2
  | Max. atomic/ionic basis occupied n:        2
  | Max. number of basis fn. types    :        2
  | Max. radial fns per species/type  :        3
  | Max. logarithmic grid size        :     1301
  | Max. radial integration grid size :       36
  | Max. angular integration grid size:      302
  | Max. angular grid division number :        8
  | Radial grid for Hartree potential :     1301
  | Number of spin channels           :        1

------------------------------------------------------------
          Reading file control.in.
------------------------------------------------------------
  XC: Using Perdew-Wang parametrisation of Ceperley-Alder LDA.
  Spin treatment: No spin polarisation.
  Non-relativistic treatment of kinetic energy.
  Charge =   0.000000E+00: Neutral system requested explicitly.
  DFPT calculation will begin after the DFT/HF calculation.
  Convergence accuracy of self-consistent charge density:  0.1000E-05
  Found k-point grid:         1         1         1
  Threshold value for wave function integration:  0.1000E-07
 
  Reading configuration options for species H                   .
  | Found nuclear charge :   1.0000
  | Found atomic mass :    1.00794000000000      amu
  | Found l_max for Hartree potential  :   4
  | Found cutoff potl. onset [A], width [A], scale factor :    3.50000    1.50000    1.00000
  | Threshold for basis-dependent cutoff potential is   0.100000E-03
  | Found data for basic radial integration grid :    24 points, outermost radius =    5.000 A
  | Found multiplier for basic radial grid :   1
  | Found angular grid specification: user-specified.
  | Specified grid contains     5 separate shells.
  | Check grid settings after all constraints further below.
  | Found free-atom valence shell :  1 s   1.000
  | No ionic wave fns used. Skipping ion_occ.
  | Found hydrogenic basis function :  2 s   2.100
  | Found hydrogenic basis function :  2 p   3.500
  Species H                   : Missing cutoff potential type.
  Defaulting to exp(1/x)/(1-x)^2 type cutoff potential.
  Species H : No 'logarithmic' tag. Using default grid for free atom:
  | Default logarithmic grid data [bohr] : 0.1000E-03 0.1000E+03 0.1012E+01
  Species H : On-site basis accuracy parameter (for Gram-Schmidt orthonormalisation) not specified.
  Using default value basis_acc =  0.1000000E-03.
  Species H                   : Using default innermost maximum threshold i_radial=  2 for radial functions.
  Species H                   : Default cutoff onset for free atom density etc. : 0.35000000E+01 AA.
  Species H                   : Basic radial grid will be enhanced according to radial_multiplier =   1, to contain    24 grid points.
 
  Reading configuration options for species O                   .
  | Found nuclear charge :   8.0000
  | Found atomic mass :    15.9994000000000      amu
  | Found l_max for Hartree potential  :   4
  | Found cutoff potl. onset [A], width [A], scale factor :    3.50000    1.50000    1.00000
  | Threshold for basis-dependent cutoff potential is   0.100000E-03
  | Found data for basic radial integration grid :    36 points, outermost radius =    5.000 A
  | Found multiplier for basic radial grid :   1
  | Found angular grid specification: user-specified.
  | Specified grid contains     5 separate shells.
  | Check grid settings after all constraints further below.
  | Found free-atom valence shell :  2 s   2.000
  | Found free-atom valence shell :  2 p   4.000
  | No ionic wave fns used. Skipping ion_occ.
  | No ionic wave fns used. Skipping ion_occ.
  | Found hydrogenic basis function :  2 p   1.800
  | Found hydrogenic basis function :  3 d   7.600
  | Found hydrogenic basis function :  3 s   6.400
  Species O                   : Missing cutoff potential type.
  Defaulting to exp(1/x)/(1-x)^2 type cutoff potential.
  Species O : No 'logarithmic' tag. Using default grid for free atom:
  | Default logarithmic grid data [bohr] : 0.1000E-03 0.1000E+03 0.1012E+01
  Species O : On-site basis accuracy parameter (for Gram-Schmidt orthonormalisation) not specified.
  Using default value basis_acc =  0.1000000E-03.
  Species O                   : Using default innermost maximum threshold i_radial=  2 for radial functions.
  Species O                   : Default cutoff onset for free atom density etc. : 0.35000000E+01 AA.
  Species O                   : Basic radial grid will be enhanced according to radial_multiplier =   1, to contain    36 grid points.
 
  Finished reading input file 'control.in'.
 
------------------------------------------------------------


------------------------------------------------------------
          Reading geometry description geometry.in.
------------------------------------------------------------
  | The smallest distance between any two atoms is         0.81562753 AA.
  | The first atom of this pair is atom number                     46 .
  | The second atom of this pair is atom number                    47 .
  | Wigner-Seitz cell of the first atom image           0     0     0 .
  | (The Wigner-Seitz cell of the second atom is 0 0 0  by definition.)

  Symmetry information by spglib:
  | Precision set to  0.1E-04
  | Number of Operations  : 1
  | Space group           : 1
  | International         : P1       V
  | Schoenflies           : C1^1
  Input structure read successfully.
  The structure contains       96 atoms,  and a total of        320.000 electrons.

  Input geometry:
  | Unit cell:
  |        9.96519000        0.00000000        0.00000000
  |        0.00000000        9.96519000        0.00000000
  |        0.00000000        0.00000000        9.96519000
  | Atomic structure:
  |       Atom                x [A]            y [A]            z [A]
  |    1: Species O            12.00950000       11.03100000       -2.61848000
  |    2: Species H            11.89620000       10.38120000       -1.73850000
  |    3: Species H            11.19730000       10.81870000       -3.23020000
  |    4: Species O            24.19350000        0.78490600       -6.13719000
  |    5: Species H            24.39760000        0.55457400       -7.04023000
  |    6: Species H            23.54630000        1.48566000       -6.31630000
  |    7: Species O            -3.68114000        3.49313000       21.55730000
  |    8: Species H            -4.70421000        3.19733000       21.18480000
  |    9: Species H            -3.57701000        3.46400000       22.58430000
  |   10: Species O            17.11460000       10.87970000       -2.98511000
  |   11: Species H            17.26770000       11.10700000       -2.04333000
  |   12: Species H            16.27180000       10.78280000       -3.18124000
  |   13: Species O             3.97495000      -16.77150000        7.88570000
  |   14: Species H             2.98436000      -17.18170000        7.88018000
  |   15: Species H             4.38530000      -17.15430000        7.15363000
  |   16: Species O            -5.50039000       10.22300000        6.37035000
  |   17: Species H            -6.38615000       10.42220000        6.74161000
  |   18: Species H            -5.67501000       10.28890000        5.27978000
  |   19: Species O             4.42084000       12.14800000        0.45275400
  |   20: Species H             3.56127000       11.93600000        0.64167000
  |   21: Species H             4.44190000       12.57190000       -0.49148000
  |   22: Species O           -12.05230000      -10.97980000       -8.04714000
  |   23: Species H           -12.05060000      -10.75730000       -7.06777000
  |   24: Species H           -11.21580000      -10.18130000       -8.15205000
  |   25: Species O             0.21654400      -24.63330000       13.64410000
  |   26: Species H            -0.19454500      -24.62820000       14.55910000
  |   27: Species H             0.65142300      -23.79550000       13.63160000
  |   28: Species O            10.57720000      -12.22550000       12.28510000
  |   29: Species H            11.08100000      -12.11910000       11.55310000
  |   30: Species H             9.84804000      -11.83820000       11.86650000
  |   31: Species O            11.22290000        7.23216000      -12.10130000
  |   32: Species H            10.31340000        7.56104000      -12.53270000
  |   33: Species H            11.87230000        7.62557000      -12.85510000
  |   34: Species O            24.75360000        6.04636000        8.29542000
  |   35: Species H            24.37080000        6.41272000        9.08300000
  |   36: Species H            24.27450000        5.19341000        8.06047000
  |   37: Species O             7.94771000        9.35307000       -5.39771000
  |   38: Species H             7.32733000       10.07820000       -5.05632000
  |   39: Species H             8.88750000        9.53349000       -5.36916000
  |   40: Species O           -15.96160000      -12.37150000       10.58670000
  |   41: Species H           -15.68780000      -12.90430000       11.37240000
  |   42: Species H           -15.36510000      -11.62770000       10.86160000
  |   43: Species O            13.26030000       17.67230000        5.89738000
  |   44: Species H            13.98750000       17.20890000        5.47072000
  |   45: Species H            13.47830000       18.59320000        5.74721000
  |   46: Species O             0.67276900        9.89344000        4.79660000
  |   47: Species H             1.26159000        9.38695000        4.54759000
  |   48: Species H             0.89876000       10.64950000        4.32845000
  |   49: Species O           -20.65460000      -10.74320000       -2.71336000
  |   50: Species H           -20.23620000      -10.57400000       -3.50394000
  |   51: Species H           -21.44350000      -10.32530000       -2.64552000
  |   52: Species O           -15.15900000        5.82473000       12.45830000
  |   53: Species H           -14.43510000        5.48177000       11.94630000
  |   54: Species H           -14.54230000        6.26085000       13.17390000
  |   55: Species O             3.51690000        3.68240000       -6.43055000
  |   56: Species H             3.90894000        4.30327000       -7.13876000
  |   57: Species H             2.63135000        3.87207000       -6.38577000
  |   58: Species O            12.17040000       -0.78850200       -0.66865300
  |   59: Species H            12.94630000       -1.17389000       -0.16110400
  |   60: Species H            11.66620000       -1.52737000       -1.19771000
  |   61: Species O             0.72890600        2.77506000       -6.81282000
  |   62: Species H             0.01304800        2.35010000       -7.21556000
  |   63: Species H             0.42869500        3.74892000       -6.91344000
  |   64: Species O             7.11986000       25.48750000       -3.46193000
  |   65: Species H             6.98357000       24.48640000       -3.69263000
  |   66: Species H             6.32892000       25.67520000       -2.95696000
  |   67: Species O            -2.89193000        6.38917000        9.94617000
  |   68: Species H            -3.37557000        6.35537000        9.21043000
  |   69: Species H            -3.57593000        7.16425000       10.39320000
  |   70: Species O            10.42930000        3.23850000       18.90330000
  |   71: Species H            10.47720000        4.16398000       19.42030000
  |   72: Species H            10.22170000        3.45128000       17.89020000
  |   73: Species O            -4.61615000       -0.19139400       11.37890000
  |   74: Species H            -4.93774000        0.68207300       10.98440000
  |   75: Species H            -3.71615000       -0.18621400       11.45790000
  |   76: Species O             5.99616000        7.26738000        4.46985000
  |   77: Species H             6.38705000        6.85717000        5.22353000
  |   78: Species H             6.33566000        8.14439000        4.36061000
  |   79: Species O             5.71885000       23.18010000        5.10418000
  |   80: Species H             4.97729000       23.41040000        4.80066000
  |   81: Species H             5.87130000       22.34320000        4.97052000
  |   82: Species O             7.65053000       22.67550000        9.37292000
  |   83: Species H             8.61051000       23.01210000        9.28666000
  |   84: Species H             7.10920000       23.17810000        9.90755000
  |   85: Species O            -0.14375700       14.79060000       16.61710000
  |   86: Species H            -1.08027000       15.01400000       16.76310000
  |   87: Species H             0.46782600       15.31100000       17.12960000
  |   88: Species O             9.14187000       11.23650000        1.15311000
  |   89: Species H             8.46402000       11.85670000        0.69611300
  |   90: Species H            10.18480000       11.59650000        0.78886200
  |   91: Species O            -8.03359000        1.62239000       20.68070000
  |   92: Species H            -8.07243000        0.61925400       20.54670000
  |   93: Species H            -8.36618000        1.97150000       19.71600000
  |   94: Species O            -9.99904000        5.63168000        0.47186400
  |   95: Species H            -9.88707000        6.03537000        1.32659000
  |   96: Species H           -10.93050000        5.84692000        0.20234500

  Lattice parameters for 3D lattice (in Angstroms) :     9.965190    9.965190    9.965190
  Angle(s) between unit vectors (in degrees)       :    90.000000   90.000000   90.000000


  Quantities derived from the lattice vectors (in Angstrom^-1):
  | Reciprocal lattice vector 1:  0.630513  0.000000  0.000000
  | Reciprocal lattice vector 2:  0.000000  0.630513  0.000000
  | Reciprocal lattice vector 3:  0.000000  0.000000  0.630513
  | Unit cell volume                               :   0.989593E+03  Angstrom^3

  Fractional coordinates:
                         L1                L2                L3
       atom_frac         1.20514511        1.10695330       -0.26276268  O
       atom_frac         1.19377553        1.04174632       -0.17445729  H
       atom_frac         1.12364140        1.08564914       -0.32414836  H
       atom_frac         2.42780118        0.07876478       -0.61586282  O
       atom_frac         2.44828247        0.05565112       -0.70648226  H
       atom_frac         2.36285510        0.14908496       -0.63383638  H
       atom_frac        -0.36939988        0.35053321        2.16326031  O
       atom_frac        -0.47206426        0.32084988        2.12588019  H
       atom_frac        -0.35895051        0.34761003        2.26631906  H
       atom_frac         1.71743840        1.09177045       -0.29955375  O
       atom_frac         1.73280188        1.11457985       -0.20504677  H
       atom_frac         1.63286400        1.08204660       -0.31923526  H
       atom_frac         0.39888351       -1.68300855        0.79132460  O
       atom_frac         0.29947848       -1.72417184        0.79077067  H
       atom_frac         0.44006186       -1.72142227        0.71786188  H
       atom_frac        -0.55196037        1.02587106        0.63926026  O
       atom_frac        -0.64084578        1.04586064        0.67651595  H
       atom_frac        -0.56948337        1.03248408        0.52982231  H
       atom_frac         0.44362827        1.21904349        0.04543355  O
       atom_frac         0.35737101        1.19776944        0.06439115  H
       atom_frac         0.44574163        1.26158157       -0.04931968  H
       atom_frac        -1.20944006       -1.10181542       -0.80752499  O
       atom_frac        -1.20926947       -1.07948770       -0.70924588  H
       atom_frac        -1.12549786       -1.02168649       -0.81805264  H
       atom_frac         0.02173004       -2.47193481        1.36917610  O
       atom_frac        -0.01952246       -2.47142302        1.46099573  H
       atom_frac         0.06536985       -2.38786215        1.36792174  H
       atom_frac         1.06141478       -1.22682056        1.23280138  O
       atom_frac         1.11197077       -1.21614340        1.15934568  H
       atom_frac         0.98824408       -1.18795527        1.19079516  H
       atom_frac         1.12621034        0.72574231       -1.21435718  O
       atom_frac         1.03494264        0.75874519       -1.25764787  H
       atom_frac         1.19137718        0.76522073       -1.29000049  H
       atom_frac         2.48400683        0.60674809        0.83243972  O
       atom_frac         2.44559311        0.64351207        0.91147284  H
       atom_frac         2.43592947        0.52115514        0.80886265  H
       atom_frac         0.79754726        0.93857418       -0.54165651  O
       atom_frac         0.73529255        1.01134048       -0.50739825  H
       atom_frac         0.89185455        0.95667920       -0.53879153  H
       atom_frac        -1.60173564       -1.24147156        1.06236810  O
       atom_frac        -1.57426000       -1.29493768        1.14121256  H
       atom_frac        -1.54187727       -1.16683174        1.08995413  H
       atom_frac         1.33066203        1.77340322        0.59179805  O
       atom_frac         1.40363606        1.72690134        0.54898301  H
       atom_frac         1.35253819        1.86581490        0.57672859  H
       atom_frac         0.06751191        0.99279994        0.48133553  O
       atom_frac         0.12659969        0.94197401        0.45634755  H
       atom_frac         0.09018995        1.06867004        0.43435700  H
       atom_frac        -2.07267498       -1.07807277       -0.27228382  O
       atom_frac        -2.03068883       -1.06109367       -0.35161798  H
       atom_frac        -2.15184056       -1.03613679       -0.26547612  H
       atom_frac        -1.52119528        0.58450767        1.25018188  O
       atom_frac        -1.44855241        0.55009187        1.19880303  H
       atom_frac        -1.45930986        0.62827201        1.32199185  H
       atom_frac         0.35291851        0.36952632       -0.64530129  O
       atom_frac         0.39225946        0.43183020       -0.71636968  H
       atom_frac         0.26405417        0.38855958       -0.64080765  H
       atom_frac         1.22129132       -0.07912564       -0.06709887  O
       atom_frac         1.29915235       -0.11779906       -0.01616668  H
       atom_frac         1.17069519       -0.15327053       -0.12018938  H
       atom_frac         0.07314522        0.27847537       -0.68366183  O
       atom_frac         0.00130936        0.23583093       -0.72407651  H
       atom_frac         0.04301925        0.37620156       -0.69375897  H
       atom_frac         0.71447308        2.55765319       -0.34740231  O
       atom_frac         0.70079647        2.45719349       -0.37055289  H
       atom_frac         0.63510279        2.57648876       -0.29672891  H
       atom_frac        -0.29020320        0.64114884        0.99809136  O
       atom_frac        -0.33873614        0.63775703        0.92426035  H
       atom_frac        -0.35884213        0.71892759        1.04295051  H
       atom_frac         1.04657312        0.32498126        1.89693322  O
       atom_frac         1.05137985        0.41785254        1.94881382  H
       atom_frac         1.02574060        0.34633359        1.79526933  H
       atom_frac        -0.46322749       -0.01920626        1.14186483  O
       atom_frac        -0.49549883        0.06844556        1.10227703  H
       atom_frac        -0.37291311       -0.01868645        1.14979243  H
       atom_frac         0.60171055        0.72927661        0.44854639  O
       atom_frac         0.64093610        0.68811232        0.52417766  H
       atom_frac         0.63577915        0.81728397        0.43758423  H
       atom_frac         0.57388269        2.32610718        0.51220097  O
       atom_frac         0.49946765        2.34921763        0.48174295  H
       atom_frac         0.58918094        2.24212484        0.49878828  H
       atom_frac         0.76772545        2.27547091        0.94056611  O
       atom_frac         0.86405879        2.30924849        0.93190998  H
       atom_frac         0.71340336        2.32590648        0.99421587  H
       atom_frac        -0.01442592        1.48422659        1.66751462  O
       atom_frac        -0.10840436        1.50664463        1.68216562  H
       atom_frac         0.04694602        1.53644838        1.71894364  H
       atom_frac         0.91738040        1.12757509        0.11571380  O
       atom_frac         0.84935862        1.18981173        0.06985446  H
       atom_frac         1.02203771        1.16370084        0.07916176  H
       atom_frac        -0.80616526        0.16280573        2.07529410  O
       atom_frac        -0.81006283        0.06214172        2.06184729  H
       atom_frac        -0.83954044        0.19783868        1.97848711  H
       atom_frac        -1.00339682        0.56513524        0.04735123  O
       atom_frac        -0.99216071        0.60564525        0.13312240  H
       atom_frac        -1.09686820        0.58673442        0.02030518  H

 
  Finished reading input file 'geometry.in'.
 

 
  Consistency checks for stacksize environment parameter are next.
 
  | Maximum stacksize for task 0: unlimited
  | Maximum stacksize for task 1: unlimited
  | Maximum stacksize for task 2: unlimited
  | Maximum stacksize for task 3: unlimited
  | Maximum stacksize for task 4: unlimited
  | Maximum stacksize for task 5: unlimited
  | Maximum stacksize for task 6: unlimited
  | Maximum stacksize for task 7: unlimited
  | Maximum stacksize for task 8: unlimited
  | Maximum stacksize for task 9: unlimited
  | Maximum stacksize for task 10: unlimited
  | Maximum stacksize for task 11: unlimited
  | Maximum stacksize for task 12: unlimited
  | Maximum stacksize for task 13: unlimited
  | Maximum stacksize for task 14: unlimited
  | Maximum stacksize for task 15: unlimited
  | Maximum stacksize for task 16: unlimited
  | Maximum stacksize for task 17: unlimited
  | Current stacksize for task 0: unlimited
  | Current stacksize for task 1: unlimited
  | Current stacksize for task 2: unlimited
  | Current stacksize for task 3: unlimited
  | Current stacksize for task 4: unlimited
  | Current stacksize for task 5: unlimited
  | Current stacksize for task 6: unlimited
  | Current stacksize for task 7: unlimited
  | Current stacksize for task 8: unlimited
  | Current stacksize for task 9: unlimited
  | Current stacksize for task 10: unlimited
  | Current stacksize for task 11: unlimited
  | Current stacksize for task 12: unlimited
  | Current stacksize for task 13: unlimited
  | Current stacksize for task 14: unlimited
  | Current stacksize for task 15: unlimited
  | Current stacksize for task 16: unlimited
  | Current stacksize for task 17: unlimited
 
  Consistency checks for the contents of control.in are next.
 
  MPI_IN_PLACE appears to work with this MPI implementation.
  | Keeping use_mpi_in_place .true. (see manual).
  Explicit treatment of the Coulomb operator is needed, but the RI method is not specified.
  Coulomb operator: Defaulting to 'LVL fast' resolution of identity - RI_type = LVL_fast
  Species H: Using default value for prodbas_acc =   1.000000E-06.
  Species H: Using default value max_l_prodbas =     6.
  Species O: Using default value for prodbas_acc =   1.000000E-06.
  Species O: Using default value max_l_prodbas =     6.
  Target number of points in a grid batch is not set.  Since GPU acceleration is enabled, defaulting to  200
  Method for grid partitioning is not set. Defaulting to parallel hash+maxmin partitioning.
  Batch size limit is not set. Defaulting to    200
  By default, will store active basis functions for each batch.
  If in need of memory, prune_basis_once .false. can be used to disable this option.
  communication_type for Hartree potential was not specified.
  Defaulting to calc_hartree .
  Defaulting to Pulay charge density mixer.
  Pulay mixer: Number of relevant iterations not set.
  Defaulting to    8 iterations.
  Pulay mixer: Number of initial linear mixing iterations not set.
  Defaulting to    0 iterations.
  Work space size for distributed Hartree potential not set.
  Defaulting to   0.200000E+03 MB.
  Mixing parameter for charge density mixing has not been set.
  Using default: charge_mix_param =     0.0500.
  The mixing parameter will be adjusted in iteration number     2 of the first full s.c.f. cycle only.
  Algorithm-dependent basis array size parameters:
  | n_max_pulay                         :        8
  Maximum number of self-consistency iterations not provided.
  Presetting  1000 iterations.
  Presetting      1001 iterations before the initial mixing cycle
  is restarted anyway using the sc_init_iter criterion / keyword.
  Presetting a factor      1.000 between actual scf density residual
  and density convergence criterion sc_accuracy_rho below which sc_init_iter
  takes no effect.
  Calculation of forces was not defined in control.in. No forces will be calculated.
  Geometry relaxation not requested: no relaxation will be performed.
  No accuracy limit for integral partition fn. given. Defaulting to  0.1000E-14.
  No occupation type (smearing scheme) given. Defaulting to Gaussian broadening, width =  0.1000E-01 eV.
  The width will be adjusted in iteration number     2 of the first full s.c.f. cycle only.
  S.C.F. convergence parameters will be adjusted in iteration number     2 of the first full s.c.f. cycle only.
  No accuracy for occupation numbers given. Defaulting to  0.1000E-12.
  No threshold value for occupation numbers given. Defaulting to  0.0000E+00.
  No accuracy for fermi level given. Defaulting to  0.1000E-19.
  Maximum # of iterations to find E_F not set. Defaulting to  200.
  Preferred method for the eigenvalue solver ('KS_method') not specified in 'control.in'.
  Calling BLACS routine to test compilation state
  Since ScaLAPACK support is enabled, defaulting to ELPA (via ELSI).
  Will not use alltoall communication since running on < 1024 CPUs.
  Threshold for basis singularities not set.
  Default threshold for basis singularities:  0.1000E-04
  partition_type (choice of integration weights) for integrals was not specified.
  | Using a version of the partition function of Stratmann and coworkers ('stratmann_sparse').
  | At each grid point, the set of atoms used to build the partition table is smoothly restricted to
  | only those atoms whose free-atom density would be non-zero at that grid point.
  Partitioning for Hartree potential was not defined. Using partition_type for integrals.
  | Adjusted default value of keyword multip_moments_threshold to:       0.10000000E-11
  | This value may affect high angular momentum components of the Hartree potential in periodic systems.
  Angular momentum expansion for Kerker preconditioner not set explicitly.
  | Using default value of   0
  No explicit requirement for turning off preconditioner.
  | By default, it will be turned off when the charge convergence reaches
  | sc_accuracy_rho  =   0.100000E-05
  No special mixing parameter while Kerker preconditioner is on.
  Using default: charge_mix_param =     0.0500.
  Threshold for auxiliary basis singularities not set.
  Default threshold for auxiliary basis singularities:  0.1000E-04
  No q(lm)/r^(l+1) cutoff set for long-range Hartree potential.
  | Using default value of  0.100000E-09 .
  | Verify using the multipole_threshold keyword.
  Defaulting to new monopole extrapolation.
  Density update method: automatic selection selected.
  Using density matrix based charge density update.
  Using density matrix based charge density update.
  Using packed matrix style: index .
  Defaulting to use time-reversal symmetry for k-point grid.
  Charge integration errors on the 3D integration grid will be compensated
  by explicit normalization and distribution of residual charges.
  Use the "compensate_multipole_errors" flag to change this behaviour.
  Default to 1D ("use_logsbt") integrations for auxiliary 2-center integrals.
  Default onset of logarithmic r-grid for SBT is -38.000000000000
  Default onset of logarithmic k-grid for SBT is -25.000000000000
  Default range of logarithmic r- and k-grid for SBT is  45.000000000000
  Default number of logarithmic r- and k-grid for SBT is   4096
  Default of use_2d_corr is to use the efficient 2D distribution where possible
 
  Consistency checks for the contents of geometry.in are next.
 

  Range separation radius for Ewald summation (hartree_convergence_parameter):      3.01323368 bohr.
  Number of empty states per atom not set in control.in .
  | Since you are using a method that relies on the unoccupied spectrum
  | (MP2,GW,RPA et al.), will use the full Hamiltonian size (see below)
  | as the max. possible number of states (occupied plus empty).

  Structure-dependent array size parameters: 
  | Maximum number of distinct radial functions  :        9
  | Maximum number of basis functions            :      768
  | Number of Kohn-Sham states (occupied + empty):      768
------------------------------------------------------------

  Performing system and environment tests:
  | Environment variable OMP_NUM_THREADS correctly set to 1.
  | Checking for ScaLAPACK...
  | Testing pdtran()...
  | All pdtran() tests passed.
CUDA runtime version: 11060
CUDA driver version: 11060
  Initializing GPUs...

  Number of GPUs available to MPI task         0 :   1
  Number of GPUs available to MPI task         1 :   1
  Number of GPUs available to MPI task         2 :   1
  Number of GPUs available to MPI task         3 :   1
  Number of GPUs available to MPI task         4 :   1
  Number of GPUs available to MPI task         5 :   1
  Number of GPUs available to MPI task         6 :   1
  Number of GPUs available to MPI task         7 :   1
  Number of GPUs available to MPI task         8 :   1
  Number of GPUs available to MPI task         9 :   1
  Number of GPUs available to MPI task        10 :   1
  Number of GPUs available to MPI task        11 :   1
  Number of GPUs available to MPI task        12 :   1
  Number of GPUs available to MPI task        13 :   1
  Number of GPUs available to MPI task        14 :   1
  Number of GPUs available to MPI task        15 :   1
  Number of GPUs available to MPI task        16 :   1
  Number of GPUs available to MPI task        17 :   1

  | MPI task         0, GPU activated = T, Device Name = NVIDIA A100-SXM4-80GB
  | MPI task         1, GPU activated = T, Device Name = NVIDIA A100-SXM4-80GB
  | MPI task         2, GPU activated = T, Device Name = NVIDIA A100-SXM4-80GB
  | MPI task         3, GPU activated = T, Device Name = NVIDIA A100-SXM4-80GB
  | MPI task         4, GPU activated = T, Device Name = NVIDIA A100-SXM4-80GB
  | MPI task         5, GPU activated = T, Device Name = NVIDIA A100-SXM4-80GB
  | MPI task         6, GPU activated = T, Device Name = NVIDIA A100-SXM4-80GB
  | MPI task         7, GPU activated = T, Device Name = NVIDIA A100-SXM4-80GB
  | MPI task         8, GPU activated = T, Device Name = NVIDIA A100-SXM4-80GB
  | MPI task         9, GPU activated = T, Device Name = NVIDIA A100-SXM4-80GB
  | MPI task        10, GPU activated = T, Device Name = NVIDIA A100-SXM4-80GB
  | MPI task        11, GPU activated = T, Device Name = NVIDIA A100-SXM4-80GB
  | MPI task        12, GPU activated = T, Device Name = NVIDIA A100-SXM4-80GB
  | MPI task        13, GPU activated = T, Device Name = NVIDIA A100-SXM4-80GB
  | MPI task        14, GPU activated = T, Device Name = NVIDIA A100-SXM4-80GB
  | MPI task        15, GPU activated = T, Device Name = NVIDIA A100-SXM4-80GB
  | MPI task        16, GPU activated = T, Device Name = NVIDIA A100-SXM4-80GB
  | MPI task        17, GPU activated = T, Device Name = NVIDIA A100-SXM4-80GB

------------------------------------------------------------
          Preparing all fixed parts of the calculation.
------------------------------------------------------------
  Determining machine precision:
    2.225073858507201E-308
  Setting up grids for atomic and cluster calculations.

  Creating wave function, potential, and density for free atoms.
  Runtime choices for atomic solver:
  | atomic solver xc        : PW-LDA
  | compute density gradient: 0
  | compute kinetic density : F

  Species: H

  List of occupied orbitals and eigenvalues:
    n    l              occ      energy [Ha]    energy [eV]
    1    0           1.0000        -0.232375        -6.3233


  Species: O

  List of occupied orbitals and eigenvalues:
    n    l              occ      energy [Ha]    energy [eV]
    1    0           2.0000       -18.757744      -510.4242
    2    0           2.0000        -0.870917       -23.6989
    2    1           4.0000        -0.337950        -9.1961


  Adding cutoff potential to free-atom effective potential.
  Creating fixed part of basis set: Ionic, confined, hydrogenic.
 
  H                    hydrogenic:
 
  List of hydrogenic basis orbitals: 
    n    l      effective z      eigenvalue [eV]  inner max. [A]     outer max. [A]     outer radius [A]   
    2    0         2.100000       -14.9728           0.193243           1.317208           4.696947
    2    1         3.500000       -41.6669           0.602369           0.602369           3.862494
 
 
  O                    hydrogenic:
 
  List of hydrogenic basis orbitals: 
    n    l      effective z      eigenvalue [eV]  inner max. [A]     outer max. [A]     outer radius [A]   
    2    1         1.800000       -10.9749           1.164242           1.164242           4.691341
    3    2         7.600000       -87.3180           0.624125           0.624125           3.413946
    3    0         6.400000       -61.9207           0.061167           1.081902           4.151495
 
  Creating atomic-like basis functions for current effective potential.

  Species H                   :

  List of atomic basis orbitals and eigenvalues:
    n    l      energy [Ha]    energy [eV]    outer radius [A]
    1    0        -0.232375        -6.3233       4.696947


  Species O                   :

  List of atomic basis orbitals and eigenvalues:
    n    l      energy [Ha]    energy [eV]    outer radius [A]
    1    0       -18.757744      -510.4242       1.830144
    2    0        -0.870917       -23.6989       4.578029
    2    1        -0.337950        -9.1961       4.634338

  Assembling full basis from fixed parts.
  | Species H :   atomic orbital   1 s accepted.
  | Species H :    hydro orbital   2 s accepted.
  | Species H :    hydro orbital   2 p accepted.
  | Species O :   atomic orbital   1 s accepted.
  | Species O :    hydro orbital   3 s accepted.
  | Species O :   atomic orbital   2 s accepted.
  | Species O :   atomic orbital   2 p accepted.
  | Species O :    hydro orbital   2 p accepted.
  | Species O :    hydro orbital   3 d accepted.
 
  Basis size parameters after reduction:
  | Total number of radial functions:        9
  | Total number of basis functions :      768
 
  Per-task memory consumption for arrays in subroutine allocate_ext:
  |           2.268304MB.
  Testing on-site integration grid accuracy.
  |  Species  Function  <phi|h_atom|phi> (log., in eV)  <phi|h_atom|phi> (rad., in eV)
           1        1                 -6.3245358373                 -6.3232436907
           1        2                 14.1326137532                 14.1384481100
           1        3                 25.3627025200                 25.3628451197
           2        4               -510.4241781764               -510.4240769407
           2        5                 14.9072942213                 14.9072945271
           2        6                -21.2004736474                -21.2005650551
           2        7                 -9.1962086505                 -9.1963509834
           2        8                  8.1896755006                  8.1702200081
           2        9                 45.7920584937                 45.7920228520

  Preparing densities etc. for the partition functions (integrals / Hartree potential).

  Preparations completed.
  max(cpu_time)          :      0.070 s.
  Wall clock time (cpu1) :      0.062 s.
------------------------------------------------------------

  Initializing index lists of integration centers etc. from given atomic structure:
  Mapping all atomic coordinates to central unit cell.

  Initializing the k-points
  Using symmetry for reducing the k-points
  | k-points reduced from:        1 to        1
  | Number of k-points                             :         1
  | Consuming          0 KiB for k_phase_exx.
  The eigenvectors in the calculations are REAL.
  | Number of basis functions in the Hamiltonian integrals :      4167
  | Number of basis functions in a single unit cell        :       768
  | Number of centers in hartree potential         :      2613
  | Number of centers in hartree multipole         :      1919
  | Number of centers in electron density summation:      1480
  | Number of centers in basis integrals           :      1548
  | Number of centers in integrals                 :       671
  | Number of centers in hamiltonian               :      1481
  | Consuming          0 KiB for k_phase.
  | Number of super-cells (origin) [n_cells]                     :         125
  | Number of super-cells (after PM_index) [n_cells]             :          28
  | Number of super-cells in hamiltonian [n_cells_in_hamiltonian]:          28
  | Size of matrix packed + index [n_hamiltonian_matrix_size] :      766102
  | Size of matrix packed + index (no_symmetry):     1531435

------------------------------------------------------------
          Begin self-consistency loop: Initialization.

          Date     :  20230221, Time     :  152346.745
------------------------------------------------------------
  | Estimated reciprocal-space cutoff momentum G_max:         3.13585617 bohr^-1 .
  | Reciprocal lattice points for long-range Hartree potential:    3430
  Using simple linear distribution as default method for k-point parallelism.
  * Using 18 tasks for Scalapack Eigenvalue solver.
  Detailed listing of tasks and assigned k-points:
   Task     0 k-point     1 on adag040
   Task     1 k-point     1 on adag040
   Task     2 k-point     1 on adag040
   Task     3 k-point     1 on adag040
   Task     4 k-point     1 on adag040
   Task     5 k-point     1 on adag040
   Task     6 k-point     1 on adag040
   Task     7 k-point     1 on adag040
   Task     8 k-point     1 on adag040
   Task     9 k-point     1 on adag040
   Task    10 k-point     1 on adag040
   Task    11 k-point     1 on adag040
   Task    12 k-point     1 on adag040
   Task    13 k-point     1 on adag040
   Task    14 k-point     1 on adag040
   Task    15 k-point     1 on adag040
   Task    16 k-point     1 on adag040
   Task    17 k-point     1 on adag040
  K-point:     1 Tasks:    18 split into      6 X      3 BLACS grid
  Calculating block size based on n_basis =          768  max_nprow =            6  max_npcol =            3
  ScaLAPACK block size set to:           16
  Allocating        0.250 MB for ovlp
  Allocating        0.250 MB for ham
  Allocating        0.250 MB for eigenvec
  Required Scalapack workspace - INTEGER:            1  REAL:             1
  Partitioning the integration grid into batches with parallel hashing+maxmin method.
  | Number of batches:     3855
  | Maximal batch size:     200
  | Minimal batch size:      99
  | Average batch size:     132.184
  | Standard deviation of batch sizes:      27.547

  Integration load balanced across    18 MPI tasks.
  Work distribution over tasks is as follows:
  Task     0 has      28379 integration points.
  Task     1 has      28305 integration points.
  Task     2 has      28365 integration points.
  Task     3 has      28271 integration points.
  Task     4 has      28289 integration points.
  Task     5 has      28334 integration points.
  Task     6 has      28262 integration points.
  Task     7 has      28348 integration points.
  Task     8 has      28348 integration points.
  Task     9 has      28268 integration points.
  Task    10 has      28301 integration points.
  Task    11 has      28336 integration points.
  Task    12 has      28294 integration points.
  Task    13 has      28265 integration points.
  Task    14 has      28254 integration points.
  Task    15 has      28295 integration points.
  Task    16 has      28365 integration points.
  Task    17 has      28289 integration points.
  Initializing partition tables, free-atom densities, potentials, etc. across the integration grid (initialize_grid_storage).
  | initialize_grid_storage: Actual outermost partition radius vs. multipole_radius_free
  | (-- VB: in principle, multipole_radius_free should be larger, hence this output)
  | Species        1: Confinement radius =              4.999999999999999 AA, multipole_radius_free =              5.054417573612229 AA.
  | Species        1: outer_partition_radius set to              5.054417573612229 AA .
  | Species        2: Confinement radius =              4.999999999999999 AA, multipole_radius_free =              5.048384829883283 AA.
  | Species        2: outer_partition_radius set to              5.048384829883283 AA .
  | The sparse table of interatomic distances needs       4994.67 kbyte instead of     19170.43 kbyte of memory.
  | Net number of integration points:   509568
  | of which are non-zero points    :   407619
  | Numerical average free-atom electrostatic potential    :     -5.26612548 eV
  Renormalizing the initial density to the exact electron count on the 3D integration grid.
  | Initial density: Formal number of electrons (from input files) :     320.0000000000
  | Integrated number of electrons on 3D grid     :     320.0001037386
  | Charge integration error                      :       0.0001037386
  | Normalization factor for density and gradient :       0.9999996758
  Renormalizing the free-atom superposition density to the exact electron count on the 3D integration grid.
  | Formal number of electrons (from input files) :     320.0000000000
  | Integrated number of electrons on 3D grid     :     320.0001037386
  | Charge integration error                      :       0.0001037386
  | Normalization factor for density and gradient :       0.9999996758
  Obtaining max. number of non-zero basis functions in each batch (get_n_compute_maxes).
  | Maximal number of non-zero basis functions:      431 in task     0
  | Maximal number of non-zero basis functions:      426 in task     1
  | Maximal number of non-zero basis functions:      416 in task     2
  | Maximal number of non-zero basis functions:      432 in task     3
  | Maximal number of non-zero basis functions:      436 in task     4
  | Maximal number of non-zero basis functions:      442 in task     5
  | Maximal number of non-zero basis functions:      432 in task     6
  | Maximal number of non-zero basis functions:      414 in task     7
  | Maximal number of non-zero basis functions:      425 in task     8
  | Maximal number of non-zero basis functions:      402 in task     9
  | Maximal number of non-zero basis functions:      432 in task    10
  | Maximal number of non-zero basis functions:      429 in task    11
  | Maximal number of non-zero basis functions:      420 in task    12
  | Maximal number of non-zero basis functions:      427 in task    13
  | Maximal number of non-zero basis functions:      417 in task    14
  | Maximal number of non-zero basis functions:      414 in task    15
  | Maximal number of non-zero basis functions:      417 in task    16
  | Maximal number of non-zero basis functions:      420 in task    17
  Integrating Hamiltonian matrix: batch-based integration.
  GPU acceleration will be used when integrating the Hamiltonian matrix.
  Reporting GPU memory usage by myid 0.  Note that it is likely not the only MPI task binding to its GPU!
  Allocating        1.486 MB on GPU for hamiltonian_shell
  Allocating        0.690 MB on GPU for wave
  Allocating        0.002 MB on GPU for partition
  Allocating        0.690 MB on GPU for h_times_psi
  Time summed over all CPUs for integration: real work       11.257 s, elapsed       11.907 s
  Deallocating memory used on GPU for Hamiltonian integration.
  Integrating overlap matrix.
  Time summed over all CPUs for integration: real work        8.575 s, elapsed        9.089 s
  Deallocating overlap matrix.

  Updating Kohn-Sham eigenvalues and eigenvectors using ELSI and the ELPA eigensolver.
  Singularity check in k-point 1 (analysis for other k-points may follow below):
  Overlap matrix is not singular
  | Lowest and highest eigenvalues :  0.2260E-02,  0.7271E+01
  Finished singularity check of overlap matrix
  | Time :     0.132 s
  Starting ELPA eigensolver (GPU)
  Finished Cholesky decomposition
  | Time :     0.007 s
  Finished transformation to standard eigenproblem
  | Time :     0.025 s
  Finished solving standard eigenproblem
  | Time :     0.182 s
  Finished back-transformation of eigenvectors
  | Time :     0.015 s

  Obtaining occupation numbers and electronic chemical potential using ELSI.
  | Note that, for insulating systems, the printed 'chemical potential' value is not uniquely defined.
  | It can be anywhere in the energy gap, as long as it correctly separates occupied and unoccupied states.
  | In systems with a gap, the physically relevant chemical potential is the VBM or HOMO.

  | Chemical potential (Fermi level):    -6.78937494 eV
  Writing Kohn-Sham eigenvalues.

  State    Occupation    Eigenvalue [Ha]    Eigenvalue [eV]
      1       2.00000         -18.936092         -515.27727
      2       2.00000         -18.930521         -515.12569
      3       2.00000         -18.903437         -514.38870
      4       2.00000         -18.900043         -514.29634
      5       2.00000         -18.895589         -514.17514
      6       2.00000         -18.885062         -513.88868
      7       2.00000         -18.884509         -513.87363
      8       2.00000         -18.883303         -513.84081
      9       2.00000         -18.880949         -513.77677
     10       2.00000         -18.877888         -513.69346
     11       2.00000         -18.877603         -513.68570
     12       2.00000         -18.876537         -513.65671
     13       2.00000         -18.875553         -513.62992
     14       2.00000         -18.874097         -513.59031
     15       2.00000         -18.871470         -513.51883
     16       2.00000         -18.870829         -513.50139
     17       2.00000         -18.870182         -513.48378
     18       2.00000         -18.869947         -513.47740
     19       2.00000         -18.868803         -513.44626
     20       2.00000         -18.868541         -513.43912
     21       2.00000         -18.867662         -513.41520
     22       2.00000         -18.867157         -513.40145
     23       2.00000         -18.864315         -513.32412
     24       2.00000         -18.857974         -513.15157
     25       2.00000         -18.852130         -512.99256
     26       2.00000         -18.849125         -512.91078
     27       2.00000         -18.844014         -512.77172
     28       2.00000         -18.843784         -512.76545
     29       2.00000         -18.841280         -512.69731
     30       2.00000         -18.838326         -512.61694
     31       2.00000         -18.836953         -512.57958
     32       2.00000         -18.836822         -512.57600
     33       2.00000          -1.197576          -32.58771
     34       2.00000          -1.196700          -32.56387
     35       2.00000          -1.159799          -31.55975
     36       2.00000          -1.149872          -31.28961
     37       2.00000          -1.133378          -30.84079
     38       2.00000          -1.128298          -30.70254
     39       2.00000          -1.121247          -30.51068
     40       2.00000          -1.119624          -30.46652
     41       2.00000          -1.114255          -30.32043
     42       2.00000          -1.113260          -30.29336
     43       2.00000          -1.110246          -30.21134
     44       2.00000          -1.109543          -30.19220
     45       2.00000          -1.109128          -30.18090
     46       2.00000          -1.107875          -30.14682
     47       2.00000          -1.104116          -30.04451
     48       2.00000          -1.103781          -30.03542
     49       2.00000          -1.098991          -29.90505
     50       2.00000          -1.096730          -29.84354
     51       2.00000          -1.095494          -29.80991
     52       2.00000          -1.093608          -29.75860
     53       2.00000          -1.092850          -29.73797
     54       2.00000          -1.090843          -29.68334
     55       2.00000          -1.086534          -29.56610
     56       2.00000          -1.079985          -29.38788
     57       2.00000          -1.069216          -29.09486
     58       2.00000          -1.065104          -28.98296
     59       2.00000          -1.051592          -28.61528
     60       2.00000          -1.050846          -28.59497
     61       2.00000          -1.049363          -28.55461
     62       2.00000          -1.042332          -28.36329
     63       2.00000          -1.035414          -28.17504
     64       2.00000          -1.034695          -28.15550
     65       2.00000          -0.751188          -20.44088
     66       2.00000          -0.715593          -19.47228
     67       2.00000          -0.713455          -19.41411
     68       2.00000          -0.691316          -18.81167
     69       2.00000          -0.679767          -18.49741
     70       2.00000          -0.676506          -18.40865
     71       2.00000          -0.672985          -18.31287
     72       2.00000          -0.669987          -18.23128
     73       2.00000          -0.665870          -18.11925
     74       2.00000          -0.659917          -17.95724
     75       2.00000          -0.659304          -17.94058
     76       2.00000          -0.657413          -17.88912
     77       2.00000          -0.651895          -17.73897
     78       2.00000          -0.649434          -17.67200
     79       2.00000          -0.648371          -17.64306
     80       2.00000          -0.648008          -17.63320
     81       2.00000          -0.645700          -17.57039
     82       2.00000          -0.645374          -17.56151
     83       2.00000          -0.632240          -17.20411
     84       2.00000          -0.631482          -17.18350
     85       2.00000          -0.624073          -16.98190
     86       2.00000          -0.623316          -16.96129
     87       2.00000          -0.623131          -16.95625
     88       2.00000          -0.617720          -16.80902
     89       2.00000          -0.610057          -16.60049
     90       2.00000          -0.607275          -16.52480
     91       2.00000          -0.605150          -16.46697
     92       2.00000          -0.602464          -16.39387
     93       2.00000          -0.598115          -16.27554
     94       2.00000          -0.591872          -16.10566
     95       2.00000          -0.589024          -16.02817
     96       2.00000          -0.584931          -15.91678
     97       2.00000          -0.574174          -15.62406
     98       2.00000          -0.569038          -15.48432
     99       2.00000          -0.566683          -15.42022
    100       2.00000          -0.565329          -15.38338
    101       2.00000          -0.561460          -15.27812
    102       2.00000          -0.555230          -15.10858
    103       2.00000          -0.552320          -15.02939
    104       2.00000          -0.551669          -15.01169
    105       2.00000          -0.550660          -14.98423
    106       2.00000          -0.545075          -14.83225
    107       2.00000          -0.541496          -14.73486
    108       2.00000          -0.539005          -14.66706
    109       2.00000          -0.534769          -14.55181
    110       2.00000          -0.530668          -14.44022
    111       2.00000          -0.529645          -14.41237
    112       2.00000          -0.527476          -14.35335
    113       2.00000          -0.524832          -14.28141
    114       2.00000          -0.523414          -14.24282
    115       2.00000          -0.522214          -14.21017
    116       2.00000          -0.516305          -14.04937
    117       2.00000          -0.515836          -14.03661
    118       2.00000          -0.514823          -14.00904
    119       2.00000          -0.512471          -13.94503
    120       2.00000          -0.511009          -13.90526
    121       2.00000          -0.506650          -13.78665
    122       2.00000          -0.505046          -13.74300
    123       2.00000          -0.501512          -13.64684
    124       2.00000          -0.500411          -13.61688
    125       2.00000          -0.498797          -13.57297
    126       2.00000          -0.495810          -13.49169
    127       2.00000          -0.493169          -13.41980
    128       2.00000          -0.491058          -13.36237
    129       2.00000          -0.486943          -13.25038
    130       2.00000          -0.482339          -13.12510
    131       2.00000          -0.478291          -13.01495
    132       2.00000          -0.477342          -12.98914
    133       2.00000          -0.472488          -12.85706
    134       2.00000          -0.469033          -12.76303
    135       2.00000          -0.468637          -12.75226
    136       2.00000          -0.466053          -12.68194
    137       2.00000          -0.464046          -12.62733
    138       2.00000          -0.462681          -12.59018
    139       2.00000          -0.462157          -12.57593
    140       2.00000          -0.460329          -12.52619
    141       2.00000          -0.459477          -12.50300
    142       2.00000          -0.456907          -12.43306
    143       2.00000          -0.456220          -12.41439
    144       2.00000          -0.454196          -12.35929
    145       2.00000          -0.453711          -12.34612
    146       2.00000          -0.453490          -12.34008
    147       2.00000          -0.452624          -12.31653
    148       2.00000          -0.452166          -12.30405
    149       2.00000          -0.450573          -12.26073
    150       2.00000          -0.449810          -12.23995
    151       2.00000          -0.447245          -12.17015
    152       2.00000          -0.444418          -12.09323
    153       2.00000          -0.443667          -12.07279
    154       2.00000          -0.441264          -12.00739
    155       2.00000          -0.438592          -11.93470
    156       2.00000          -0.436433          -11.87595
    157       2.00000          -0.433167          -11.78709
    158       2.00000          -0.430574          -11.71652
    159       2.00000          -0.428573          -11.66206
    160       2.00000          -0.424244          -11.54427
    161       0.00000          -0.173306           -4.71590
    162       0.00000          -0.120801           -3.28717
    163       0.00000          -0.114717           -3.12160
    164       0.00000          -0.111371           -3.03056
    165       0.00000          -0.108343           -2.94816
    166       0.00000          -0.102351           -2.78510
    167       0.00000          -0.095052           -2.58650
    168       0.00000          -0.073830           -2.00902
    169       0.00000          -0.068255           -1.85731
    170       0.00000          -0.063587           -1.73029
    171       0.00000          -0.061658           -1.67781
    172       0.00000          -0.059032           -1.60635
    173       0.00000          -0.057189           -1.55620
    174       0.00000          -0.047537           -1.29356
    175       0.00000          -0.043369           -1.18012
    176       0.00000          -0.041011           -1.11596
    177       0.00000          -0.038362           -1.04387
    178       0.00000          -0.032431           -0.88250
    179       0.00000          -0.029061           -0.79079
    180       0.00000          -0.019855           -0.54027
    181       0.00000          -0.008413           -0.22893
    182       0.00000          -0.007727           -0.21026
    183       0.00000          -0.003282           -0.08930
    184       0.00000          -0.001624           -0.04418
    185       0.00000           0.005526            0.15037
    186       0.00000           0.012864            0.35005
    187       0.00000           0.014654            0.39877
    188       0.00000           0.020974            0.57074
    189       0.00000           0.023223            0.63192
    190       0.00000           0.028065            0.76370
    191       0.00000           0.030802            0.83816
    192       0.00000           0.033081            0.90019
    193       0.00000           0.035955            0.97838
    194       0.00000           0.043804            1.19197
    195       0.00000           0.044904            1.22191
    196       0.00000           0.050274            1.36802
    197       0.00000           0.050483            1.37371
    198       0.00000           0.053253            1.44908
    199       0.00000           0.057437            1.56294
    200       0.00000           0.059805            1.62738
    201       0.00000           0.067015            1.82356
    202       0.00000           0.070041            1.90591
    203       0.00000           0.070616            1.92157
    204       0.00000           0.072947            1.98500
    205       0.00000           0.073547            2.00132
    206       0.00000           0.076060            2.06970
    207       0.00000           0.079791            2.17122
    208       0.00000           0.082011            2.23165
    209       0.00000           0.083843            2.28148
    210       0.00000           0.088400            2.40549
    211       0.00000           0.090483            2.46216
    212       0.00000           0.092663            2.52149
    213       0.00000           0.095969            2.61144
    214       0.00000           0.098212            2.67247
    215       0.00000           0.101529            2.76274
    216       0.00000           0.102890            2.79977
    217       0.00000           0.103511            2.81667
    218       0.00000           0.107960            2.93774
    219       0.00000           0.109021            2.96660
    220       0.00000           0.113227            3.08107
    221       0.00000           0.118571            3.22649
    222       0.00000           0.125239            3.40793
    223       0.00000           0.132265            3.59912
    224       0.00000           0.133366            3.62908
    225       0.00000           0.140778            3.83075
    226       0.00000           0.149401            4.06541
    227       0.00000           0.153675            4.18171
    228       0.00000           0.159665            4.34471
    229       0.00000           0.161305            4.38933
    230       0.00000           0.167480            4.55736
    231       0.00000           0.176288            4.79704
    232       0.00000           0.178282            4.85129
    233       0.00000           0.186872            5.08504
    234       0.00000           0.190034            5.17109
    235       0.00000           0.194367            5.28899
    236       0.00000           0.200946            5.46802
    237       0.00000           0.207149            5.63682
    238       0.00000           0.211081            5.74380
    239       0.00000           0.219604            5.97574
    240       0.00000           0.220818            6.00877
    241       0.00000           0.228187            6.20928
    242       0.00000           0.238341            6.48560
    243       0.00000           0.241751            6.57837
    244       0.00000           0.243148            6.61638
    245       0.00000           0.249474            6.78852
    246       0.00000           0.258114            7.02364
    247       0.00000           0.260463            7.08755
    248       0.00000           0.271428            7.38593
    249       0.00000           0.273611            7.44533
    250       0.00000           0.285625            7.77225
    251       0.00000           0.289145            7.86805
    252       0.00000           0.292910            7.97048
    253       0.00000           0.301468            8.20337
    254       0.00000           0.306703            8.34582
    255       0.00000           0.313698            8.53617
    256       0.00000           0.317679            8.64448
    257       0.00000           0.324527            8.83082
    258       0.00000           0.327103            8.90094
    259       0.00000           0.341660            9.29704
    260       0.00000           0.343662            9.35151
[...]
  |    H      0     4.527807 A      4.527807 A        1.268855E-16 a.u.
  |    H      0     4.527807 A      4.583499 A       -4.900954E-17 a.u.
  |    H      0     4.527807 A      4.583499 A        4.713786E-16 a.u.
  |    H      2     3.678162 A  2.180220E+05 A            0.556529 a.u.
  |    H      1     3.958095 A  1.721251E+08 A            0.841931 a.u.
  |    H      0     4.527807 A  3.866455E+16 A            0.581436 a.u.
  |    O      0     2.043000 A      2.043000 A       -1.436841E-16 a.u.
  |    O      3     3.498446 A      3.498446 A        3.043453E-17 a.u.
  |    O      3     3.498446 A      3.498446 A        1.541443E-16 a.u.
  |    O      0     3.905335 A      3.905335 A        2.173090E-16 a.u.
  |    O      0     3.905335 A      3.905335 A        7.213445E-17 a.u.
  |    O      0     4.101052 A      4.101052 A        2.361718E-16 a.u.
  |    O      1     4.101052 A      4.101052 A        3.235185E-17 a.u.
  |    O      0     4.359549 A      4.359549 A       -5.329475E-17 a.u.
  |    O      1     4.413171 A      4.413171 A        3.261883E-17 a.u.
  |    O      1     4.522403 A      4.522403 A        6.417997E-16 a.u.
  |    O      1     4.522403 A      4.522403 A        4.224783E-16 a.u.
  |    O      2     4.522403 A      4.522403 A       -4.387647E-16 a.u.
  |    O      0     4.522403 A      4.578029 A        2.602039E-16 a.u.
  |    O      0     4.578029 A      4.578029 A        1.226235E-16 a.u.
  |    O      1     4.578029 A      4.578029 A       -6.107316E-16 a.u.
  |    O      1     4.578029 A      4.578029 A       -2.224438E-16 a.u.
  |    O      2     4.578029 A      4.578029 A       -7.020279E-16 a.u.
  |    O      2     4.522403 A      4.578029 A        1.323470E-15 a.u.
  |    O      2     4.578029 A      4.578029 A        7.923696E-16 a.u.
  |    O      2     4.522403 A      4.578029 A       -9.951815E-16 a.u.
  |    O      0     4.578029 A      4.634338 A       -8.813582E-18 a.u.
  |    O      1     4.578029 A      4.634338 A       -3.325386E-17 a.u.
  |    O      1     4.634338 A      4.634338 A        9.588032E-16 a.u.
  |    O      2     4.578029 A      4.634338 A        1.064715E-17 a.u.
  |    O      2     4.578029 A      4.634338 A       -3.770343E-15 a.u.
  |    O      4     3.251020 A  1.511584E+03 A            1.513372 a.u.
  |    O      3     3.541477 A  1.434166E+04 A            4.293220 a.u.
  |    O      2     4.634338 A  5.584435E+05 A            9.352428 a.u.
  |    O      1     4.634338 A  2.821283E+08 A            2.261940 a.u.
  |    O      0     4.578029 A  4.264100E+16 A            0.641234 a.u.

  | Shrink_full_auxil_basis : there are       38  radial auxiliary wave functions
                            accepted and       5 rejected.
  | Shrink_full_auxil_basis : there are totally                4544 partial auxiliary wave functions.
 
  | Maximal number of product basis functions per thread :   256   256
 
  | Minimal total memory requirement for three-center overlap :      10.450 Gbs
  | Number of local auxiliary basis functions on task:      0   256
  | Number of local auxiliary basis functions on task:      1   256
  | Number of local auxiliary basis functions on task:      2   256
  | Number of local auxiliary basis functions on task:      3   256
  | Number of local auxiliary basis functions on task:      4   256
  | Number of local auxiliary basis functions on task:      5   256
  | Number of local auxiliary basis functions on task:      6   256
  | Number of local auxiliary basis functions on task:      7   256
  | Number of local auxiliary basis functions on task:      8   256
  | Number of local auxiliary basis functions on task:      9   256
  | Number of local auxiliary basis functions on task:     10   256
  | Number of local auxiliary basis functions on task:     11   256
  | Number of local auxiliary basis functions on task:     12   256
  | Number of local auxiliary basis functions on task:     13   256
  | Number of local auxiliary basis functions on task:     14   240
  | Number of local auxiliary basis functions on task:     15   240
  | Number of local auxiliary basis functions on task:     16   240
  | Number of local auxiliary basis functions on task:     17   240
  | 2D aux task distribution:      3 X      6
  | 2D block size (nb_aux_2d):     64
 
  Basis pair condensation :    295296  -->     222458
 
 --------------------------------------------
  Constructing auxiliary basis (full product) ...
 
  Product basis:
  | charge radius: extent of product basis function
  | field radius: extent of its Coulomb potential
  | Species   l  charge radius    field radius  multipol momen
  |    H      1     3.910002 A      3.910002 A       -2.487223E-16 a.u.
  |    H      1     3.958095 A      3.958095 A       -2.441841E-16 a.u.
  |    H      0     4.527807 A      4.527807 A        1.268855E-16 a.u.
  |    H      0     4.527807 A      4.583499 A       -4.900954E-17 a.u.
  |    H      0     4.527807 A      4.583499 A        4.713786E-16 a.u.
  |    H      2     3.678162 A  2.180220E+05 A            0.556529 a.u.
  |    H      1     3.958095 A  1.721251E+08 A            0.841931 a.u.
  |    H      0     4.527807 A  3.866455E+16 A            0.581436 a.u.
  |    O      0     2.043000 A      2.043000 A       -1.436841E-16 a.u.
  |    O      3     3.498446 A      3.498446 A        3.043453E-17 a.u.
  |    O      3     3.498446 A      3.498446 A        1.541443E-16 a.u.
  |    O      0     3.905335 A      3.905335 A        2.173090E-16 a.u.
  |    O      0     3.905335 A      3.905335 A        7.213445E-17 a.u.
  |    O      0     4.101052 A      4.101052 A        2.361718E-16 a.u.
  |    O      1     4.101052 A      4.101052 A        3.235185E-17 a.u.
  |    O      0     4.359549 A      4.359549 A       -5.329475E-17 a.u.
  |    O      1     4.413171 A      4.413171 A        3.261883E-17 a.u.
  |    O      1     4.522403 A      4.522403 A        6.417997E-16 a.u.
  |    O      1     4.522403 A      4.522403 A        4.224783E-16 a.u.
  |    O      2     4.522403 A      4.522403 A       -4.387647E-16 a.u.
  |    O      0     4.522403 A      4.578029 A        2.602039E-16 a.u.
  |    O      0     4.578029 A      4.578029 A        1.226235E-16 a.u.
  |    O      1     4.578029 A      4.578029 A       -6.107316E-16 a.u.
  |    O      1     4.578029 A      4.578029 A       -2.224438E-16 a.u.
  |    O      2     4.578029 A      4.578029 A       -7.020279E-16 a.u.
  |    O      2     4.522403 A      4.578029 A        1.323470E-15 a.u.
  |    O      2     4.578029 A      4.578029 A        7.923696E-16 a.u.
  |    O      2     4.522403 A      4.578029 A       -9.951815E-16 a.u.
  |    O      0     4.578029 A      4.634338 A       -8.813582E-18 a.u.
  |    O      1     4.578029 A      4.634338 A       -3.325386E-17 a.u.
  |    O      1     4.634338 A      4.634338 A        9.588032E-16 a.u.
  |    O      2     4.578029 A      4.634338 A        1.064715E-17 a.u.
  |    O      2     4.578029 A      4.634338 A       -3.770343E-15 a.u.
  |    O      4     3.251020 A  1.511584E+03 A            1.513372 a.u.
  |    O      3     3.541477 A  1.434166E+04 A            4.293220 a.u.
  |    O      2     4.634338 A  5.584435E+05 A            9.352428 a.u.
  |    O      1     4.634338 A  2.821283E+08 A            2.261940 a.u.
  |    O      0     4.578029 A  4.264100E+16 A            0.641234 a.u.

  | Shrink_full_auxil_basis : there are       38  radial auxiliary wave functions
                            accepted and       5 rejected.
  | Shrink_full_auxil_basis : there are totally                4544 partial auxiliary wave functions.
 
  | Maximal number of product basis functions per thread :   256   256
 
  | Minimal total memory requirement for three-center overlap :      10.450 Gbs
  | Number of local auxiliary basis functions on task:      0   256
  | Number of local auxiliary basis functions on task:      1   256
  | Number of local auxiliary basis functions on task:      2   256
  | Number of local auxiliary basis functions on task:      3   256
  | Number of local auxiliary basis functions on task:      4   256
  | Number of local auxiliary basis functions on task:      5   256
  | Number of local auxiliary basis functions on task:      6   256
  | Number of local auxiliary basis functions on task:      7   256
  | Number of local auxiliary basis functions on task:      8   256
  | Number of local auxiliary basis functions on task:      9   256
  | Number of local auxiliary basis functions on task:     10   256
  | Number of local auxiliary basis functions on task:     11   256
  | Number of local auxiliary basis functions on task:     12   256
  | Number of local auxiliary basis functions on task:     13   256
  | Number of local auxiliary basis functions on task:     14   240
  | Number of local auxiliary basis functions on task:     15   240
  | Number of local auxiliary basis functions on task:     16   240
  | Number of local auxiliary basis functions on task:     17   240
  | 2D aux task distribution:      3 X      6
  | 2D block size (nb_aux_2d):     64
 
  Basis pair condensation :    295296  -->     222458
dP_dE (Bohr^3) at every cycle:--->
 (358.960083651216,0.000000000000000E+000) (-0.665946474908754,0.000000000000000E+000) (7.47155040246456,0.000000000000000E+000)
 (-0.660017594927850,0.000000000000000E+000) (359.292402420495,0.000000000000000E+000) (0.939064500507360,0.000000000000000E+000)
 (7.46785333927218,0.000000000000000E+000) (0.950116203566609,0.000000000000000E+000) (350.295990464187,0.000000000000000E+000)
DFPT polarizability (Bohr^3)        xx        yy        zz        xy        xz        yz
  | Polarizability:--->                       358.960083651                  359.292402420                  350.295990464                   -0.665946475                    7.471550402                    0.939064501

DFPT for dielectric_constant:--->  # PARSE DFPT_dielectric_tensor
               1.675464715901816            -0.001253129155489             0.014059414680911
              -0.001241972624681             1.676090048949426             0.001767062592578
               0.014052457818985             0.001787858875527             1.659161261814120

                                               :  max(cpu_time)    wall_clock(cpu1)
  | Time for  dielectric calculation            :        0.000 s           0.001 s
===========================================================================

------------------------------------------------------------------------------
  Final output of selected total energy values:

  The following output summarizes some interesting total energy values
  at the end of a run (AFTER all relaxation, molecular dynamics, etc.).

  | Total energy of the DFT / Hartree-Fock s.c.f. calculation      :         -66109.717200774 eV
  | Final zero-broadening corrected energy (caution - metals only) :         -66109.717200774 eV
  | For reference only, the value of 1 Hartree used in FHI-aims is :             27.211384500 eV
  | For reference only, the overall average (free atom contribution
  | + realspace contribution) of the electrostatic potential after
  | s.c.f. convergence is                                          :             -4.853906294 eV

  Before relying on these values, please be sure to understand exactly which
  total energy value is referred to by a given number. Different objects may
  all carry the same name 'total energy'. Definitions:

  Total energy of the DFT / Hartree-Fock s.c.f. calculation:
  | Note that this energy does not include ANY quantities calculated after the
  | s.c.f. cycle, in particular not ANY RPA, MP2, etc. many-body perturbation terms.

  Final zero-broadening corrected energy:
  | For metallic systems only, a broadening of the occupation numbers at the Fermi
  | level can be extrapolated back to zero broadening by an electron-gas inspired
  | formula. For all systems that are not real metals, this value can be
  | meaningless and should be avoided.

------------------------------------------------------------------------------
  Methods described in the following list of references were used in this FHI-aims run.
  If you publish the results, please make sure to cite these reference if they apply.
  FHI-aims is an academic code, and for our developers (often, Ph.D. students
  and postdocs), scientific credit in the community is essential.
  Thank you for helping us!

  For any use of FHI-aims, please cite:

    Volker Blum, Ralf Gehrke, Felix Hanke, Paula Havu, Ville Havu,
    Xinguo Ren, Karsten Reuter, and Matthias Scheffler
    'Ab initio molecular simulations with numeric atom-centered orbitals'
    Computer Physics Communications 180, 2175-2196 (2009)
    http://doi.org/10.1016/j.cpc.2009.06.022


  For Hartree-Fock, hybrid functionals, or many-body perturbation theory used in your run, please cite:

    Xinguo Ren, Patrick Rinke, Volker Blum, Juergen Wieferink, Alex Tkatchenko,
    Andrea Sanfilippo, Karsten Reuter, and Matthias Scheffler,
    'Resolution-of-identity approach to Hartree-Fock, hybrid density functionals,
    RPA, MP2, and GW with numeric atom-centered orbital basis functions'
    New Journal of Physics 14, 053020 (2012).
    http://doi.org/10.1088/1367-2630/14/5/053020


  The provided symmetry information was generated with SPGlib:

    Atsushi Togo, Yusuke Seto, Dimitar Pashov
    SPGlib 1.7.3 obtained from http://spglib.sourceforge.net
    Copyright (C) 2008 Atsushi Togo


  The DFPT (perturbation by an electric field) part of the code was used.
  Here is the corresponding reference:

    Honghui Shang, Nathaniel Raimbault, Mariana Rossi,
    Christian Carbogno, Patrick Rinke and Matthias Scheffler,
    'All-Electron, Real-Space Perturbation Theory for Homogeneous
    Electric Fields: Theory, Implementation, and Application within dft'
    New Journal of Physics, 20(7):073040, 2018


  The ELSI infrastructure was used in your run to solve the Kohn-Sham electronic structure.
  Please check out http://elsi-interchange.org to learn more.
  If scalability is important for your project, please acknowledge ELSI by citing:

    V. W-z. Yu, F. Corsetti, A. Garcia, W. P. Huhn, M. Jacquelin, W. Jia,
    B. Lange, L. Lin, J. Lu, W. Mi, A. Seifitokaldani, A. Vazquez-Mayagoitia,
    C. Yang, H. Yang, and V. Blum
    'ELSI: A unified software interface for Kohn-Sham electronic structure solvers'
    Computer Physics Communications 222, 267-285 (2018).
    http://doi.org/10.1016/j.cpc.2017.09.007


  For the real-space grid partitioning and parallelization used in this calculation, please cite:

    Ville Havu, Volker Blum, Paula Havu, and Matthias Scheffler,
    'Efficient O(N) integration for all-electron electronic structure calculation'
    'using numerically tabulated basis functions'
    Journal of Computational Physics 228, 8367-8379 (2009).
    http://doi.org/10.1016/j.jcp.2009.08.008


  The high-level electronic structure method used in your calculation
  employed our efficient localized resolution of identity for the Coulomb operator.
  Some calculations, especially large-scale hybrid density functional theory,
  are only possible thanks to this development. For this feature, please cite:

    Arvid Ihrig, Juergen Wieferink, Igor Ying Zhang, Matti Ropo, Xinguo Ren,
    Patrick Rinke, Matthias Scheffler, and Volker Blum,
    'Accurate localized resolution of identity approach for linear-scaling
    hybrid density functionals and for many-body perturbation theory'
    New Journal of Physics 117, 093020 (2015).
    http://doi.org/10.1088/1367-2630/17/9/093020

  Of course, there are many other important community references, e.g., those cited in the
  above references. Our list is limited to references that describe implementations in the
  FHI-aims code. The reason is purely practical (length of this list) - please credit others as well.

------------------------------------------------------------
          Leaving FHI-aims.
          Date     :  20230221, Time     :  153123.041

          Computational steps:
          | Number of self-consistency cycles          :           45
          | Number of SCF (re)initializations          :            1
          | Number of coupled perturbed self-consistency cycles          :            0
          | Number of CPSCF (re)initializations          :            0

          Detailed time accounting                     :  max(cpu_time)    wall_clock(cpu1)
          | Total time                                  :      456.136 s         463.890 s
          | GPU initialization                          :        1.911 s           6.183 s
          | Preparation time                            :        0.070 s           0.062 s
          | Boundary condition initalization            :        1.257 s           1.258 s
          | Grid partitioning                           :        0.409 s           0.409 s
          | Preloading free-atom quantities on grid     :        2.292 s           2.291 s
          | Free-atom superposition energy              :        0.303 s           0.304 s
          | Total time for integrations                 :       12.144 s          12.335 s
          | Product basis setup: Total time             :        0.000 s           0.000 s
          | Product basis: | 2-center integrations     :(       0.000 s)  (       0.000 s)
          | Product basis: | LVL 3-center & coefficient:(       0.000 s)  (       0.000 s)
          | Total time for solution of K.-S. equations  :        2.391 s           4.739 s
          | Total time for density update               :        8.462 s           8.767 s
          | Total time for mixing & preconditioning     :        8.444 s           8.446 s
          | Total time for Hartree multipole update     :        0.102 s           0.103 s
          | Total time for Hartree multipole sum        :       36.277 s          36.291 s
          | Total time for total energy evaluation      :        0.005 s           0.006 s
          | Total time for DFPT                         :      381.377 s         381.521 s
          | Total time first_order_DM                   :        0.289 s           0.289 s
          | Total time first_order_density              :       80.567 s          80.587 s
          | Total time first_order_potential            :       53.175 s          53.199 s
          | Total time first_order_H                    :      161.077 s         161.133 s
          | Total time solving of Sternheimer equations :        0.192 s           0.188 s
          | Total time for dielectric constant          :        0.000 s           0.001 s
          | Total time momentum matrix                  :        0.000 s           0.000 s

          GPU acceleration has been used for charge density update.
          GPU acceleration has been used for real-space Hamiltonian integration.
          Due to GPU usage, wall_clock(cpu1) will give a more reliable estimate for timings.

          Partial memory accounting:
          | Residual value for overall tracked memory usage across tasks:     0.000000 MB (should be 0.000000 MB)
          | Peak values for overall tracked memory usage:
          |   Minimum:      114.727 MB (on task  0 after allocating DFPT_pulay_mixing::pulay_mix::alphas)
          |   Maximum:      114.727 MB (on task  0 after allocating DFPT_pulay_mixing::pulay_mix::alphas)
          |   Average:      114.727 MB
          | Largest tracked array allocation:
          |   Minimum:       40.914 MB (DFPT_pulay_mixing::initialize_pulay_mixing::X_in_diffs on task  0)
          |   Maximum:       40.914 MB (DFPT_pulay_mixing::initialize_pulay_mixing::X_in_diffs on task  0)
          |   Average:       40.914 MB
          Note:  These values currently only include a subset of arrays which are explicitly tracked.
          The "true" memory usage will be greater.

          Have a nice day.
------------------------------------------------------------
