------------------------------------------------------------
          Invoking FHI-aims ...

          When using FHI-aims, please cite the following reference:

            Volker Blum, Ralf Gehrke, Felix Hanke, Paula Havu,
            Ville Havu, Xinguo Ren, Karsten Reuter, and Matthias Scheffler,
            'Ab Initio Molecular Simulations with Numeric Atom-Centered Orbitals',
            Computer Physics Communications 180, 2175-2196 (2009)

          In addition, many other developments in FHI-aims are likely important for
          your particular application. A partial list of references is given at the end of
          this file. Thank you for giving credit to the authors of these developments.

          For any questions about FHI-aims, please visit our slack channel at

            https://fhi-aims.slack.com

          and our main development and support site at

            https://aims-git.rz-berlin.mpg.de .

          The latter site, in particular, has a wiki to collect information, as well
          as an issue tracker to log discussions, suggest improvements, and report issues
          or bugs. https://aims-git.rz-berlin.mpg.de is also the main development site
          of the project and all new and updated code versions can be obtained there.
          Please send an email to aims-coordinators@fhi-berlin.mpg.de and we will add
          you to these sites. They are for you and everyone is welcome there.

------------------------------------------------------------



  Date     :  20230221, Time     :  134441.290
  Time zero on CPU 1             :   0.353461000000000E+00  s.
  Internal wall clock time zero  :           446219081.290  s.

  FHI-aims created a unique identifier for this run for later identification
  aims_uuid : 003D1BFE-50C5-4DC9-A23C-D0058FD65A0A

  Build configuration of the current instance of FHI-aims
  -------------------------------------------------------
  FHI-aims version      : 221103
  Commit number         : 42523251a
  CMake host system     : Linux-5.3.18-150300.59.68-default
  CMake version         : 3.17.0
  Fortran compiler      : /mpcdf/soft/SLE_15/packages/x86_64/intel_oneapi/2021.3/mpi/2021.3.0/bin/mpiifort (Intel) version 20.2.3.20210609
  Fortran compiler flags: -O3 -ip -fp-model precise
  C compiler            : /mpcdf/soft/SLE_15/packages/x86_64/intel/2021.3.0/bin/icc (Intel) version 20.2.3.20210609
  C compiler flags      : -O3 -ip -fp-model precise -std=gnu99
  CUDA compiler         : /mpcdf/soft/SLE_15/packages/x86_64/cuda/11.6.2/bin/nvcc
  CUDA compiler flags   : -O3 -DAdd_ -lcublas
  HIP compiler          :
  HIP compiler flags    :
  HIP GPU arch          :
  ELPA2 kernel          : AVX512
  Using MPI
  Using ScaLAPACK
  Using LibXC
  Using CUDA
  Using i-PI
  Using RLSY
  Linking against: /mpcdf/soft/SLE_15/packages/x86_64/cuda/11.6.2/lib64/libcublas.so
                   /mpcdf/soft/SLE_15/packages/x86_64/cuda/11.6.2/lib64/libcudart.so
                   /mpcdf/soft/SLE_15/packages/x86_64/intel_oneapi/2021.3/mkl/latest/lib/intel64/libmkl_intel_lp64.so
                   /mpcdf/soft/SLE_15/packages/x86_64/intel_oneapi/2021.3/mkl/latest/lib/intel64/libmkl_sequential.so
                   /mpcdf/soft/SLE_15/packages/x86_64/intel_oneapi/2021.3/mkl/latest/lib/intel64/libmkl_core.so
                   /mpcdf/soft/SLE_15/packages/x86_64/intel_oneapi/2021.3/mkl/latest/lib/intel64/libmkl_blacs_intelmpi_lp64.so
                   /mpcdf/soft/SLE_15/packages/x86_64/intel_oneapi/2021.3/mkl/latest/lib/intel64/libmkl_scalapack_lp64.so

  Using       18 parallel tasks.
  Task        0 on host adag038 reporting.
  Task        1 on host adag038 reporting.
  Task        2 on host adag038 reporting.
  Task        3 on host adag038 reporting.
  Task        4 on host adag038 reporting.
  Task        5 on host adag038 reporting.
  Task        6 on host adag038 reporting.
  Task        7 on host adag038 reporting.
  Task        8 on host adag038 reporting.
  Task        9 on host adag038 reporting.
  Task       10 on host adag038 reporting.
  Task       11 on host adag038 reporting.
  Task       12 on host adag038 reporting.
  Task       13 on host adag038 reporting.
  Task       14 on host adag038 reporting.
  Task       15 on host adag038 reporting.
  Task       16 on host adag038 reporting.
  Task       17 on host adag038 reporting.

  Obtaining array dimensions for all initial allocations:
  
  -----------------------------------------------------------------------
  Parsing control.in (first pass over file, find array dimensions only).
  The contents of control.in will be repeated verbatim below
  unless switched off by setting 'verbatim_writeout .false.' .
  in the first line of control.in .
  -----------------------------------------------------------------------
  
  #########################################################################################
  #
  #  Volker Blum, 2017 : Test run input file control.in for simple H2O
  #
  #########################################################################################
  #
  #  Physical model
  #
    xc                 pw-lda
    spin               none
    relativistic       none
    charge             0.
  
    use_gpu
  
    DFPT dielectric
    ri_density_restart write
    ri_rho1 write
  #  ri_density_restart read 0
  #  ri_rho1 read
    ri_full_output .true.
    sc_accuracy_rho    1d-6
  #  use_calculate_fock_matrix_old .false.
  #  wave_threshold 1e-8
    k_grid 1 1 1
  #  output cube eigenstate 160
  #  output cube eigenstate 161
    wave_threshold 1e-8
    default_prodbas_acc 1e-6
    default_max_l_prodbas 6
  #
  #  Relaxation
  #
  #  relax_geometry   bfgs 1.e-2
  #
  
  ################################################################################
  
  
  ################################################################################
  #
  #  FHI-aims code project
  #  VB, Fritz-Haber Institut, 2009
  #
  #  Suggested "light" defaults for H atom (to be pasted into control.in file)
  #  Be sure to double-check any results obtained with these settings for post-processing,
  #  e.g., with the "tight" defaults and larger basis sets.
  #
  ################################################################################
    species        H
  #     global species definitions
      nucleus             1
      mass                1.00794
  #
      l_hartree           4
  #
      cut_pot             3.5  1.5  1.0
      basis_dep_cutoff    1e-4
  #
      radial_base         24 5.0
      radial_multiplier   1
      angular_grids       specified
        division   0.2421   50
        division   0.3822  110
        division   0.4799  194
        division   0.5341  302
  #      division   0.5626  434
  #      division   0.5922  590
  #      division   0.6542  770
  #      division   0.6868 1202
  #      outer_grid  770
        outer_grid  302
  ################################################################################
  #
  #  Definition of "minimal" basis
  #
  ################################################################################
  #     valence basis states
      valence      1  s   1.
  #     ion occupancy
      ion_occ      1  s   0.5
  ################################################################################
  #
  #  Suggested additional basis functions. For production calculations,
  #  uncomment them one after another (the most important basis functions are
  #  listed first).
  #
  #  Basis constructed for dimers: 0.5 A, 0.7 A, 1.0 A, 1.5 A, 2.5 A
  #
  ################################################################################
  #  "First tier" - improvements: -1014.90 meV to -62.69 meV
       hydro 2 s 2.1
       hydro 2 p 3.5
  #  "Second tier" - improvements: -12.89 meV to -1.83 meV
  #     hydro 1 s 0.85
  #     hydro 2 p 3.7
  #     hydro 2 s 1.2
  #     hydro 3 d 7
  #  "Third tier" - improvements: -0.25 meV to -0.12 meV
  #     hydro 4 f 11.2
  #     hydro 3 p 4.8
  #     hydro 4 d 9
  #     hydro 3 s 3.2
  ################################################################################
  #
  #  FHI-aims code project
  #  VB, Fritz-Haber Institut, 2009
  #
  #  Suggested "light" defaults for O atom (to be pasted into control.in file)
  #  Be sure to double-check any results obtained with these settings for post-processing,
  #  e.g., with the "tight" defaults and larger basis sets.
  #
  ################################################################################
    species        O
  #     global species definitions
      nucleus             8
      mass                15.9994
  #
      l_hartree           4
  #
      cut_pot             3.5  1.5  1.0
      basis_dep_cutoff    1e-4
  #
      radial_base         36 5.0
      radial_multiplier   1
       angular_grids specified
        division   0.2659   50
        division   0.4451  110
        division   0.6052  194
        division   0.7543  302
  #      division   0.8014  434
  #      division   0.8507  590
  #      division   0.8762  770
  #      division   0.9023  974
  #      division   1.2339 1202
  #      outer_grid 974
        outer_grid 302
  ################################################################################
  #
  #  Definition of "minimal" basis
  #
  ################################################################################
  #     valence basis states
      valence      2  s   2.
      valence      2  p   4.
  #     ion occupancy
      ion_occ      2  s   1.
      ion_occ      2  p   3.
  ################################################################################
  #
  #  Suggested additional basis functions. For production calculations,
  #  uncomment them one after another (the most important basis functions are
  #  listed first).
  #
  #  Constructed for dimers: 1.0 A, 1.208 A, 1.5 A, 2.0 A, 3.0 A
  #
  ################################################################################
  #  "First tier" - improvements: -699.05 meV to -159.38 meV
       hydro 2 p 1.8
       hydro 3 d 7.6
       hydro 3 s 6.4
  #  "Second tier" - improvements: -49.91 meV to -5.39 meV
  #     hydro 4 f 11.6
  #     hydro 3 p 6.2
  #     hydro 3 d 5.6
  #     hydro 5 g 17.6
  #     hydro 1 s 0.75
  #  "Third tier" - improvements: -2.83 meV to -0.50 meV
  #     ionic 2 p auto
  #     hydro 4 f 10.8
  #     hydro 4 d 4.7
  #     hydro 2 s 6.8
  #  "Fourth tier" - improvements: -0.40 meV to -0.12 meV
  #     hydro 3 p 5
  #     hydro 3 s 3.3
  #     hydro 5 g 15.6
  #     hydro 4 f 17.6
  #     hydro 4 d 14
  # Further basis functions - -0.08 meV and below
  #     hydro 3 s 2.1
  #     hydro 4 d 11.6
  #     hydro 3 p 16
  #     hydro 2 s 17.2
  
  -----------------------------------------------------------------------
  Completed first pass over input file control.in .
  -----------------------------------------------------------------------
  
  
  -----------------------------------------------------------------------
  Parsing geometry.in (first pass over file, find array dimensions only).
  The contents of geometry.in will be repeated verbatim below
  unless switched off by setting 'verbatim_writeout .false.' .
  in the first line of geometry.in .
  -----------------------------------------------------------------------
  
  #=======================================================
  # FHI-aims file: /ada/ptmp/mpsd/alewis/bulk_water/qmdata/data/geoms/211.in
  # Created using the Atomic Simulation Environment (ASE)
  # Tue Feb 21 11:23:37 2023
  #=======================================================
  lattice_vector 9.8746600000000004 0.0000000000000000 0.0000000000000000
  lattice_vector 0.0000000000000000 9.8746600000000004 0.0000000000000000
  lattice_vector 0.0000000000000000 0.0000000000000000 9.8746600000000004
  atom 20.8299999999999983 17.7059999999999995 11.4634999999999998 O
  atom 21.5527000000000015 18.1226999999999983 11.3553999999999995 H
  atom 20.9495000000000005 16.8034999999999997 11.2455999999999996 H
  atom 20.1924999999999990 29.5468000000000011 -0.5297790000000000 O
  atom 20.5406000000000013 28.5111999999999988 -0.1690610000000000 H
  atom 19.4227999999999987 29.7149999999999999 -0.3625780000000000 H
  atom -23.0270000000000010 3.1337600000000001 6.1506800000000004 O
  atom -22.9394999999999989 3.3140000000000001 5.2888799999999998 H
  atom -23.1371000000000002 4.0260300000000004 6.4607299999999999 H
  atom 0.5737440000000000 -4.7910700000000004 1.3009299999999999 O
  atom 1.3180400000000001 -5.0394300000000003 1.8774299999999999 H
  atom -0.3132200000000000 -4.7664799999999996 1.6882999999999999 H
  atom -6.2191299999999998 -10.6039999999999992 31.5056000000000012 O
  atom -5.6142899999999996 -10.2860999999999994 32.2676999999999978 H
  atom -6.6609900000000000 -9.9883000000000006 31.1223999999999990 H
  atom 12.6083999999999996 -3.2670900000000000 17.9481999999999999 O
  atom 12.2279000000000000 -4.0674599999999996 17.3614999999999995 H
  atom 13.0480999999999998 -2.6161099999999999 17.3341999999999992 H
  atom 14.0978999999999992 -3.4194700000000000 -5.0169499999999996 O
  atom 13.5464000000000002 -3.7914400000000001 -5.7995299999999999 H
  atom 13.5106999999999999 -2.9348200000000002 -4.5383899999999997 H
  atom -22.6125000000000007 3.3391999999999999 -16.4119999999999990 O
  atom -21.6910999999999987 2.9318599999999999 -16.5616999999999983 H
  atom -23.3703000000000003 2.8679399999999999 -16.8326999999999991 H
  atom -20.3294999999999995 12.1311000000000000 2.3183900000000000 O
  atom -20.3734000000000002 11.3063000000000002 2.8148599999999999 H
  atom -20.8271000000000015 12.0780999999999992 1.4686800000000000 H
  atom 6.8846400000000001 -1.3111900000000001 11.0810999999999993 O
  atom 6.0465499999999999 -1.2916000000000001 11.5137999999999998 H
  atom 7.3445200000000002 -0.8975900000000000 11.8930000000000007 H
  atom -7.8584100000000001 -7.8813000000000004 18.5054000000000016 O
  atom -7.1653000000000002 -7.9896399999999996 17.6456000000000017 H
  atom -8.5236999999999998 -8.5557900000000000 18.2381999999999991 H
  atom 6.1738600000000003 -1.6557800000000000 17.7265000000000015 O
  atom 6.0113500000000002 -1.3491100000000000 18.7106999999999992 H
  atom 5.4867699999999999 -1.2610699999999999 17.2138999999999989 H
  atom -4.3237500000000004 10.1417999999999999 -15.9222999999999999 O
  atom -3.7747600000000001 9.2771100000000004 -15.6564999999999994 H
  atom -3.8558100000000000 10.8038000000000007 -16.5076000000000001 H
  atom 7.9825799999999996 5.8272700000000004 -7.3910200000000001 O
  atom 7.3205200000000001 4.9416099999999998 -7.2232700000000003 H
  atom 7.5946699999999998 6.2670800000000000 -8.1555599999999995 H
  atom -0.6689600000000000 -11.2081000000000000 -3.4425300000000001 O
  atom -1.4997400000000001 -11.5192999999999994 -3.3402400000000001 H
  atom -0.6873760000000000 -10.2378000000000000 -3.3765600000000000 H
  atom -4.7775200000000000 2.3131499999999998 1.5454699999999999 O
  atom -4.5497699999999996 2.7253400000000001 0.5943120000000000 H
  atom -5.6747600000000000 2.3577100000000000 1.4153899999999999 H
  atom -8.8653700000000004 3.1475900000000001 14.6964000000000006 O
  atom -9.5239200000000004 3.7606400000000000 15.0777999999999999 H
  atom -9.2161200000000001 2.9595699999999998 13.8792000000000009 H
  atom 23.5259999999999998 -7.0625099999999996 16.6128000000000000 O
  atom 24.4060999999999986 -6.9246299999999996 15.9814000000000007 H
  atom 23.0909000000000013 -6.4923900000000003 16.1048000000000009 H
  atom 9.3675800000000002 11.3867999999999991 6.6010299999999997 O
  atom 8.5203699999999998 11.8000000000000007 6.9054300000000000 H
  atom 10.0199999999999996 11.9063999999999997 6.0576200000000000 H
  atom -1.6204200000000000 -7.7662300000000002 -10.0692000000000004 O
  atom -0.9829940000000000 -7.3036300000000001 -10.6188000000000002 H
  atom -2.4919199999999999 -7.3373299999999997 -10.2181999999999995 H
  atom 35.6152999999999977 5.5541900000000002 26.7183999999999990 O
  atom 35.9810999999999979 6.5246100000000000 26.9010999999999996 H
  atom 34.7631000000000014 5.5405899999999999 26.2190000000000012 H
  atom -5.3251700000000000 19.7476999999999983 -3.4641400000000000 O
  atom -5.3145499999999997 19.9746999999999986 -4.5131300000000003 H
  atom -5.4745600000000003 20.5722999999999985 -3.2100300000000002 H
  atom 10.2268000000000008 13.9821000000000009 8.5295000000000005 O
  atom 10.2114999999999991 14.3468999999999998 9.4748199999999994 H
  atom 11.0797000000000008 13.5939999999999994 8.3360900000000004 H
  atom -7.8241100000000001 -11.5772999999999993 5.8344399999999998 O
  atom -7.1953899999999997 -10.7842000000000002 6.0232299999999999 H
  atom -8.7043199999999992 -11.4624000000000006 6.1950900000000004 H
  atom -3.5066799999999998 17.3944000000000010 -15.7827000000000002 O
  atom -4.4350899999999998 16.9072999999999993 -15.5014000000000003 H
  atom -2.7824900000000001 16.7622000000000000 -15.9854000000000003 H
  atom 7.0561299999999996 6.0629799999999996 9.8598800000000004 O
  atom 6.0206499999999998 5.9169700000000001 10.0484000000000009 H
  atom 7.0260800000000003 7.0494100000000000 9.6818600000000004 H
  atom -13.8074999999999992 -6.4112299999999998 18.7876000000000012 O
  atom -14.2464999999999993 -6.5571599999999997 18.0399999999999991 H
  atom -13.4405999999999999 -5.6303799999999997 18.4355000000000011 H
  atom -17.3769999999999989 2.3023099999999999 1.3324700000000000 O
  atom -18.3083999999999989 2.2420200000000001 1.4905600000000001 H
  atom -17.2404000000000011 2.1649300000000000 0.3543930000000000 H
  atom 22.7349999999999994 24.8404999999999987 12.6111000000000004 O
  atom 23.2670999999999992 25.2153999999999989 11.9663000000000004 H
  atom 22.9690000000000012 23.9729999999999990 12.3584999999999994 H
  atom -0.9224960000000000 9.3683999999999994 -6.5010899999999996 O
  atom -1.0768700000000000 9.4021000000000008 -5.5569100000000002 H
  atom -0.3747580000000000 8.5503800000000005 -6.6265099999999997 H
  atom 30.0794999999999995 15.4859000000000009 -3.4761799999999998 O
  atom 29.6769999999999996 16.1905000000000001 -3.7577099999999999 H
  atom 30.0000999999999998 15.2805000000000000 -2.5622300000000000 H
  atom 14.3216999999999999 6.4496399999999996 -9.2686399999999995 O
  atom 13.8213000000000008 7.3252199999999998 -9.0719499999999993 H
  atom 13.5496999999999996 6.2124899999999998 -9.9370799999999999 H
  
  -----------------------------------------------------------------------
  Completed first pass over input file geometry.in .
  -----------------------------------------------------------------------
  

  Basic array size parameters:
  | Number of species                 :        2
  | Number of atoms                   :       96
  | Number of lattice vectors         :        3
  | Max. basis fn. angular momentum   :        2
  | Max. atomic/ionic basis occupied n:        2
  | Max. number of basis fn. types    :        2
  | Max. radial fns per species/type  :        3
  | Max. logarithmic grid size        :     1301
  | Max. radial integration grid size :       36
  | Max. angular integration grid size:      302
  | Max. angular grid division number :        8
  | Radial grid for Hartree potential :     1301
  | Number of spin channels           :        1

------------------------------------------------------------
          Reading file control.in.
------------------------------------------------------------
  XC: Using Perdew-Wang parametrisation of Ceperley-Alder LDA.
  Spin treatment: No spin polarisation.
  Non-relativistic treatment of kinetic energy.
  Charge =   0.000000E+00: Neutral system requested explicitly.
  DFPT calculation will begin after the DFT/HF calculation.
  Convergence accuracy of self-consistent charge density:  0.1000E-05
  Found k-point grid:         1         1         1
  Threshold value for wave function integration:  0.1000E-07
 
  Reading configuration options for species H                   .
  | Found nuclear charge :   1.0000
  | Found atomic mass :    1.00794000000000      amu
  | Found l_max for Hartree potential  :   4
  | Found cutoff potl. onset [A], width [A], scale factor :    3.50000    1.50000    1.00000
  | Threshold for basis-dependent cutoff potential is   0.100000E-03
  | Found data for basic radial integration grid :    24 points, outermost radius =    5.000 A
  | Found multiplier for basic radial grid :   1
  | Found angular grid specification: user-specified.
  | Specified grid contains     5 separate shells.
  | Check grid settings after all constraints further below.
  | Found free-atom valence shell :  1 s   1.000
  | No ionic wave fns used. Skipping ion_occ.
  | Found hydrogenic basis function :  2 s   2.100
  | Found hydrogenic basis function :  2 p   3.500
  Species H                   : Missing cutoff potential type.
  Defaulting to exp(1/x)/(1-x)^2 type cutoff potential.
  Species H : No 'logarithmic' tag. Using default grid for free atom:
  | Default logarithmic grid data [bohr] : 0.1000E-03 0.1000E+03 0.1012E+01
  Species H : On-site basis accuracy parameter (for Gram-Schmidt orthonormalisation) not specified.
  Using default value basis_acc =  0.1000000E-03.
  Species H                   : Using default innermost maximum threshold i_radial=  2 for radial functions.
  Species H                   : Default cutoff onset for free atom density etc. : 0.35000000E+01 AA.
  Species H                   : Basic radial grid will be enhanced according to radial_multiplier =   1, to contain    24 grid points.
 
  Reading configuration options for species O                   .
  | Found nuclear charge :   8.0000
  | Found atomic mass :    15.9994000000000      amu
  | Found l_max for Hartree potential  :   4
  | Found cutoff potl. onset [A], width [A], scale factor :    3.50000    1.50000    1.00000
  | Threshold for basis-dependent cutoff potential is   0.100000E-03
  | Found data for basic radial integration grid :    36 points, outermost radius =    5.000 A
  | Found multiplier for basic radial grid :   1
  | Found angular grid specification: user-specified.
  | Specified grid contains     5 separate shells.
  | Check grid settings after all constraints further below.
  | Found free-atom valence shell :  2 s   2.000
  | Found free-atom valence shell :  2 p   4.000
  | No ionic wave fns used. Skipping ion_occ.
  | No ionic wave fns used. Skipping ion_occ.
  | Found hydrogenic basis function :  2 p   1.800
  | Found hydrogenic basis function :  3 d   7.600
  | Found hydrogenic basis function :  3 s   6.400
  Species O                   : Missing cutoff potential type.
  Defaulting to exp(1/x)/(1-x)^2 type cutoff potential.
  Species O : No 'logarithmic' tag. Using default grid for free atom:
  | Default logarithmic grid data [bohr] : 0.1000E-03 0.1000E+03 0.1012E+01
  Species O : On-site basis accuracy parameter (for Gram-Schmidt orthonormalisation) not specified.
  Using default value basis_acc =  0.1000000E-03.
  Species O                   : Using default innermost maximum threshold i_radial=  2 for radial functions.
  Species O                   : Default cutoff onset for free atom density etc. : 0.35000000E+01 AA.
  Species O                   : Basic radial grid will be enhanced according to radial_multiplier =   1, to contain    36 grid points.
 
  Finished reading input file 'control.in'.
 
------------------------------------------------------------


------------------------------------------------------------
          Reading geometry description geometry.in.
------------------------------------------------------------
  | The smallest distance between any two atoms is         0.80541015 AA.
  | The first atom of this pair is atom number                      4 .
  | The second atom of this pair is atom number                     6 .
  | Wigner-Seitz cell of the first atom image           0     0     0 .
  | (The Wigner-Seitz cell of the second atom is 0 0 0  by definition.)

  Symmetry information by spglib:
  | Precision set to  0.1E-04
  | Number of Operations  : 1
  | Space group           : 1
  | International         : P1
  | Schoenflies           : C1^1
  Input structure read successfully.
  The structure contains       96 atoms,  and a total of        320.000 electrons.

  Input geometry:
  | Unit cell:
  |        9.87466000        0.00000000        0.00000000
  |        0.00000000        9.87466000        0.00000000
  |        0.00000000        0.00000000        9.87466000
  | Atomic structure:
  |       Atom                x [A]            y [A]            z [A]
  |    1: Species O            20.83000000       17.70600000       11.46350000
  |    2: Species H            21.55270000       18.12270000       11.35540000
  |    3: Species H            20.94950000       16.80350000       11.24560000
  |    4: Species O            20.19250000       29.54680000       -0.52977900
  |    5: Species H            20.54060000       28.51120000       -0.16906100
  |    6: Species H            19.42280000       29.71500000       -0.36257800
  |    7: Species O           -23.02700000        3.13376000        6.15068000
  |    8: Species H           -22.93950000        3.31400000        5.28888000
  |    9: Species H           -23.13710000        4.02603000        6.46073000
  |   10: Species O             0.57374400       -4.79107000        1.30093000
  |   11: Species H             1.31804000       -5.03943000        1.87743000
  |   12: Species H            -0.31322000       -4.76648000        1.68830000
  |   13: Species O            -6.21913000      -10.60400000       31.50560000
  |   14: Species H            -5.61429000      -10.28610000       32.26770000
  |   15: Species H            -6.66099000       -9.98830000       31.12240000
  |   16: Species O            12.60840000       -3.26709000       17.94820000
  |   17: Species H            12.22790000       -4.06746000       17.36150000
  |   18: Species H            13.04810000       -2.61611000       17.33420000
  |   19: Species O            14.09790000       -3.41947000       -5.01695000
  |   20: Species H            13.54640000       -3.79144000       -5.79953000
  |   21: Species H            13.51070000       -2.93482000       -4.53839000
  |   22: Species O           -22.61250000        3.33920000      -16.41200000
  |   23: Species H           -21.69110000        2.93186000      -16.56170000
  |   24: Species H           -23.37030000        2.86794000      -16.83270000
  |   25: Species O           -20.32950000       12.13110000        2.31839000
  |   26: Species H           -20.37340000       11.30630000        2.81486000
  |   27: Species H           -20.82710000       12.07810000        1.46868000
  |   28: Species O             6.88464000       -1.31119000       11.08110000
  |   29: Species H             6.04655000       -1.29160000       11.51380000
  |   30: Species H             7.34452000       -0.89759000       11.89300000
  |   31: Species O            -7.85841000       -7.88130000       18.50540000
  |   32: Species H            -7.16530000       -7.98964000       17.64560000
  |   33: Species H            -8.52370000       -8.55579000       18.23820000
  |   34: Species O             6.17386000       -1.65578000       17.72650000
  |   35: Species H             6.01135000       -1.34911000       18.71070000
  |   36: Species H             5.48677000       -1.26107000       17.21390000
  |   37: Species O            -4.32375000       10.14180000      -15.92230000
  |   38: Species H            -3.77476000        9.27711000      -15.65650000
  |   39: Species H            -3.85581000       10.80380000      -16.50760000
  |   40: Species O             7.98258000        5.82727000       -7.39102000
  |   41: Species H             7.32052000        4.94161000       -7.22327000
  |   42: Species H             7.59467000        6.26708000       -8.15556000
  |   43: Species O            -0.66896000      -11.20810000       -3.44253000
  |   44: Species H            -1.49974000      -11.51930000       -3.34024000
  |   45: Species H            -0.68737600      -10.23780000       -3.37656000
  |   46: Species O            -4.77752000        2.31315000        1.54547000
  |   47: Species H            -4.54977000        2.72534000        0.59431200
  |   48: Species H            -5.67476000        2.35771000        1.41539000
  |   49: Species O            -8.86537000        3.14759000       14.69640000
  |   50: Species H            -9.52392000        3.76064000       15.07780000
  |   51: Species H            -9.21612000        2.95957000       13.87920000
  |   52: Species O            23.52600000       -7.06251000       16.61280000
  |   53: Species H            24.40610000       -6.92463000       15.98140000
  |   54: Species H            23.09090000       -6.49239000       16.10480000
  |   55: Species O             9.36758000       11.38680000        6.60103000
  |   56: Species H             8.52037000       11.80000000        6.90543000
  |   57: Species H            10.02000000       11.90640000        6.05762000
  |   58: Species O            -1.62042000       -7.76623000      -10.06920000
  |   59: Species H            -0.98299400       -7.30363000      -10.61880000
  |   60: Species H            -2.49192000       -7.33733000      -10.21820000
  |   61: Species O            35.61530000        5.55419000       26.71840000
  |   62: Species H            35.98110000        6.52461000       26.90110000
  |   63: Species H            34.76310000        5.54059000       26.21900000
  |   64: Species O            -5.32517000       19.74770000       -3.46414000
  |   65: Species H            -5.31455000       19.97470000       -4.51313000
  |   66: Species H            -5.47456000       20.57230000       -3.21003000
  |   67: Species O            10.22680000       13.98210000        8.52950000
  |   68: Species H            10.21150000       14.34690000        9.47482000
  |   69: Species H            11.07970000       13.59400000        8.33609000
  |   70: Species O            -7.82411000      -11.57730000        5.83444000
  |   71: Species H            -7.19539000      -10.78420000        6.02323000
  |   72: Species H            -8.70432000      -11.46240000        6.19509000
  |   73: Species O            -3.50668000       17.39440000      -15.78270000
  |   74: Species H            -4.43509000       16.90730000      -15.50140000
  |   75: Species H            -2.78249000       16.76220000      -15.98540000
  |   76: Species O             7.05613000        6.06298000        9.85988000
  |   77: Species H             6.02065000        5.91697000       10.04840000
  |   78: Species H             7.02608000        7.04941000        9.68186000
  |   79: Species O           -13.80750000       -6.41123000       18.78760000
  |   80: Species H           -14.24650000       -6.55716000       18.04000000
  |   81: Species H           -13.44060000       -5.63038000       18.43550000
  |   82: Species O           -17.37700000        2.30231000        1.33247000
  |   83: Species H           -18.30840000        2.24202000        1.49056000
  |   84: Species H           -17.24040000        2.16493000        0.35439300
  |   85: Species O            22.73500000       24.84050000       12.61110000
  |   86: Species H            23.26710000       25.21540000       11.96630000
  |   87: Species H            22.96900000       23.97300000       12.35850000
  |   88: Species O            -0.92249600        9.36840000       -6.50109000
  |   89: Species H            -1.07687000        9.40210000       -5.55691000
  |   90: Species H            -0.37475800        8.55038000       -6.62651000
  |   91: Species O            30.07950000       15.48590000       -3.47618000
  |   92: Species H            29.67700000       16.19050000       -3.75771000
  |   93: Species H            30.00010000       15.28050000       -2.56223000
  |   94: Species O            14.32170000        6.44964000       -9.26864000
  |   95: Species H            13.82130000        7.32522000       -9.07195000
  |   96: Species H            13.54970000        6.21249000       -9.93708000

  Lattice parameters for 3D lattice (in Angstroms) :     9.874660    9.874660    9.874660
  Angle(s) between unit vectors (in degrees)       :    90.000000   90.000000   90.000000


  Quantities derived from the lattice vectors (in Angstrom^-1):
  | Reciprocal lattice vector 1:  0.636294  0.000000  0.000000
  | Reciprocal lattice vector 2:  0.000000  0.636294  0.000000
  | Reciprocal lattice vector 3:  0.000000  0.000000  0.636294
  | Unit cell volume                               :   0.962867E+03  Angstrom^3

  Fractional coordinates:
                         L1                L2                L3
       atom_frac         2.10943972        1.79307439        1.16090073  O
       atom_frac         2.18262705        1.83527332        1.14995352  H
       atom_frac         2.12154140        1.70167884        1.13883415  H
       atom_frac         2.04488053        2.99218403       -0.05365035  O
       atom_frac         2.08013238        2.88730954       -0.01712069  H
       atom_frac         1.96693355        3.00921753       -0.03671802  H
       atom_frac        -2.33192839        0.31735371        0.62287512  O
       atom_frac        -2.32306733        0.33560649        0.53560123  H
       atom_frac        -2.34307814        0.40771328        0.65427367  H
       atom_frac         0.05810266       -0.48518835        0.13174428  O
       atom_frac         0.13347700       -0.51033960        0.19012604  H
       atom_frac        -0.03171957       -0.48269814        0.17097298  H
       atom_frac        -0.62980700       -1.07385976        3.19055036  O
       atom_frac        -0.56855527       -1.04166624        3.26772770  H
       atom_frac        -0.67455386       -1.01150824        3.15174396  H
       atom_frac         1.27684396       -0.33085595        1.81760182  O
       atom_frac         1.23831099       -0.41190887        1.75818712  H
       atom_frac         1.32137208       -0.26493165        1.75542247  H
       atom_frac         1.42768460       -0.34628737       -0.50806306  O
       atom_frac         1.37183457       -0.38395651       -0.58731440  H
       atom_frac         1.36821926       -0.29720719       -0.45959962  H
       atom_frac        -2.28995226        0.33815848       -1.66203191  O
       atom_frac        -2.19664272        0.29690744       -1.67719192  H
       atom_frac        -2.36669414        0.29043430       -1.70463591  H
       atom_frac        -2.05875443        1.22850812        0.23478175  O
       atom_frac        -2.06320015        1.14498119        0.28505893  H
       atom_frac        -2.10914604        1.22314085        0.14873221  H
       atom_frac         0.69720274       -0.13278331        1.12217535  O
       atom_frac         0.61232994       -0.13079944        1.16599458  H
       atom_frac         0.74377447       -0.09089832        1.20439590  H
       atom_frac        -0.79581575       -0.79813381        1.87402908  O
       atom_frac        -0.72562498       -0.80910533        1.78695773  H
       atom_frac        -0.86318921       -0.86643895        1.84696992  H
       atom_frac         0.62522254       -0.16767970        1.79515042  O
       atom_frac         0.60876526       -0.13662344        1.89481967  H
       atom_frac         0.55564141       -0.12770769        1.74323977  H
       atom_frac        -0.43786318        1.02705308       -1.61244033  O
       atom_frac        -0.38226734        0.93948652       -1.58552294  H
       atom_frac        -0.39047522        1.09409337       -1.67171325  H
       atom_frac         0.80839036        0.59012361       -0.74848349  O
       atom_frac         0.74134401        0.50043343       -0.73149557  H
       atom_frac         0.76910699        0.63466286       -0.82590793  H
       atom_frac        -0.06774512       -1.13503655       -0.34862264  O
       atom_frac        -0.15187763       -1.16655156       -0.33826380  H
       atom_frac        -0.06961009       -1.03677494       -0.34194190  H
       atom_frac        -0.48381615        0.23425110        0.15650868  O
       atom_frac        -0.46075207        0.27599330        0.06018557  H
       atom_frac        -0.57467903        0.23876366        0.14333557  H
       atom_frac        -0.89778990        0.31875427        1.48829428  O
       atom_frac        -0.96448080        0.38083742        1.52691840  H
       atom_frac        -0.93331011        0.29971361        1.40553700  H
       atom_frac         2.38246178       -0.71521551        1.68236679  O
       atom_frac         2.47158890       -0.70125250        1.61842534  H
       atom_frac         2.33839950       -0.65747985        1.63092198  H
       atom_frac         0.94864836        1.15313337        0.66848175  O
       atom_frac         0.86285199        1.19497785        0.69930813  H
       atom_frac         1.01471848        1.20575291        0.61345099  H
       atom_frac        -0.16409881       -0.78648075       -1.01970093  O
       atom_frac        -0.09954712       -0.73963357       -1.07535854  H
       atom_frac        -0.25235502       -0.74304634       -1.03479006  H
       atom_frac         3.60673684        0.56246899        2.70575392  O
       atom_frac         3.64378115        0.66074275        2.72425582  H
       atom_frac         3.52043513        0.56109172        2.65518003  H
       atom_frac        -0.53927629        1.99983594       -0.35081107  O
       atom_frac        -0.53820081        2.02282408       -0.45704156  H
       atom_frac        -0.55440491        2.08334262       -0.32507752  H
       atom_frac         1.03566097        1.41595761        0.86377658  O
       atom_frac         1.03411155        1.45290066        0.95950848  H
       atom_frac         1.12203357        1.37665499        0.84419008  H
       atom_frac        -0.79234222       -1.17242518        0.59084971  O
       atom_frac        -0.72867218       -1.09210849        0.60996834  H
       atom_frac        -0.88148048       -1.16078933        0.62737249  H
       atom_frac        -0.35511906        1.76151888       -1.59830313  O
       atom_frac        -0.44913850        1.71219060       -1.56981607  H
       atom_frac        -0.28178084        1.69749642       -1.61883042  H
       atom_frac         0.71456941        0.61399380        0.99850324  O
       atom_frac         0.60970707        0.59920747        1.01759453  H
       atom_frac         0.71152627        0.71388888        0.98047528  H
       atom_frac        -1.39827599       -0.64926084        1.90260728  O
       atom_frac        -1.44273322       -0.66403907        1.82689834  H
       atom_frac        -1.36112028       -0.57018469        1.86695036  H
       atom_frac        -1.75975679        0.23315334        0.13493832  O
       atom_frac        -1.85407903        0.22704782        0.15094798  H
       atom_frac        -1.74592340        0.21924097        0.03588913  H
       atom_frac         2.30235775        2.51558028        1.27711739  O
       atom_frac         2.35624315        2.55354615        1.21181894  H
       atom_frac         2.32605477        2.42772916        1.25153676  H
       atom_frac        -0.09342053        0.94873140       -0.65836090  O
       atom_frac        -0.10905388        0.95214418       -0.56274444  H
       atom_frac        -0.03795148        0.86589108       -0.67106209  H
       atom_frac         3.04613020        1.56824640       -0.35203035  O
       atom_frac         3.00536930        1.63960076       -0.38054070  H
       atom_frac         3.03808941        1.54744568       -0.25947526  H
       atom_frac         1.45034867        0.65315059       -0.93862877  O
       atom_frac         1.39967351        0.74181997       -0.91871011  H
       atom_frac         1.37216876        0.62913457       -1.00632123  H

 
  Finished reading input file 'geometry.in'.
 

 
  Consistency checks for stacksize environment parameter are next.
 
  | Maximum stacksize for task 0: unlimited
  | Maximum stacksize for task 1: unlimited
  | Maximum stacksize for task 2: unlimited
  | Maximum stacksize for task 3: unlimited
  | Maximum stacksize for task 4: unlimited
  | Maximum stacksize for task 5: unlimited
  | Maximum stacksize for task 6: unlimited
  | Maximum stacksize for task 7: unlimited
  | Maximum stacksize for task 8: unlimited
  | Maximum stacksize for task 9: unlimited
  | Maximum stacksize for task 10: unlimited
  | Maximum stacksize for task 11: unlimited
  | Maximum stacksize for task 12: unlimited
  | Maximum stacksize for task 13: unlimited
  | Maximum stacksize for task 14: unlimited
  | Maximum stacksize for task 15: unlimited
  | Maximum stacksize for task 16: unlimited
  | Maximum stacksize for task 17: unlimited
  | Current stacksize for task 0: unlimited
  | Current stacksize for task 1: unlimited
  | Current stacksize for task 2: unlimited
  | Current stacksize for task 3: unlimited
  | Current stacksize for task 4: unlimited
  | Current stacksize for task 5: unlimited
  | Current stacksize for task 6: unlimited
  | Current stacksize for task 7: unlimited
  | Current stacksize for task 8: unlimited
  | Current stacksize for task 9: unlimited
  | Current stacksize for task 10: unlimited
  | Current stacksize for task 11: unlimited
  | Current stacksize for task 12: unlimited
  | Current stacksize for task 13: unlimited
  | Current stacksize for task 14: unlimited
  | Current stacksize for task 15: unlimited
  | Current stacksize for task 16: unlimited
  | Current stacksize for task 17: unlimited
 
  Consistency checks for the contents of control.in are next.
 
  MPI_IN_PLACE appears to work with this MPI implementation.
  | Keeping use_mpi_in_place .true. (see manual).
  Explicit treatment of the Coulomb operator is needed, but the RI method is not specified.
  Coulomb operator: Defaulting to 'LVL fast' resolution of identity - RI_type = LVL_fast
  Species H: Using default value for prodbas_acc =   1.000000E-06.
  Species H: Using default value max_l_prodbas =     6.
  Species O: Using default value for prodbas_acc =   1.000000E-06.
  Species O: Using default value max_l_prodbas =     6.
  Target number of points in a grid batch is not set.  Since GPU acceleration is enabled, defaulting to  200
  Method for grid partitioning is not set. Defaulting to parallel hash+maxmin partitioning.
  Batch size limit is not set. Defaulting to    200
  By default, will store active basis functions for each batch.
  If in need of memory, prune_basis_once .false. can be used to disable this option.
  communication_type for Hartree potential was not specified.
  Defaulting to calc_hartree .
  Defaulting to Pulay charge density mixer.
  Pulay mixer: Number of relevant iterations not set.
  Defaulting to    8 iterations.
  Pulay mixer: Number of initial linear mixing iterations not set.
  Defaulting to    0 iterations.
  Work space size for distributed Hartree potential not set.
  Defaulting to   0.200000E+03 MB.
  Mixing parameter for charge density mixing has not been set.
  Using default: charge_mix_param =     0.0500.
  The mixing parameter will be adjusted in iteration number     2 of the first full s.c.f. cycle only.
  Algorithm-dependent basis array size parameters:
  | n_max_pulay                         :        8
  Maximum number of self-consistency iterations not provided.
  Presetting  1000 iterations.
  Presetting      1001 iterations before the initial mixing cycle
  is restarted anyway using the sc_init_iter criterion / keyword.
  Presetting a factor      1.000 between actual scf density residual
  and density convergence criterion sc_accuracy_rho below which sc_init_iter
  takes no effect.
  Calculation of forces was not defined in control.in. No forces will be calculated.
  Geometry relaxation not requested: no relaxation will be performed.
  No accuracy limit for integral partition fn. given. Defaulting to  0.1000E-14.
  No occupation type (smearing scheme) given. Defaulting to Gaussian broadening, width =  0.1000E-01 eV.
  The width will be adjusted in iteration number     2 of the first full s.c.f. cycle only.
  S.C.F. convergence parameters will be adjusted in iteration number     2 of the first full s.c.f. cycle only.
  No accuracy for occupation numbers given. Defaulting to  0.1000E-12.
  No threshold value for occupation numbers given. Defaulting to  0.0000E+00.
  No accuracy for fermi level given. Defaulting to  0.1000E-19.
  Maximum # of iterations to find E_F not set. Defaulting to  200.
  Preferred method for the eigenvalue solver ('KS_method') not specified in 'control.in'.
  Calling BLACS routine to test compilation state
  Since ScaLAPACK support is enabled, defaulting to ELPA (via ELSI).
  Will not use alltoall communication since running on < 1024 CPUs.
  Threshold for basis singularities not set.
  Default threshold for basis singularities:  0.1000E-04
  partition_type (choice of integration weights) for integrals was not specified.
  | Using a version of the partition function of Stratmann and coworkers ('stratmann_sparse').
  | At each grid point, the set of atoms used to build the partition table is smoothly restricted to
  | only those atoms whose free-atom density would be non-zero at that grid point.
  Partitioning for Hartree potential was not defined. Using partition_type for integrals.
  | Adjusted default value of keyword multip_moments_threshold to:       0.10000000E-11
  | This value may affect high angular momentum components of the Hartree potential in periodic systems.
  Angular momentum expansion for Kerker preconditioner not set explicitly.
  | Using default value of   0
  No explicit requirement for turning off preconditioner.
  | By default, it will be turned off when the charge convergence reaches
  | sc_accuracy_rho  =   0.100000E-05
  No special mixing parameter while Kerker preconditioner is on.
  Using default: charge_mix_param =     0.0500.
  Threshold for auxiliary basis singularities not set.
  Default threshold for auxiliary basis singularities:  0.1000E-04
  No q(lm)/r^(l+1) cutoff set for long-range Hartree potential.
  | Using default value of  0.100000E-09 .
  | Verify using the multipole_threshold keyword.
  Defaulting to new monopole extrapolation.
  Density update method: automatic selection selected.
  Using density matrix based charge density update.
  Using density matrix based charge density update.
  Using packed matrix style: index .
  Defaulting to use time-reversal symmetry for k-point grid.
  Charge integration errors on the 3D integration grid will be compensated
  by explicit normalization and distribution of residual charges.
  Use the "compensate_multipole_errors" flag to change this behaviour.
  Default to 1D ("use_logsbt") integrations for auxiliary 2-center integrals.
  Default onset of logarithmic r-grid for SBT is -38.000000000000
  Default onset of logarithmic k-grid for SBT is -25.000000000000
  Default range of logarithmic r- and k-grid for SBT is  45.000000000000
  Default number of logarithmic r- and k-grid for SBT is   4096
  Default of use_2d_corr is to use the efficient 2D distribution where possible
 
  Consistency checks for the contents of geometry.in are next.
 

  Range separation radius for Ewald summation (hartree_convergence_parameter):      2.97977004 bohr.
  Number of empty states per atom not set in control.in .
  | Since you are using a method that relies on the unoccupied spectrum
  | (MP2,GW,RPA et al.), will use the full Hamiltonian size (see below)
  | as the max. possible number of states (occupied plus empty).

  Structure-dependent array size parameters: 
  | Maximum number of distinct radial functions  :        9
  | Maximum number of basis functions            :      768
  | Number of Kohn-Sham states (occupied + empty):      768
------------------------------------------------------------

  Performing system and environment tests:
  | Environment variable OMP_NUM_THREADS correctly set to 1.
  | Checking for ScaLAPACK...
  | Testing pdtran()...
  | All pdtran() tests passed.
CUDA runtime version: 11060
CUDA driver version: 11060
  Initializing GPUs...

  Number of GPUs available to MPI task         0 :   1
  Number of GPUs available to MPI task         1 :   1
  Number of GPUs available to MPI task         2 :   1
  Number of GPUs available to MPI task         3 :   1
  Number of GPUs available to MPI task         4 :   1
  Number of GPUs available to MPI task         5 :   1
  Number of GPUs available to MPI task         6 :   1
  Number of GPUs available to MPI task         7 :   1
  Number of GPUs available to MPI task         8 :   1
  Number of GPUs available to MPI task         9 :   1
  Number of GPUs available to MPI task        10 :   1
  Number of GPUs available to MPI task        11 :   1
  Number of GPUs available to MPI task        12 :   1
  Number of GPUs available to MPI task        13 :   1
  Number of GPUs available to MPI task        14 :   1
  Number of GPUs available to MPI task        15 :   1
  Number of GPUs available to MPI task        16 :   1
  Number of GPUs available to MPI task        17 :   1

  | MPI task         0, GPU activated = T, Device Name = NVIDIA A100-SXM4-80GB
  | MPI task         1, GPU activated = T, Device Name = NVIDIA A100-SXM4-80GB
  | MPI task         2, GPU activated = T, Device Name = NVIDIA A100-SXM4-80GB
  | MPI task         3, GPU activated = T, Device Name = NVIDIA A100-SXM4-80GB
  | MPI task         4, GPU activated = T, Device Name = NVIDIA A100-SXM4-80GB
  | MPI task         5, GPU activated = T, Device Name = NVIDIA A100-SXM4-80GB
  | MPI task         6, GPU activated = T, Device Name = NVIDIA A100-SXM4-80GB
  | MPI task         7, GPU activated = T, Device Name = NVIDIA A100-SXM4-80GB
  | MPI task         8, GPU activated = T, Device Name = NVIDIA A100-SXM4-80GB
  | MPI task         9, GPU activated = T, Device Name = NVIDIA A100-SXM4-80GB
  | MPI task        10, GPU activated = T, Device Name = NVIDIA A100-SXM4-80GB
  | MPI task        11, GPU activated = T, Device Name = NVIDIA A100-SXM4-80GB
  | MPI task        12, GPU activated = T, Device Name = NVIDIA A100-SXM4-80GB
  | MPI task        13, GPU activated = T, Device Name = NVIDIA A100-SXM4-80GB
  | MPI task        14, GPU activated = T, Device Name = NVIDIA A100-SXM4-80GB
  | MPI task        15, GPU activated = T, Device Name = NVIDIA A100-SXM4-80GB
  | MPI task        16, GPU activated = T, Device Name = NVIDIA A100-SXM4-80GB
  | MPI task        17, GPU activated = T, Device Name = NVIDIA A100-SXM4-80GB

------------------------------------------------------------
          Preparing all fixed parts of the calculation.
------------------------------------------------------------
  Determining machine precision:
    2.225073858507201E-308
  Setting up grids for atomic and cluster calculations.

  Creating wave function, potential, and density for free atoms.
  Runtime choices for atomic solver:
  | atomic solver xc        : PW-LDA
  | compute density gradient: 0
  | compute kinetic density : F

  Species: H

  List of occupied orbitals and eigenvalues:
    n    l              occ      energy [Ha]    energy [eV]
    1    0           1.0000        -0.232375        -6.3233


  Species: O

  List of occupied orbitals and eigenvalues:
    n    l              occ      energy [Ha]    energy [eV]
    1    0           2.0000       -18.757744      -510.4242
    2    0           2.0000        -0.870917       -23.6989
    2    1           4.0000        -0.337950        -9.1961


  Adding cutoff potential to free-atom effective potential.
  Creating fixed part of basis set: Ionic, confined, hydrogenic.
 
  H                    hydrogenic:
 
  List of hydrogenic basis orbitals: 
    n    l      effective z      eigenvalue [eV]  inner max. [A]     outer max. [A]     outer radius [A]   
    2    0         2.100000       -14.9728           0.193243           1.317208           4.696947
    2    1         3.500000       -41.6669           0.602369           0.602369           3.862494
 
 
  O                    hydrogenic:
 
  List of hydrogenic basis orbitals: 
    n    l      effective z      eigenvalue [eV]  inner max. [A]     outer max. [A]     outer radius [A]   
    2    1         1.800000       -10.9749           1.164242           1.164242           4.691341
    3    2         7.600000       -87.3180           0.624125           0.624125           3.413946
    3    0         6.400000       -61.9207           0.061167           1.081902           4.151495
 
  Creating atomic-like basis functions for current effective potential.

  Species H                   :

  List of atomic basis orbitals and eigenvalues:
    n    l      energy [Ha]    energy [eV]    outer radius [A]
    1    0        -0.232375        -6.3233       4.696947


  Species O                   :

  List of atomic basis orbitals and eigenvalues:
    n    l      energy [Ha]    energy [eV]    outer radius [A]
    1    0       -18.757744      -510.4242       1.830144
    2    0        -0.870917       -23.6989       4.578029
    2    1        -0.337950        -9.1961       4.634338

  Assembling full basis from fixed parts.
  | Species H :   atomic orbital   1 s accepted.
  | Species H :    hydro orbital   2 s accepted.
  | Species H :    hydro orbital   2 p accepted.
  | Species O :   atomic orbital   1 s accepted.
  | Species O :    hydro orbital   3 s accepted.
  | Species O :   atomic orbital   2 s accepted.
  | Species O :   atomic orbital   2 p accepted.
  | Species O :    hydro orbital   2 p accepted.
  | Species O :    hydro orbital   3 d accepted.
 
  Basis size parameters after reduction:
  | Total number of radial functions:        9
  | Total number of basis functions :      768
 
  Per-task memory consumption for arrays in subroutine allocate_ext:
  |           2.268304MB.
  Testing on-site integration grid accuracy.
  |  Species  Function  <phi|h_atom|phi> (log., in eV)  <phi|h_atom|phi> (rad., in eV)
           1        1                 -6.3245358373                 -6.3232436907
           1        2                 14.1326137532                 14.1384481100
           1        3                 25.3627025200                 25.3628451197
           2        4               -510.4241781764               -510.4240769407
           2        5                 14.9072942213                 14.9072945271
           2        6                -21.2004736474                -21.2005650551
           2        7                 -9.1962086505                 -9.1963509834
           2        8                  8.1896755006                  8.1702200081
           2        9                 45.7920584937                 45.7920228520

  Preparing densities etc. for the partition functions (integrals / Hartree potential).

  Preparations completed.
  max(cpu_time)          :      0.070 s.
  Wall clock time (cpu1) :      0.062 s.
------------------------------------------------------------

  Initializing index lists of integration centers etc. from given atomic structure:
  Mapping all atomic coordinates to central unit cell.

  Initializing the k-points
  Using symmetry for reducing the k-points
  | k-points reduced from:        1 to        1
  | Number of k-points                             :         1
  | Consuming          0 KiB for k_phase_exx.
  The eigenvectors in the calculations are REAL.
  | Number of basis functions in the Hamiltonian integrals :      4454
  | Number of basis functions in a single unit cell        :       768
  | Number of centers in hartree potential         :      2551
  | Number of centers in hartree multipole         :      1857
  | Number of centers in electron density summation:      1453
  | Number of centers in basis integrals           :      1533
  | Number of centers in integrals                 :       712
  | Number of centers in hamiltonian               :      1454
  | Consuming          0 KiB for k_phase.
  | Number of super-cells (origin) [n_cells]                     :         125
  | Number of super-cells (after PM_index) [n_cells]             :          28
  | Number of super-cells in hamiltonian [n_cells_in_hamiltonian]:          28
  | Size of matrix packed + index [n_hamiltonian_matrix_size] :      789480
  | Size of matrix packed + index (no_symmetry):     1578191

------------------------------------------------------------
          Begin self-consistency loop: Initialization.

          Date     :  20230221, Time     :  134452.702
------------------------------------------------------------
  | Estimated reciprocal-space cutoff momentum G_max:         3.17273317 bohr^-1 .
  | Reciprocal lattice points for long-range Hartree potential:    3430
  Using simple linear distribution as default method for k-point parallelism.
  * Using 18 tasks for Scalapack Eigenvalue solver.
  Detailed listing of tasks and assigned k-points:
   Task     0 k-point     1 on adag038
   Task     1 k-point     1 on adag038
   Task     2 k-point     1 on adag038
   Task     3 k-point     1 on adag038
   Task     4 k-point     1 on adag038
   Task     5 k-point     1 on adag038
   Task     6 k-point     1 on adag038
   Task     7 k-point     1 on adag038
   Task     8 k-point     1 on adag038
   Task     9 k-point     1 on adag038
   Task    10 k-point     1 on adag038
   Task    11 k-point     1 on adag038
   Task    12 k-point     1 on adag038
   Task    13 k-point     1 on adag038
   Task    14 k-point     1 on adag038
   Task    15 k-point     1 on adag038
   Task    16 k-point     1 on adag038
   Task    17 k-point     1 on adag038
  K-point:     1 Tasks:    18 split into      6 X      3 BLACS grid
  Calculating block size based on n_basis =          768  max_nprow =            6  max_npcol =            3
  ScaLAPACK block size set to:           16
  Allocating        0.250 MB for ovlp
  Allocating        0.250 MB for ham
  Allocating        0.250 MB for eigenvec
  Required Scalapack workspace - INTEGER:            1  REAL:             1
  Partitioning the integration grid into batches with parallel hashing+maxmin method.
  | Number of batches:     4096
  | Maximal batch size:     200
  | Minimal batch size:      99
  | Average batch size:     124.406
  | Standard deviation of batch sizes:      24.485

  Integration load balanced across    18 MPI tasks.
  Work distribution over tasks is as follows:
  Task     0 has      28347 integration points.
  Task     1 has      28332 integration points.
  Task     2 has      28329 integration points.
  Task     3 has      28321 integration points.
  Task     4 has      28321 integration points.
  Task     5 has      28411 integration points.
  Task     6 has      28236 integration points.
  Task     7 has      28333 integration points.
  Task     8 has      28327 integration points.
  Task     9 has      28324 integration points.
  Task    10 has      28329 integration points.
  Task    11 has      28295 integration points.
  Task    12 has      28233 integration points.
  Task    13 has      28227 integration points.
  Task    14 has      28240 integration points.
  Task    15 has      28295 integration points.
  Task    16 has      28426 integration points.
  Task    17 has      28242 integration points.
  Initializing partition tables, free-atom densities, potentials, etc. across the integration grid (initialize_grid_storage).
  | initialize_grid_storage: Actual outermost partition radius vs. multipole_radius_free
  | (-- VB: in principle, multipole_radius_free should be larger, hence this output)
  | Species        1: Confinement radius =              4.999999999999999 AA, multipole_radius_free =              5.054417573612229 AA.
  | Species        1: outer_partition_radius set to              5.054417573612229 AA .
  | Species        2: Confinement radius =              4.999999999999999 AA, multipole_radius_free =              5.048384829883283 AA.
  | Species        2: outer_partition_radius set to              5.048384829883283 AA .
  | The sparse table of interatomic distances needs       5062.70 kbyte instead of     18800.71 kbyte of memory.
  | Net number of integration points:   509568
  | of which are non-zero points    :   406284
  | Numerical average free-atom electrostatic potential    :     -5.41228202 eV
  Renormalizing the initial density to the exact electron count on the 3D integration grid.
  | Initial density: Formal number of electrons (from input files) :     320.0000000000
  | Integrated number of electrons on 3D grid     :     319.9995973320
  | Charge integration error                      :      -0.0004026680
  | Normalization factor for density and gradient :       1.0000012583
  Renormalizing the free-atom superposition density to the exact electron count on the 3D integration grid.
  | Formal number of electrons (from input files) :     320.0000000000
  | Integrated number of electrons on 3D grid     :     319.9995973320
  | Charge integration error                      :      -0.0004026680
  | Normalization factor for density and gradient :       1.0000012583
  Obtaining max. number of non-zero basis functions in each batch (get_n_compute_maxes).
  | Maximal number of non-zero basis functions:      436 in task     0
  | Maximal number of non-zero basis functions:      431 in task     1
  | Maximal number of non-zero basis functions:      430 in task     2
  | Maximal number of non-zero basis functions:      417 in task     3
  | Maximal number of non-zero basis functions:      427 in task     4
  | Maximal number of non-zero basis functions:      434 in task     5
  | Maximal number of non-zero basis functions:      412 in task     6
  | Maximal number of non-zero basis functions:      457 in task     7
  | Maximal number of non-zero basis functions:      431 in task     8
  | Maximal number of non-zero basis functions:      429 in task     9
  | Maximal number of non-zero basis functions:      417 in task    10
  | Maximal number of non-zero basis functions:      428 in task    11
  | Maximal number of non-zero basis functions:      424 in task    12
  | Maximal number of non-zero basis functions:      415 in task    13
  | Maximal number of non-zero basis functions:      422 in task    14
  | Maximal number of non-zero basis functions:      430 in task    15
  | Maximal number of non-zero basis functions:      418 in task    16
  | Maximal number of non-zero basis functions:      418 in task    17
  Integrating Hamiltonian matrix: batch-based integration.
  GPU acceleration will be used when integrating the Hamiltonian matrix.
  Reporting GPU memory usage by myid 0.  Note that it is likely not the only MPI task binding to its GPU!
  Allocating        1.521 MB on GPU for hamiltonian_shell
  Allocating        0.698 MB on GPU for wave
  Allocating        0.002 MB on GPU for partition
  Allocating        0.698 MB on GPU for h_times_psi
  Time summed over all CPUs for integration: real work       12.337 s, elapsed       12.749 s
  Deallocating memory used on GPU for Hamiltonian integration.
  Integrating overlap matrix.
  Time summed over all CPUs for integration: real work       10.131 s, elapsed       10.549 s
  Deallocating overlap matrix.

  Updating Kohn-Sham eigenvalues and eigenvectors using ELSI and the ELPA eigensolver.
  Singularity check in k-point 1 (analysis for other k-points may follow below):
  Overlap matrix is not singular
  | Lowest and highest eigenvalues :  0.2196E-02,  0.7256E+01
  Finished singularity check of overlap matrix
  | Time :     0.186 s
  Starting ELPA eigensolver (GPU)
  Finished Cholesky decomposition
  | Time :     0.008 s
  Finished transformation to standard eigenproblem
  | Time :     0.029 s
  Finished solving standard eigenproblem
  | Time :     0.229 s
  Finished back-transformation of eigenvectors
  | Time :     0.019 s

  Obtaining occupation numbers and electronic chemical potential using ELSI.
  | Note that, for insulating systems, the printed 'chemical potential' value is not uniquely defined.
  | It can be anywhere in the energy gap, as long as it correctly separates occupied and unoccupied states.
  | In systems with a gap, the physically relevant chemical potential is the VBM or HOMO.

  | Chemical potential (Fermi level):    -6.82591163 eV
  Writing Kohn-Sham eigenvalues.

  State    Occupation    Eigenvalue [Ha]    Eigenvalue [eV]
      1       2.00000         -18.913596         -514.66512
      2       2.00000         -18.906404         -514.46944
      3       2.00000         -18.906312         -514.46692
      4       2.00000         -18.897335         -514.22265
      5       2.00000         -18.895159         -514.16345
      6       2.00000         -18.893646         -514.12227
      7       2.00000         -18.892495         -514.09094
      8       2.00000         -18.890648         -514.04068
      9       2.00000         -18.886214         -513.92004
     10       2.00000         -18.884606         -513.87626
     11       2.00000         -18.879354         -513.73336
     12       2.00000         -18.877265         -513.67653
     13       2.00000         -18.873781         -513.58170
     14       2.00000         -18.872979         -513.55989
     15       2.00000         -18.872721         -513.55288
     16       2.00000         -18.872627         -513.55031
     17       2.00000         -18.871035         -513.50699
     18       2.00000         -18.869966         -513.47789
     19       2.00000         -18.868438         -513.43632
     20       2.00000         -18.867674         -513.41554
     21       2.00000         -18.865222         -513.34880
     22       2.00000         -18.863163         -513.29278
     23       2.00000         -18.862983         -513.28789
     24       2.00000         -18.862274         -513.26860
     25       2.00000         -18.857206         -513.13069
     26       2.00000         -18.853520         -513.03038
     27       2.00000         -18.851934         -512.98722
     28       2.00000         -18.851539         -512.97647
     29       2.00000         -18.851025         -512.96250
     30       2.00000         -18.850523         -512.94882
     31       2.00000         -18.850489         -512.94790
     32       2.00000         -18.849734         -512.92736
     33       2.00000          -1.170297          -31.84540
     34       2.00000          -1.166710          -31.74780
     35       2.00000          -1.150510          -31.30698
     36       2.00000          -1.150105          -31.29596
     37       2.00000          -1.150010          -31.29335
     38       2.00000          -1.134508          -30.87152
     39       2.00000          -1.132315          -30.81186
     40       2.00000          -1.129405          -30.73268
     41       2.00000          -1.124557          -30.60076
     42       2.00000          -1.124303          -30.59383
     43       2.00000          -1.123191          -30.56357
     44       2.00000          -1.116732          -30.38782
     45       2.00000          -1.111430          -30.24356
     46       2.00000          -1.106888          -30.11996
     47       2.00000          -1.103265          -30.02136
     48       2.00000          -1.100280          -29.94014
     49       2.00000          -1.098546          -29.89295
     50       2.00000          -1.097561          -29.86617
     51       2.00000          -1.094979          -29.79590
     52       2.00000          -1.090152          -29.66455
     53       2.00000          -1.089343          -29.64253
     54       2.00000          -1.082292          -29.45066
     55       2.00000          -1.080153          -29.39246
     56       2.00000          -1.077455          -29.31904
     57       2.00000          -1.076152          -29.28360
     58       2.00000          -1.070506          -29.12996
     59       2.00000          -1.069499          -29.10255
     60       2.00000          -1.066851          -29.03049
     61       2.00000          -1.063261          -28.93279
     62       2.00000          -1.061268          -28.87856
     63       2.00000          -1.058866          -28.81322
     64       2.00000          -1.054339          -28.69001
     65       2.00000          -0.720827          -19.61469
     66       2.00000          -0.715315          -19.46471
     67       2.00000          -0.685657          -18.65767
     68       2.00000          -0.681553          -18.54600
     69       2.00000          -0.678675          -18.46768
     70       2.00000          -0.672251          -18.29289
     71       2.00000          -0.667796          -18.17167
     72       2.00000          -0.667292          -18.15794
     73       2.00000          -0.666226          -18.12892
     74       2.00000          -0.661664          -18.00480
     75       2.00000          -0.660260          -17.96658
     76       2.00000          -0.658043          -17.90625
     77       2.00000          -0.653139          -17.77282
     78       2.00000          -0.652624          -17.75881
     79       2.00000          -0.651481          -17.72769
     80       2.00000          -0.649103          -17.66299
     81       2.00000          -0.647689          -17.62452
     82       2.00000          -0.646923          -17.60368
     83       2.00000          -0.641766          -17.46333
     84       2.00000          -0.639640          -17.40550
     85       2.00000          -0.637920          -17.35869
     86       2.00000          -0.633952          -17.25073
     87       2.00000          -0.631722          -17.19002
     88       2.00000          -0.623464          -16.96533
     89       2.00000          -0.622794          -16.94709
     90       2.00000          -0.613206          -16.68618
     91       2.00000          -0.612034          -16.65430
     92       2.00000          -0.610222          -16.60499
     93       2.00000          -0.609460          -16.58425
     94       2.00000          -0.609208          -16.57739
     95       2.00000          -0.603498          -16.42201
     96       2.00000          -0.584185          -15.89647
     97       2.00000          -0.578129          -15.73170
     98       2.00000          -0.570086          -15.51284
     99       2.00000          -0.562428          -15.30443
    100       2.00000          -0.558923          -15.20906
    101       2.00000          -0.558009          -15.18420
    102       2.00000          -0.553664          -15.06597
    103       2.00000          -0.549212          -14.94481
    104       2.00000          -0.547498          -14.89817
    105       2.00000          -0.545438          -14.84212
    106       2.00000          -0.543486          -14.78902
    107       2.00000          -0.541685          -14.74000
    108       2.00000          -0.538949          -14.66555
    109       2.00000          -0.536928          -14.61056
    110       2.00000          -0.533972          -14.53011
    111       2.00000          -0.531638          -14.46660
    112       2.00000          -0.528113          -14.37068
    113       2.00000          -0.526836          -14.33594
    114       2.00000          -0.524627          -14.27582
    115       2.00000          -0.522666          -14.22247
    116       2.00000          -0.518679          -14.11397
    117       2.00000          -0.515654          -14.03167
    118       2.00000          -0.512257          -13.93921
    119       2.00000          -0.509716          -13.87008
    120       2.00000          -0.506871          -13.79267
    121       2.00000          -0.504132          -13.71814
    122       2.00000          -0.502848          -13.68319
    123       2.00000          -0.502303          -13.66835
    124       2.00000          -0.499505          -13.59221
    125       2.00000          -0.497180          -13.52895
    126       2.00000          -0.494222          -13.44847
    127       2.00000          -0.493219          -13.42116
    128       2.00000          -0.484755          -13.19086
    129       2.00000          -0.484282          -13.17799
    130       2.00000          -0.482158          -13.12018
    131       2.00000          -0.479408          -13.04535
    132       2.00000          -0.476971          -12.97905
    133       2.00000          -0.476289          -12.96047
    134       2.00000          -0.472353          -12.85338
    135       2.00000          -0.469793          -12.78373
    136       2.00000          -0.467077          -12.70982
    137       2.00000          -0.466517          -12.69458
    138       2.00000          -0.464832          -12.64873
    139       2.00000          -0.464363          -12.63595
    140       2.00000          -0.462210          -12.57737
    141       2.00000          -0.461459          -12.55693
    142       2.00000          -0.459962          -12.51622
    143       2.00000          -0.459321          -12.49875
    144       2.00000          -0.457989          -12.46252
    145       2.00000          -0.457896          -12.45998
    146       2.00000          -0.456763          -12.42915
    147       2.00000          -0.454144          -12.35788
    148       2.00000          -0.453537          -12.34136
    149       2.00000          -0.452215          -12.30541
    150       2.00000          -0.450094          -12.24768
    151       2.00000          -0.449694          -12.23680
    152       2.00000          -0.449161          -12.22229
    153       2.00000          -0.445133          -12.11268
    154       2.00000          -0.442700          -12.04648
    155       2.00000          -0.441513          -12.01417
    156       2.00000          -0.441194          -12.00550
    157       2.00000          -0.437254          -11.89830
    158       2.00000          -0.432024          -11.75598
    159       2.00000          -0.431283          -11.73580
    160       2.00000          -0.428831          -11.66910
    161       0.00000          -0.176628           -4.80629
    162       0.00000          -0.121505           -3.30631
    163       0.00000          -0.119472           -3.25099
    164       0.00000          -0.113730           -3.09474
    165       0.00000          -0.109327           -2.97494
    166       0.00000          -0.100383           -2.73157
    167       0.00000          -0.097284           -2.64724
    168       0.00000          -0.076609           -2.08464
    169       0.00000          -0.072003           -1.95930
    170       0.00000          -0.068360           -1.86018
    171       0.00000          -0.062937           -1.71259
    172       0.00000          -0.060604           -1.64913
    173       0.00000          -0.059618           -1.62230
    174       0.00000          -0.052847           -1.43803
    175       0.00000          -0.049898           -1.35778
    176       0.00000          -0.045715           -1.24396
    177       0.00000          -0.043593           -1.18623
    178       0.00000          -0.035810           -0.97443
    179       0.00000          -0.022045           -0.59988
    180       0.00000          -0.021541           -0.58617
    181       0.00000          -0.016087           -0.43775
    182       0.00000          -0.010757           -0.29272
    183       0.00000          -0.007774           -0.21153
    184       0.00000          -0.000976           -0.02655
    185       0.00000           0.006430            0.17496
    186       0.00000           0.013271            0.36113
    187       0.00000           0.015627            0.42524
    188       0.00000           0.017709            0.48188
    189       0.00000           0.022272            0.60606
    190       0.00000           0.027936            0.76018
    191       0.00000           0.030325            0.82518
    192       0.00000           0.034594            0.94134
    193       0.00000           0.036430            0.99130
    194       0.00000           0.039068            1.06308
    195       0.00000           0.043647            1.18768
    196       0.00000           0.047802            1.30075
    197       0.00000           0.050887            1.38469
    198       0.00000           0.055297            1.50470
    199       0.00000           0.056084            1.52612
    200       0.00000           0.059790            1.62696
    201       0.00000           0.062368            1.69712
    202       0.00000           0.065872            1.79246
    203       0.00000           0.067316            1.83177
    204       0.00000           0.070987            1.93166
    205       0.00000           0.071592            1.94812
    206       0.00000           0.072873            1.98296
    207       0.00000           0.074158            2.01795
    208       0.00000           0.078809            2.14451
    209       0.00000           0.083439            2.27048
    210       0.00000           0.085129            2.31647
    211       0.00000           0.088392            2.40526
    212       0.00000           0.090336            2.45817
    213       0.00000           0.094661            2.57585
    214       0.00000           0.095510            2.59895
    215       0.00000           0.098562            2.68202
    216       0.00000           0.099678            2.71238
    217       0.00000           0.101922            2.77344
    218       0.00000           0.109172            2.97072
    219       0.00000           0.110559            3.00847
    220       0.00000           0.115342            3.13863
    221       0.00000           0.116694            3.17539
    222       0.00000           0.119527            3.25249
    223       0.00000           0.133937            3.64461
    224       0.00000           0.136574            3.71636
    225       0.00000           0.140727            3.82939
    226       0.00000           0.144105            3.92129
    227       0.00000           0.154686            4.20921
    228       0.00000           0.159582            4.34246
    229       0.00000           0.161730            4.40090
    230       0.00000           0.169950            4.62457
    231       0.00000           0.175664            4.78007
    232       0.00000           0.179751            4.89129
    233       0.00000           0.181714            4.94470
    234       0.00000           0.195669            5.32443
    235       0.00000           0.202455            5.50908
    236       0.00000           0.205120            5.58159
    237       0.00000           0.213540            5.81071
    238       0.00000           0.217658            5.92278
    239       0.00000           0.225135            6.12625
    240       0.00000           0.228562            6.21947
    241       0.00000           0.233198            6.34563
    242       0.00000           0.239982            6.53024
    243       0.00000           0.248117            6.75161
    244       0.00000           0.253745            6.90476
    245       0.00000           0.261465            7.11482
    246       0.00000           0.263404            7.16758
    247       0.00000           0.271716            7.39378
    248       0.00000           0.276256            7.51732
    249       0.00000           0.282800            7.69537
    250       0.00000           0.287219            7.81563
    251       0.00000           0.294660            8.01810
    252       0.00000           0.300986            8.19024
    253       0.00000           0.304571            8.28780
    254       0.00000           0.315677            8.59002
    255       0.00000           0.317313            8.63453
    256       0.00000           0.320175            8.71240
    257       0.00000           0.325124            8.84707
    258       0.00000           0.336757            9.16363
    259       0.00000           0.342737            9.32634
[...]
  |    H      0     4.527807 A      4.527807 A        1.268855E-16 a.u.
  |    H      0     4.527807 A      4.583499 A       -4.900954E-17 a.u.
  |    H      0     4.527807 A      4.583499 A        4.713786E-16 a.u.
  |    H      2     3.678162 A  2.180220E+05 A            0.556529 a.u.
  |    H      1     3.958095 A  1.721251E+08 A            0.841931 a.u.
  |    H      0     4.527807 A  3.866455E+16 A            0.581436 a.u.
  |    O      0     2.043000 A      2.043000 A       -1.436841E-16 a.u.
  |    O      3     3.498446 A      3.498446 A        3.043453E-17 a.u.
  |    O      3     3.498446 A      3.498446 A        1.541443E-16 a.u.
  |    O      0     3.905335 A      3.905335 A        2.173090E-16 a.u.
  |    O      0     3.905335 A      3.905335 A        7.213445E-17 a.u.
  |    O      0     4.101052 A      4.101052 A        2.361718E-16 a.u.
  |    O      1     4.101052 A      4.101052 A        3.235185E-17 a.u.
  |    O      0     4.359549 A      4.359549 A       -5.329475E-17 a.u.
  |    O      1     4.413171 A      4.413171 A        3.261883E-17 a.u.
  |    O      1     4.522403 A      4.522403 A        6.417997E-16 a.u.
  |    O      1     4.522403 A      4.522403 A        4.224783E-16 a.u.
  |    O      2     4.522403 A      4.522403 A       -4.387647E-16 a.u.
  |    O      0     4.522403 A      4.578029 A        2.602039E-16 a.u.
  |    O      0     4.578029 A      4.578029 A        1.226235E-16 a.u.
  |    O      1     4.578029 A      4.578029 A       -6.107316E-16 a.u.
  |    O      1     4.578029 A      4.578029 A       -2.224438E-16 a.u.
  |    O      2     4.578029 A      4.578029 A       -7.020279E-16 a.u.
  |    O      2     4.522403 A      4.578029 A        1.323470E-15 a.u.
  |    O      2     4.578029 A      4.578029 A        7.923696E-16 a.u.
  |    O      2     4.522403 A      4.578029 A       -9.951815E-16 a.u.
  |    O      0     4.578029 A      4.634338 A       -8.813582E-18 a.u.
  |    O      1     4.578029 A      4.634338 A       -3.325386E-17 a.u.
  |    O      1     4.634338 A      4.634338 A        9.588032E-16 a.u.
  |    O      2     4.578029 A      4.634338 A        1.064715E-17 a.u.
  |    O      2     4.578029 A      4.634338 A       -3.770343E-15 a.u.
  |    O      4     3.251020 A  1.511584E+03 A            1.513372 a.u.
  |    O      3     3.541477 A  1.434166E+04 A            4.293220 a.u.
  |    O      2     4.634338 A  5.584435E+05 A            9.352428 a.u.
  |    O      1     4.634338 A  2.821283E+08 A            2.261940 a.u.
  |    O      0     4.578029 A  4.264100E+16 A            0.641234 a.u.

  | Shrink_full_auxil_basis : there are       38  radial auxiliary wave functions
                            accepted and       5 rejected.
  | Shrink_full_auxil_basis : there are totally                4544 partial auxiliary wave functions.
 
  | Maximal number of product basis functions per thread :   256   256
 
  | Minimal total memory requirement for three-center overlap :      10.450 Gbs
  | Number of local auxiliary basis functions on task:      0   256
  | Number of local auxiliary basis functions on task:      1   256
  | Number of local auxiliary basis functions on task:      2   256
  | Number of local auxiliary basis functions on task:      3   256
  | Number of local auxiliary basis functions on task:      4   256
  | Number of local auxiliary basis functions on task:      5   256
  | Number of local auxiliary basis functions on task:      6   256
  | Number of local auxiliary basis functions on task:      7   256
  | Number of local auxiliary basis functions on task:      8   256
  | Number of local auxiliary basis functions on task:      9   256
  | Number of local auxiliary basis functions on task:     10   256
  | Number of local auxiliary basis functions on task:     11   256
  | Number of local auxiliary basis functions on task:     12   256
  | Number of local auxiliary basis functions on task:     13   256
  | Number of local auxiliary basis functions on task:     14   240
  | Number of local auxiliary basis functions on task:     15   240
  | Number of local auxiliary basis functions on task:     16   240
  | Number of local auxiliary basis functions on task:     17   240
  | 2D aux task distribution:      3 X      6
  | 2D block size (nb_aux_2d):     64
 
  Basis pair condensation :    295296  -->     224757
 
 --------------------------------------------
  Constructing auxiliary basis (full product) ...
 
  Product basis:
  | charge radius: extent of product basis function
  | field radius: extent of its Coulomb potential
  | Species   l  charge radius    field radius  multipol momen
  |    H      1     3.910002 A      3.910002 A       -2.487223E-16 a.u.
  |    H      1     3.958095 A      3.958095 A       -2.441841E-16 a.u.
  |    H      0     4.527807 A      4.527807 A        1.268855E-16 a.u.
  |    H      0     4.527807 A      4.583499 A       -4.900954E-17 a.u.
  |    H      0     4.527807 A      4.583499 A        4.713786E-16 a.u.
  |    H      2     3.678162 A  2.180220E+05 A            0.556529 a.u.
  |    H      1     3.958095 A  1.721251E+08 A            0.841931 a.u.
  |    H      0     4.527807 A  3.866455E+16 A            0.581436 a.u.
  |    O      0     2.043000 A      2.043000 A       -1.436841E-16 a.u.
  |    O      3     3.498446 A      3.498446 A        3.043453E-17 a.u.
  |    O      3     3.498446 A      3.498446 A        1.541443E-16 a.u.
  |    O      0     3.905335 A      3.905335 A        2.173090E-16 a.u.
  |    O      0     3.905335 A      3.905335 A        7.213445E-17 a.u.
  |    O      0     4.101052 A      4.101052 A        2.361718E-16 a.u.
  |    O      1     4.101052 A      4.101052 A        3.235185E-17 a.u.
  |    O      0     4.359549 A      4.359549 A       -5.329475E-17 a.u.
  |    O      1     4.413171 A      4.413171 A        3.261883E-17 a.u.
  |    O      1     4.522403 A      4.522403 A        6.417997E-16 a.u.
  |    O      1     4.522403 A      4.522403 A        4.224783E-16 a.u.
  |    O      2     4.522403 A      4.522403 A       -4.387647E-16 a.u.
  |    O      0     4.522403 A      4.578029 A        2.602039E-16 a.u.
  |    O      0     4.578029 A      4.578029 A        1.226235E-16 a.u.
  |    O      1     4.578029 A      4.578029 A       -6.107316E-16 a.u.
  |    O      1     4.578029 A      4.578029 A       -2.224438E-16 a.u.
  |    O      2     4.578029 A      4.578029 A       -7.020279E-16 a.u.
  |    O      2     4.522403 A      4.578029 A        1.323470E-15 a.u.
  |    O      2     4.578029 A      4.578029 A        7.923696E-16 a.u.
  |    O      2     4.522403 A      4.578029 A       -9.951815E-16 a.u.
  |    O      0     4.578029 A      4.634338 A       -8.813582E-18 a.u.
  |    O      1     4.578029 A      4.634338 A       -3.325386E-17 a.u.
  |    O      1     4.634338 A      4.634338 A        9.588032E-16 a.u.
  |    O      2     4.578029 A      4.634338 A        1.064715E-17 a.u.
  |    O      2     4.578029 A      4.634338 A       -3.770343E-15 a.u.
  |    O      4     3.251020 A  1.511584E+03 A            1.513372 a.u.
  |    O      3     3.541477 A  1.434166E+04 A            4.293220 a.u.
  |    O      2     4.634338 A  5.584435E+05 A            9.352428 a.u.
  |    O      1     4.634338 A  2.821283E+08 A            2.261940 a.u.
  |    O      0     4.578029 A  4.264100E+16 A            0.641234 a.u.

  | Shrink_full_auxil_basis : there are       38  radial auxiliary wave functions
                            accepted and       5 rejected.
  | Shrink_full_auxil_basis : there are totally                4544 partial auxiliary wave functions.
 
  | Maximal number of product basis functions per thread :   256   256
 
  | Minimal total memory requirement for three-center overlap :      10.450 Gbs
  | Number of local auxiliary basis functions on task:      0   256
  | Number of local auxiliary basis functions on task:      1   256
  | Number of local auxiliary basis functions on task:      2   256
  | Number of local auxiliary basis functions on task:      3   256
  | Number of local auxiliary basis functions on task:      4   256
  | Number of local auxiliary basis functions on task:      5   256
  | Number of local auxiliary basis functions on task:      6   256
  | Number of local auxiliary basis functions on task:      7   256
  | Number of local auxiliary basis functions on task:      8   256
  | Number of local auxiliary basis functions on task:      9   256
  | Number of local auxiliary basis functions on task:     10   256
  | Number of local auxiliary basis functions on task:     11   256
  | Number of local auxiliary basis functions on task:     12   256
  | Number of local auxiliary basis functions on task:     13   256
  | Number of local auxiliary basis functions on task:     14   240
  | Number of local auxiliary basis functions on task:     15   240
  | Number of local auxiliary basis functions on task:     16   240
  | Number of local auxiliary basis functions on task:     17   240
  | 2D aux task distribution:      3 X      6
  | 2D block size (nb_aux_2d):     64
 
  Basis pair condensation :    295296  -->     224757
dP_dE (Bohr^3) at every cycle:--->
 (350.640767624534,0.000000000000000E+000) (4.73697644971973,0.000000000000000E+000) (-0.716297611355388,0.000000000000000E+000)
 (4.74212631080428,0.000000000000000E+000) (354.205712606447,0.000000000000000E+000) (-4.16762675993821,0.000000000000000E+000)
 (-0.722669091066530,0.000000000000000E+000) (-4.15412987774467,0.000000000000000E+000) (361.325689550972,0.000000000000000E+000)
DFPT polarizability (Bohr^3)        xx        yy        zz        xy        xz        yz
  | Polarizability:--->                       350.640767625                  354.205712606                  361.325689551                    4.736976450                   -0.716297611                   -4.167626760

DFPT for dielectric_constant:--->  # PARSE DFPT_dielectric_tensor
               1.678124157144837             0.009161108630189            -0.001385288759365
               0.009171068239937             1.685018607346692            -0.008060010828244
              -0.001397610926973            -0.008033908438828             1.698788336397611

                                               :  max(cpu_time)    wall_clock(cpu1)
  | Time for  dielectric calculation            :        0.000 s           0.000 s
===========================================================================

------------------------------------------------------------------------------
  Final output of selected total energy values:

  The following output summarizes some interesting total energy values
  at the end of a run (AFTER all relaxation, molecular dynamics, etc.).

  | Total energy of the DFT / Hartree-Fock s.c.f. calculation      :         -66108.834982909 eV
  | Final zero-broadening corrected energy (caution - metals only) :         -66108.834982909 eV
  | For reference only, the value of 1 Hartree used in FHI-aims is :             27.211384500 eV
  | For reference only, the overall average (free atom contribution
  | + realspace contribution) of the electrostatic potential after
  | s.c.f. convergence is                                          :             -4.983675049 eV

  Before relying on these values, please be sure to understand exactly which
  total energy value is referred to by a given number. Different objects may
  all carry the same name 'total energy'. Definitions:

  Total energy of the DFT / Hartree-Fock s.c.f. calculation:
  | Note that this energy does not include ANY quantities calculated after the
  | s.c.f. cycle, in particular not ANY RPA, MP2, etc. many-body perturbation terms.

  Final zero-broadening corrected energy:
  | For metallic systems only, a broadening of the occupation numbers at the Fermi
  | level can be extrapolated back to zero broadening by an electron-gas inspired
  | formula. For all systems that are not real metals, this value can be
  | meaningless and should be avoided.

------------------------------------------------------------------------------
  Methods described in the following list of references were used in this FHI-aims run.
  If you publish the results, please make sure to cite these reference if they apply.
  FHI-aims is an academic code, and for our developers (often, Ph.D. students
  and postdocs), scientific credit in the community is essential.
  Thank you for helping us!

  For any use of FHI-aims, please cite:

    Volker Blum, Ralf Gehrke, Felix Hanke, Paula Havu, Ville Havu,
    Xinguo Ren, Karsten Reuter, and Matthias Scheffler
    'Ab initio molecular simulations with numeric atom-centered orbitals'
    Computer Physics Communications 180, 2175-2196 (2009)
    http://doi.org/10.1016/j.cpc.2009.06.022


  For Hartree-Fock, hybrid functionals, or many-body perturbation theory used in your run, please cite:

    Xinguo Ren, Patrick Rinke, Volker Blum, Juergen Wieferink, Alex Tkatchenko,
    Andrea Sanfilippo, Karsten Reuter, and Matthias Scheffler,
    'Resolution-of-identity approach to Hartree-Fock, hybrid density functionals,
    RPA, MP2, and GW with numeric atom-centered orbital basis functions'
    New Journal of Physics 14, 053020 (2012).
    http://doi.org/10.1088/1367-2630/14/5/053020


  The provided symmetry information was generated with SPGlib:

    Atsushi Togo, Yusuke Seto, Dimitar Pashov
    SPGlib 1.7.3 obtained from http://spglib.sourceforge.net
    Copyright (C) 2008 Atsushi Togo


  The DFPT (perturbation by an electric field) part of the code was used.
  Here is the corresponding reference:

    Honghui Shang, Nathaniel Raimbault, Mariana Rossi,
    Christian Carbogno, Patrick Rinke and Matthias Scheffler,
    'All-Electron, Real-Space Perturbation Theory for Homogeneous
    Electric Fields: Theory, Implementation, and Application within dft'
    New Journal of Physics, 20(7):073040, 2018


  The ELSI infrastructure was used in your run to solve the Kohn-Sham electronic structure.
  Please check out http://elsi-interchange.org to learn more.
  If scalability is important for your project, please acknowledge ELSI by citing:

    V. W-z. Yu, F. Corsetti, A. Garcia, W. P. Huhn, M. Jacquelin, W. Jia,
    B. Lange, L. Lin, J. Lu, W. Mi, A. Seifitokaldani, A. Vazquez-Mayagoitia,
    C. Yang, H. Yang, and V. Blum
    'ELSI: A unified software interface for Kohn-Sham electronic structure solvers'
    Computer Physics Communications 222, 267-285 (2018).
    http://doi.org/10.1016/j.cpc.2017.09.007


  For the real-space grid partitioning and parallelization used in this calculation, please cite:

    Ville Havu, Volker Blum, Paula Havu, and Matthias Scheffler,
    'Efficient O(N) integration for all-electron electronic structure calculation'
    'using numerically tabulated basis functions'
    Journal of Computational Physics 228, 8367-8379 (2009).
    http://doi.org/10.1016/j.jcp.2009.08.008


  The high-level electronic structure method used in your calculation
  employed our efficient localized resolution of identity for the Coulomb operator.
  Some calculations, especially large-scale hybrid density functional theory,
  are only possible thanks to this development. For this feature, please cite:

    Arvid Ihrig, Juergen Wieferink, Igor Ying Zhang, Matti Ropo, Xinguo Ren,
    Patrick Rinke, Matthias Scheffler, and Volker Blum,
    'Accurate localized resolution of identity approach for linear-scaling
    hybrid density functionals and for many-body perturbation theory'
    New Journal of Physics 117, 093020 (2015).
    http://doi.org/10.1088/1367-2630/17/9/093020

  Of course, there are many other important community references, e.g., those cited in the
  above references. Our list is limited to references that describe implementations in the
  FHI-aims code. The reason is purely practical (length of this list) - please credit others as well.

------------------------------------------------------------
          Leaving FHI-aims.
          Date     :  20230221, Time     :  135302.111

          Computational steps:
          | Number of self-consistency cycles          :           45
          | Number of SCF (re)initializations          :            1
          | Number of coupled perturbed self-consistency cycles          :            0
          | Number of CPSCF (re)initializations          :            0

          Detailed time accounting                     :  max(cpu_time)    wall_clock(cpu1)
          | Total time                                  :      489.596 s         500.821 s
          | GPU initialization                          :        2.205 s           9.989 s
          | Preparation time                            :        0.070 s           0.062 s
          | Boundary condition initalization            :        1.265 s           1.265 s
          | Grid partitioning                           :        0.418 s           0.418 s
          | Preloading free-atom quantities on grid     :        2.380 s           2.381 s
          | Free-atom superposition energy              :        0.309 s           0.309 s
          | Total time for integrations                 :       12.641 s          12.809 s
          | Product basis setup: Total time             :        0.000 s           0.000 s
          | Product basis: | 2-center integrations     :(       0.000 s)  (       0.000 s)
          | Product basis: | LVL 3-center & coefficient:(       0.000 s)  (       0.000 s)
          | Total time for solution of K.-S. equations  :        2.301 s           4.679 s
          | Total time for density update               :        8.710 s           9.038 s
          | Total time for mixing & preconditioning     :        8.255 s           8.260 s
          | Total time for Hartree multipole update     :        0.104 s           0.104 s
          | Total time for Hartree multipole sum        :       35.239 s          35.254 s
          | Total time for total energy evaluation      :        0.006 s           0.011 s
          | Total time for DFPT                         :      414.971 s         415.120 s
          | Total time first_order_DM                   :        0.292 s           0.292 s
          | Total time first_order_density              :       85.001 s          85.010 s
          | Total time first_order_potential            :       52.323 s          52.340 s
          | Total time first_order_H                    :      169.220 s         169.277 s
          | Total time solving of Sternheimer equations :        0.176 s           0.178 s
          | Total time for dielectric constant          :        0.000 s           0.000 s
          | Total time momentum matrix                  :        0.000 s           0.000 s

          GPU acceleration has been used for charge density update.
          GPU acceleration has been used for real-space Hamiltonian integration.
          Due to GPU usage, wall_clock(cpu1) will give a more reliable estimate for timings.

          Partial memory accounting:
          | Residual value for overall tracked memory usage across tasks:     0.000000 MB (should be 0.000000 MB)
          | Peak values for overall tracked memory usage:
          |   Minimum:      118.205 MB (on task  0 after allocating DFPT_pulay_mixing::pulay_mix::alphas)
          |   Maximum:      118.205 MB (on task  0 after allocating DFPT_pulay_mixing::pulay_mix::alphas)
          |   Average:      118.205 MB
          | Largest tracked array allocation:
          |   Minimum:       42.163 MB (DFPT_pulay_mixing::initialize_pulay_mixing::X_in_diffs on task  0)
          |   Maximum:       42.163 MB (DFPT_pulay_mixing::initialize_pulay_mixing::X_in_diffs on task  0)
          |   Average:       42.163 MB
          Note:  These values currently only include a subset of arrays which are explicitly tracked.
          The "true" memory usage will be greater.

          Have a nice day.
------------------------------------------------------------
