------------------------------------------------------------
          Invoking FHI-aims ...

          When using FHI-aims, please cite the following reference:

            Volker Blum, Ralf Gehrke, Felix Hanke, Paula Havu,
            Ville Havu, Xinguo Ren, Karsten Reuter, and Matthias Scheffler,
            'Ab Initio Molecular Simulations with Numeric Atom-Centered Orbitals',
            Computer Physics Communications 180, 2175-2196 (2009)

          In addition, many other developments in FHI-aims are likely important for
          your particular application. A partial list of references is given at the end of
          this file. Thank you for giving credit to the authors of these developments.

          For any questions about FHI-aims, please visit our slack channel at

            https://fhi-aims.slack.com

          and our main development and support site at

            https://aims-git.rz-berlin.mpg.de .

          The latter site, in particular, has a wiki to collect information, as well
          as an issue tracker to log discussions, suggest improvements, and report issues
          or bugs. https://aims-git.rz-berlin.mpg.de is also the main development site
          of the project and all new and updated code versions can be obtained there.
          Please send an email to aims-coordinators@fhi-berlin.mpg.de and we will add
          you to these sites. They are for you and everyone is welcome there.

------------------------------------------------------------



  Date     :  20230221, Time     :  150651.761
  Time zero on CPU 1             :   0.428913000000000E+00  s.
  Internal wall clock time zero  :           446224011.761  s.

  FHI-aims created a unique identifier for this run for later identification
  aims_uuid : A39CE813-FCE3-48E5-A5B7-36E45E364236

  Build configuration of the current instance of FHI-aims
  -------------------------------------------------------
  FHI-aims version      : 221103
  Commit number         : 42523251a
  CMake host system     : Linux-5.3.18-150300.59.68-default
  CMake version         : 3.17.0
  Fortran compiler      : /mpcdf/soft/SLE_15/packages/x86_64/intel_oneapi/2021.3/mpi/2021.3.0/bin/mpiifort (Intel) version 20.2.3.20210609
  Fortran compiler flags: -O3 -ip -fp-model precise
  C compiler            : /mpcdf/soft/SLE_15/packages/x86_64/intel/2021.3.0/bin/icc (Intel) version 20.2.3.20210609
  C compiler flags      : -O3 -ip -fp-model precise -std=gnu99
  CUDA compiler         : /mpcdf/soft/SLE_15/packages/x86_64/cuda/11.6.2/bin/nvcc
  CUDA compiler flags   : -O3 -DAdd_ -lcublas
  HIP compiler          :
  HIP compiler flags    :
  HIP GPU arch          :
  ELPA2 kernel          : AVX512
  Using MPI
  Using ScaLAPACK
  Using LibXC
  Using CUDA
  Using i-PI
  Using RLSY
  Linking against: /mpcdf/soft/SLE_15/packages/x86_64/cuda/11.6.2/lib64/libcublas.so
                   /mpcdf/soft/SLE_15/packages/x86_64/cuda/11.6.2/lib64/libcudart.so
                   /mpcdf/soft/SLE_15/packages/x86_64/intel_oneapi/2021.3/mkl/latest/lib/intel64/libmkl_intel_lp64.so
                   /mpcdf/soft/SLE_15/packages/x86_64/intel_oneapi/2021.3/mkl/latest/lib/intel64/libmkl_sequential.so
                   /mpcdf/soft/SLE_15/packages/x86_64/intel_oneapi/2021.3/mkl/latest/lib/intel64/libmkl_core.so
                   /mpcdf/soft/SLE_15/packages/x86_64/intel_oneapi/2021.3/mkl/latest/lib/intel64/libmkl_blacs_intelmpi_lp64.so
                   /mpcdf/soft/SLE_15/packages/x86_64/intel_oneapi/2021.3/mkl/latest/lib/intel64/libmkl_scalapack_lp64.so

  Using       18 parallel tasks.
  Task        0 on host adag039 reporting.
  Task        1 on host adag039 reporting.
  Task        2 on host adag039 reporting.
  Task        3 on host adag039 reporting.
  Task        4 on host adag039 reporting.
  Task        5 on host adag039 reporting.
  Task        6 on host adag039 reporting.
  Task        7 on host adag039 reporting.
  Task        8 on host adag039 reporting.
  Task        9 on host adag039 reporting.
  Task       10 on host adag039 reporting.
  Task       11 on host adag039 reporting.
  Task       12 on host adag039 reporting.
  Task       13 on host adag039 reporting.
  Task       14 on host adag039 reporting.
  Task       15 on host adag039 reporting.
  Task       16 on host adag039 reporting.
  Task       17 on host adag039 reporting.

  Obtaining array dimensions for all initial allocations:
  
  -----------------------------------------------------------------------
  Parsing control.in (first pass over file, find array dimensions only).
  The contents of control.in will be repeated verbatim below
  unless switched off by setting 'verbatim_writeout .false.' .
  in the first line of control.in .
  -----------------------------------------------------------------------
  
  #########################################################################################
  #
  #  Volker Blum, 2017 : Test run input file control.in for simple H2O
  #
  #########################################################################################
  #
  #  Physical model
  #
    xc                 pw-lda
    spin               none
    relativistic       none
    charge             0.
  
    use_gpu
  
    DFPT dielectric
    ri_density_restart write
    ri_rho1 write
  #  ri_density_restart read 0
  #  ri_rho1 read
    ri_full_output .true.
    sc_accuracy_rho    1d-6
  #  use_calculate_fock_matrix_old .false.
  #  wave_threshold 1e-8
    k_grid 1 1 1
  #  output cube eigenstate 160
  #  output cube eigenstate 161
    wave_threshold 1e-8
    default_prodbas_acc 1e-6
    default_max_l_prodbas 6
  #
  #  Relaxation
  #
  #  relax_geometry   bfgs 1.e-2
  #
  
  ################################################################################
  
  
  ################################################################################
  #
  #  FHI-aims code project
  #  VB, Fritz-Haber Institut, 2009
  #
  #  Suggested "light" defaults for H atom (to be pasted into control.in file)
  #  Be sure to double-check any results obtained with these settings for post-processing,
  #  e.g., with the "tight" defaults and larger basis sets.
  #
  ################################################################################
    species        H
  #     global species definitions
      nucleus             1
      mass                1.00794
  #
      l_hartree           4
  #
      cut_pot             3.5  1.5  1.0
      basis_dep_cutoff    1e-4
  #
      radial_base         24 5.0
      radial_multiplier   1
      angular_grids       specified
        division   0.2421   50
        division   0.3822  110
        division   0.4799  194
        division   0.5341  302
  #      division   0.5626  434
  #      division   0.5922  590
  #      division   0.6542  770
  #      division   0.6868 1202
  #      outer_grid  770
        outer_grid  302
  ################################################################################
  #
  #  Definition of "minimal" basis
  #
  ################################################################################
  #     valence basis states
      valence      1  s   1.
  #     ion occupancy
      ion_occ      1  s   0.5
  ################################################################################
  #
  #  Suggested additional basis functions. For production calculations,
  #  uncomment them one after another (the most important basis functions are
  #  listed first).
  #
  #  Basis constructed for dimers: 0.5 A, 0.7 A, 1.0 A, 1.5 A, 2.5 A
  #
  ################################################################################
  #  "First tier" - improvements: -1014.90 meV to -62.69 meV
       hydro 2 s 2.1
       hydro 2 p 3.5
  #  "Second tier" - improvements: -12.89 meV to -1.83 meV
  #     hydro 1 s 0.85
  #     hydro 2 p 3.7
  #     hydro 2 s 1.2
  #     hydro 3 d 7
  #  "Third tier" - improvements: -0.25 meV to -0.12 meV
  #     hydro 4 f 11.2
  #     hydro 3 p 4.8
  #     hydro 4 d 9
  #     hydro 3 s 3.2
  ################################################################################
  #
  #  FHI-aims code project
  #  VB, Fritz-Haber Institut, 2009
  #
  #  Suggested "light" defaults for O atom (to be pasted into control.in file)
  #  Be sure to double-check any results obtained with these settings for post-processing,
  #  e.g., with the "tight" defaults and larger basis sets.
  #
  ################################################################################
    species        O
  #     global species definitions
      nucleus             8
      mass                15.9994
  #
      l_hartree           4
  #
      cut_pot             3.5  1.5  1.0
      basis_dep_cutoff    1e-4
  #
      radial_base         36 5.0
      radial_multiplier   1
       angular_grids specified
        division   0.2659   50
        division   0.4451  110
        division   0.6052  194
        division   0.7543  302
  #      division   0.8014  434
  #      division   0.8507  590
  #      division   0.8762  770
  #      division   0.9023  974
  #      division   1.2339 1202
  #      outer_grid 974
        outer_grid 302
  ################################################################################
  #
  #  Definition of "minimal" basis
  #
  ################################################################################
  #     valence basis states
      valence      2  s   2.
      valence      2  p   4.
  #     ion occupancy
      ion_occ      2  s   1.
      ion_occ      2  p   3.
  ################################################################################
  #
  #  Suggested additional basis functions. For production calculations,
  #  uncomment them one after another (the most important basis functions are
  #  listed first).
  #
  #  Constructed for dimers: 1.0 A, 1.208 A, 1.5 A, 2.0 A, 3.0 A
  #
  ################################################################################
  #  "First tier" - improvements: -699.05 meV to -159.38 meV
       hydro 2 p 1.8
       hydro 3 d 7.6
       hydro 3 s 6.4
  #  "Second tier" - improvements: -49.91 meV to -5.39 meV
  #     hydro 4 f 11.6
  #     hydro 3 p 6.2
  #     hydro 3 d 5.6
  #     hydro 5 g 17.6
  #     hydro 1 s 0.75
  #  "Third tier" - improvements: -2.83 meV to -0.50 meV
  #     ionic 2 p auto
  #     hydro 4 f 10.8
  #     hydro 4 d 4.7
  #     hydro 2 s 6.8
  #  "Fourth tier" - improvements: -0.40 meV to -0.12 meV
  #     hydro 3 p 5
  #     hydro 3 s 3.3
  #     hydro 5 g 15.6
  #     hydro 4 f 17.6
  #     hydro 4 d 14
  # Further basis functions - -0.08 meV and below
  #     hydro 3 s 2.1
  #     hydro 4 d 11.6
  #     hydro 3 p 16
  #     hydro 2 s 17.2
  
  -----------------------------------------------------------------------
  Completed first pass over input file control.in .
  -----------------------------------------------------------------------
  
  
  -----------------------------------------------------------------------
  Parsing geometry.in (first pass over file, find array dimensions only).
  The contents of geometry.in will be repeated verbatim below
  unless switched off by setting 'verbatim_writeout .false.' .
  in the first line of geometry.in .
  -----------------------------------------------------------------------
  
  #=======================================================
  # FHI-aims file: /ada/ptmp/mpsd/alewis/bulk_water/qmdata/data/geoms/227.in
  # Created using the Atomic Simulation Environment (ASE)
  # Tue Feb 21 11:23:37 2023
  #=======================================================
  lattice_vector 9.9808800000000009 0.0000000000000000 0.0000000000000000
  lattice_vector 0.0000000000000000 9.9808800000000009 0.0000000000000000
  lattice_vector 0.0000000000000000 0.0000000000000000 9.9808800000000009
  atom 6.3013800000000000 3.9342899999999998 -12.0099000000000000 O
  atom 6.4372299999999996 4.8278200000000000 -12.4057999999999993 H
  atom 5.4602899999999996 3.8589699999999998 -11.9642999999999997 H
  atom 23.5458999999999996 22.9762999999999984 -2.6535000000000002 O
  atom 23.0377000000000010 23.7548999999999992 -2.9034000000000000 H
  atom 23.3192999999999984 22.7810999999999986 -1.7438600000000000 H
  atom 11.7492999999999999 -10.7052999999999994 7.8540299999999998 O
  atom 11.1615000000000002 -11.4510000000000005 8.0661600000000000 H
  atom 11.4916000000000000 -10.2781000000000002 8.6270399999999992 H
  atom -0.0094990000000000 -3.2042899999999999 2.7070400000000001 O
  atom 0.1985720000000000 -3.4827499999999998 3.6572200000000001 H
  atom -0.8533460000000000 -3.5667000000000000 2.5742099999999999 H
  atom -6.8996199999999996 2.7148400000000001 14.2806999999999995 O
  atom -7.7417800000000003 2.2542900000000001 14.5033999999999992 H
  atom -6.0541499999999999 2.3065000000000002 14.6624999999999996 H
  atom -0.4678000000000000 -7.9667399999999997 10.3268000000000004 O
  atom -1.0659099999999999 -8.1336600000000008 10.9212000000000007 H
  atom 0.3978190000000000 -8.1825899999999994 10.6922999999999995 H
  atom 3.4501300000000001 8.2059499999999996 13.9609000000000005 O
  atom 2.6568000000000001 8.7362199999999994 14.0601000000000003 H
  atom 3.0364499999999999 7.2755299999999998 14.2512000000000008 H
  atom 15.6844999999999999 -4.4370300000000000 10.3277999999999999 O
  atom 15.7362000000000002 -5.5109800000000000 10.3260000000000005 H
  atom 15.9398999999999997 -4.0722300000000002 9.4847000000000001 H
  atom -6.5022300000000000 -6.9031300000000000 -19.8386999999999993 O
  atom -7.1781199999999998 -6.1167199999999999 -19.8243000000000009 H
  atom -7.1535700000000002 -7.4894299999999996 -19.2825999999999986 H
  atom 9.0584399999999992 -2.4329999999999998 -0.0451560000000000 O
  atom 8.6031600000000008 -1.5484000000000000 -0.0009750000000000 H
  atom 8.3435600000000001 -2.8862000000000001 0.5118140000000000 H
  atom 3.2671299999999999 15.4304000000000006 -15.8750999999999998 O
  atom 2.9893200000000002 14.5393000000000008 -16.2478000000000016 H
  atom 2.8638699999999999 15.3767999999999994 -14.8948999999999998 H
  atom -23.9390999999999998 -4.4912999999999998 14.7929999999999993 O
  atom -24.0500000000000007 -5.4388899999999998 14.7622999999999998 H
  atom -24.8155000000000001 -3.9708999999999999 14.4521999999999995 H
  atom 11.9473000000000003 5.5259900000000002 11.2220999999999993 O
  atom 11.3463999999999992 5.9055799999999996 11.8186999999999998 H
  atom 12.6300000000000008 5.5792700000000002 12.0853000000000002 H
  atom -2.7378999999999998 -3.8171300000000001 2.5108500000000000 O
  atom -3.0219299999999998 -4.2737600000000002 3.4888499999999998 H
  atom -3.4511099999999999 -4.2648299999999999 2.0042499999999999 H
  atom -17.2698999999999998 -4.2953599999999996 -13.0349000000000004 O
  atom -18.0915999999999997 -4.0234399999999999 -12.7901000000000007 H
  atom -16.5994999999999990 -3.7036300000000000 -12.6963000000000008 H
  atom 8.5968000000000000 22.1164999999999985 -2.3682799999999999 O
  atom 7.8194100000000004 22.4555000000000007 -2.4422999999999999 H
  atom 9.0855099999999993 22.3274000000000008 -1.5656900000000000 H
  atom -11.8112999999999992 9.2351399999999995 5.5055899999999998 O
  atom -12.3535000000000004 10.0809999999999995 5.8257199999999996 H
  atom -12.2241999999999997 8.4715399999999992 5.7870299999999997 H
  atom 4.1615799999999998 -2.0539299999999998 6.9382700000000002 O
  atom 4.1284999999999998 -1.7291500000000000 6.1738900000000001 H
  atom 3.3407700000000000 -1.4590900000000000 7.3619700000000003 H
  atom 28.5960000000000001 5.6549800000000001 15.4494000000000007 O
  atom 28.8100999999999985 4.7922099999999999 15.4404000000000003 H
  atom 27.6441000000000017 5.4834300000000002 15.1496999999999993 H
  atom -32.3194000000000017 19.7411999999999992 -0.9814020000000000 O
  atom -31.9383000000000017 20.3656000000000006 -1.6426600000000000 H
  atom -33.0459000000000032 20.0271000000000008 -0.6370320000000000 H
  atom -7.6217899999999998 1.2593700000000001 11.6611999999999991 O
  atom -7.6755300000000002 1.4033899999999999 12.5627999999999993 H
  atom -7.8092100000000002 0.3348740000000000 11.3985000000000003 H
  atom 1.6591800000000001 20.1339000000000006 14.5542999999999996 O
  atom 0.9678530000000000 20.2381999999999991 14.0435999999999996 H
  atom 1.4295300000000000 20.1051000000000002 15.5396000000000001 H
  atom 5.5411799999999998 10.5061000000000000 -9.6016800000000000 O
  atom 4.8423600000000002 9.7432599999999994 -9.5309299999999997 H
  atom 5.1697199999999999 11.1242000000000001 -9.0851400000000009 H
  atom 0.3193570000000000 6.6776200000000001 17.3871000000000002 O
  atom -0.3194420000000000 6.7087100000000000 18.2044999999999995 H
  atom -0.1928710000000000 6.4754399999999999 16.6896999999999984 H
  atom -5.4921600000000002 -1.8549899999999999 1.3864700000000001 O
  atom -5.3682100000000004 -2.8454500000000000 1.0118600000000000 H
  atom -5.8095800000000004 -1.8312999999999999 2.2393000000000001 H
  atom 15.5969999999999995 -18.9505000000000017 6.4485000000000001 O
  atom 15.3514999999999997 -19.6307000000000009 6.9745699999999999 H
  atom 15.0495000000000001 -18.2989999999999995 6.7047299999999996 H
  atom 16.3393000000000015 22.7122999999999990 24.4520000000000017 O
  atom 16.3480999999999987 22.2912999999999997 23.5334000000000003 H
  atom 16.0025000000000013 22.1448000000000000 25.0339999999999989 H
  atom 21.5975000000000001 8.7709899999999994 30.5858999999999988 O
  atom 22.4232000000000014 8.4190299999999993 30.6599000000000004 H
  atom 21.2252000000000010 7.9909600000000003 30.5081999999999987 H
  atom 9.6133699999999997 2.6619799999999998 4.9848600000000003 O
  atom 9.3883100000000006 2.1596600000000001 5.7858799999999997 H
  atom 8.7318300000000004 2.6049199999999999 4.6441600000000003 H
  atom -22.6769999999999996 11.1911000000000005 -7.6222099999999999 O
  atom -23.2885999999999989 10.5389999999999997 -8.1997599999999995 H
  atom -21.8201999999999998 10.6668000000000003 -7.4991199999999996 H
  atom 19.3603999999999985 9.7305200000000003 -7.0896999999999997 O
  atom 19.0139999999999993 8.8535500000000003 -7.5944700000000003 H
  atom 18.6145999999999994 9.7477999999999998 -6.3879099999999998 H
  atom 16.2746999999999993 7.2225900000000003 8.1470900000000004 O
  atom 16.8337000000000003 7.9657999999999998 8.2990499999999994 H
  atom 15.3928999999999991 7.6441600000000003 7.6702199999999996 H
  
  -----------------------------------------------------------------------
  Completed first pass over input file geometry.in .
  -----------------------------------------------------------------------
  

  Basic array size parameters:
  | Number of species                 :        2
  | Number of atoms                   :       96
  | Number of lattice vectors         :        3
  | Max. basis fn. angular momentum   :        2
  | Max. atomic/ionic basis occupied n:        2
  | Max. number of basis fn. types    :        2
  | Max. radial fns per species/type  :        3
  | Max. logarithmic grid size        :     1301
  | Max. radial integration grid size :       36
  | Max. angular integration grid size:      302
  | Max. angular grid division number :        8
  | Radial grid for Hartree potential :     1301
  | Number of spin channels           :        1

------------------------------------------------------------
          Reading file control.in.
------------------------------------------------------------
  XC: Using Perdew-Wang parametrisation of Ceperley-Alder LDA.
  Spin treatment: No spin polarisation.
  Non-relativistic treatment of kinetic energy.
  Charge =   0.000000E+00: Neutral system requested explicitly.
  DFPT calculation will begin after the DFT/HF calculation.
  Convergence accuracy of self-consistent charge density:  0.1000E-05
  Found k-point grid:         1         1         1
  Threshold value for wave function integration:  0.1000E-07
 
  Reading configuration options for species H                   .
  | Found nuclear charge :   1.0000
  | Found atomic mass :    1.00794000000000      amu
  | Found l_max for Hartree potential  :   4
  | Found cutoff potl. onset [A], width [A], scale factor :    3.50000    1.50000    1.00000
  | Threshold for basis-dependent cutoff potential is   0.100000E-03
  | Found data for basic radial integration grid :    24 points, outermost radius =    5.000 A
  | Found multiplier for basic radial grid :   1
  | Found angular grid specification: user-specified.
  | Specified grid contains     5 separate shells.
  | Check grid settings after all constraints further below.
  | Found free-atom valence shell :  1 s   1.000
  | No ionic wave fns used. Skipping ion_occ.
  | Found hydrogenic basis function :  2 s   2.100
  | Found hydrogenic basis function :  2 p   3.500
  Species H                   : Missing cutoff potential type.
  Defaulting to exp(1/x)/(1-x)^2 type cutoff potential.
  Species H : No 'logarithmic' tag. Using default grid for free atom:
  | Default logarithmic grid data [bohr] : 0.1000E-03 0.1000E+03 0.1012E+01
  Species H : On-site basis accuracy parameter (for Gram-Schmidt orthonormalisation) not specified.
  Using default value basis_acc =  0.1000000E-03.
  Species H                   : Using default innermost maximum threshold i_radial=  2 for radial functions.
  Species H                   : Default cutoff onset for free atom density etc. : 0.35000000E+01 AA.
  Species H                   : Basic radial grid will be enhanced according to radial_multiplier =   1, to contain    24 grid points.
 
  Reading configuration options for species O                   .
  | Found nuclear charge :   8.0000
  | Found atomic mass :    15.9994000000000      amu
  | Found l_max for Hartree potential  :   4
  | Found cutoff potl. onset [A], width [A], scale factor :    3.50000    1.50000    1.00000
  | Threshold for basis-dependent cutoff potential is   0.100000E-03
  | Found data for basic radial integration grid :    36 points, outermost radius =    5.000 A
  | Found multiplier for basic radial grid :   1
  | Found angular grid specification: user-specified.
  | Specified grid contains     5 separate shells.
  | Check grid settings after all constraints further below.
  | Found free-atom valence shell :  2 s   2.000
  | Found free-atom valence shell :  2 p   4.000
  | No ionic wave fns used. Skipping ion_occ.
  | No ionic wave fns used. Skipping ion_occ.
  | Found hydrogenic basis function :  2 p   1.800
  | Found hydrogenic basis function :  3 d   7.600
  | Found hydrogenic basis function :  3 s   6.400
  Species O                   : Missing cutoff potential type.
  Defaulting to exp(1/x)/(1-x)^2 type cutoff potential.
  Species O : No 'logarithmic' tag. Using default grid for free atom:
  | Default logarithmic grid data [bohr] : 0.1000E-03 0.1000E+03 0.1012E+01
  Species O : On-site basis accuracy parameter (for Gram-Schmidt orthonormalisation) not specified.
  Using default value basis_acc =  0.1000000E-03.
  Species O                   : Using default innermost maximum threshold i_radial=  2 for radial functions.
  Species O                   : Default cutoff onset for free atom density etc. : 0.35000000E+01 AA.
  Species O                   : Basic radial grid will be enhanced according to radial_multiplier =   1, to contain    36 grid points.
 
  Finished reading input file 'control.in'.
 
------------------------------------------------------------


------------------------------------------------------------
          Reading geometry description geometry.in.
------------------------------------------------------------
  | The smallest distance between any two atoms is         0.83117575 AA.
  | The first atom of this pair is atom number                     52 .
  | The second atom of this pair is atom number                    53 .
  | Wigner-Seitz cell of the first atom image           0     0     0 .
  | (The Wigner-Seitz cell of the second atom is 0 0 0  by definition.)

  Symmetry information by spglib:
  | Precision set to  0.1E-04
  | Number of Operations  : 1
  | Space group           : 1
  | International         : P1
  | Schoenflies           : C1^1
  Input structure read successfully.
  The structure contains       96 atoms,  and a total of        320.000 electrons.

  Input geometry:
  | Unit cell:
  |        9.98088000        0.00000000        0.00000000
  |        0.00000000        9.98088000        0.00000000
  |        0.00000000        0.00000000        9.98088000
  | Atomic structure:
  |       Atom                x [A]            y [A]            z [A]
  |    1: Species O             6.30138000        3.93429000      -12.00990000
  |    2: Species H             6.43723000        4.82782000      -12.40580000
  |    3: Species H             5.46029000        3.85897000      -11.96430000
  |    4: Species O            23.54590000       22.97630000       -2.65350000
  |    5: Species H            23.03770000       23.75490000       -2.90340000
  |    6: Species H            23.31930000       22.78110000       -1.74386000
  |    7: Species O            11.74930000      -10.70530000        7.85403000
  |    8: Species H            11.16150000      -11.45100000        8.06616000
  |    9: Species H            11.49160000      -10.27810000        8.62704000
  |   10: Species O            -0.00949900       -3.20429000        2.70704000
  |   11: Species H             0.19857200       -3.48275000        3.65722000
  |   12: Species H            -0.85334600       -3.56670000        2.57421000
  |   13: Species O            -6.89962000        2.71484000       14.28070000
  |   14: Species H            -7.74178000        2.25429000       14.50340000
  |   15: Species H            -6.05415000        2.30650000       14.66250000
  |   16: Species O            -0.46780000       -7.96674000       10.32680000
  |   17: Species H            -1.06591000       -8.13366000       10.92120000
  |   18: Species H             0.39781900       -8.18259000       10.69230000
  |   19: Species O             3.45013000        8.20595000       13.96090000
  |   20: Species H             2.65680000        8.73622000       14.06010000
  |   21: Species H             3.03645000        7.27553000       14.25120000
  |   22: Species O            15.68450000       -4.43703000       10.32780000
  |   23: Species H            15.73620000       -5.51098000       10.32600000
  |   24: Species H            15.93990000       -4.07223000        9.48470000
  |   25: Species O            -6.50223000       -6.90313000      -19.83870000
  |   26: Species H            -7.17812000       -6.11672000      -19.82430000
  |   27: Species H            -7.15357000       -7.48943000      -19.28260000
  |   28: Species O             9.05844000       -2.43300000       -0.04515600
  |   29: Species H             8.60316000       -1.54840000       -0.00097500
  |   30: Species H             8.34356000       -2.88620000        0.51181400
  |   31: Species O             3.26713000       15.43040000      -15.87510000
  |   32: Species H             2.98932000       14.53930000      -16.24780000
  |   33: Species H             2.86387000       15.37680000      -14.89490000
  |   34: Species O           -23.93910000       -4.49130000       14.79300000
  |   35: Species H           -24.05000000       -5.43889000       14.76230000
  |   36: Species H           -24.81550000       -3.97090000       14.45220000
  |   37: Species O            11.94730000        5.52599000       11.22210000
  |   38: Species H            11.34640000        5.90558000       11.81870000
  |   39: Species H            12.63000000        5.57927000       12.08530000
  |   40: Species O            -2.73790000       -3.81713000        2.51085000
  |   41: Species H            -3.02193000       -4.27376000        3.48885000
  |   42: Species H            -3.45111000       -4.26483000        2.00425000
  |   43: Species O           -17.26990000       -4.29536000      -13.03490000
  |   44: Species H           -18.09160000       -4.02344000      -12.79010000
  |   45: Species H           -16.59950000       -3.70363000      -12.69630000
  |   46: Species O             8.59680000       22.11650000       -2.36828000
  |   47: Species H             7.81941000       22.45550000       -2.44230000
  |   48: Species H             9.08551000       22.32740000       -1.56569000
  |   49: Species O           -11.81130000        9.23514000        5.50559000
  |   50: Species H           -12.35350000       10.08100000        5.82572000
  |   51: Species H           -12.22420000        8.47154000        5.78703000
  |   52: Species O             4.16158000       -2.05393000        6.93827000
  |   53: Species H             4.12850000       -1.72915000        6.17389000
  |   54: Species H             3.34077000       -1.45909000        7.36197000
  |   55: Species O            28.59600000        5.65498000       15.44940000
  |   56: Species H            28.81010000        4.79221000       15.44040000
  |   57: Species H            27.64410000        5.48343000       15.14970000
  |   58: Species O           -32.31940000       19.74120000       -0.98140200
  |   59: Species H           -31.93830000       20.36560000       -1.64266000
  |   60: Species H           -33.04590000       20.02710000       -0.63703200
  |   61: Species O            -7.62179000        1.25937000       11.66120000
  |   62: Species H            -7.67553000        1.40339000       12.56280000
  |   63: Species H            -7.80921000        0.33487400       11.39850000
  |   64: Species O             1.65918000       20.13390000       14.55430000
  |   65: Species H             0.96785300       20.23820000       14.04360000
  |   66: Species H             1.42953000       20.10510000       15.53960000
  |   67: Species O             5.54118000       10.50610000       -9.60168000
  |   68: Species H             4.84236000        9.74326000       -9.53093000
  |   69: Species H             5.16972000       11.12420000       -9.08514000
  |   70: Species O             0.31935700        6.67762000       17.38710000
  |   71: Species H            -0.31944200        6.70871000       18.20450000
  |   72: Species H            -0.19287100        6.47544000       16.68970000
  |   73: Species O            -5.49216000       -1.85499000        1.38647000
  |   74: Species H            -5.36821000       -2.84545000        1.01186000
  |   75: Species H            -5.80958000       -1.83130000        2.23930000
  |   76: Species O            15.59700000      -18.95050000        6.44850000
  |   77: Species H            15.35150000      -19.63070000        6.97457000
  |   78: Species H            15.04950000      -18.29900000        6.70473000
  |   79: Species O            16.33930000       22.71230000       24.45200000
  |   80: Species H            16.34810000       22.29130000       23.53340000
  |   81: Species H            16.00250000       22.14480000       25.03400000
  |   82: Species O            21.59750000        8.77099000       30.58590000
  |   83: Species H            22.42320000        8.41903000       30.65990000
  |   84: Species H            21.22520000        7.99096000       30.50820000
  |   85: Species O             9.61337000        2.66198000        4.98486000
  |   86: Species H             9.38831000        2.15966000        5.78588000
  |   87: Species H             8.73183000        2.60492000        4.64416000
  |   88: Species O           -22.67700000       11.19110000       -7.62221000
  |   89: Species H           -23.28860000       10.53900000       -8.19976000
  |   90: Species H           -21.82020000       10.66680000       -7.49912000
  |   91: Species O            19.36040000        9.73052000       -7.08970000
  |   92: Species H            19.01400000        8.85355000       -7.59447000
  |   93: Species H            18.61460000        9.74780000       -6.38791000
  |   94: Species O            16.27470000        7.22259000        8.14709000
  |   95: Species H            16.83370000        7.96580000        8.29905000
  |   96: Species H            15.39290000        7.64416000        7.67022000

  Lattice parameters for 3D lattice (in Angstroms) :     9.980880    9.980880    9.980880
  Angle(s) between unit vectors (in degrees)       :    90.000000   90.000000   90.000000


  Quantities derived from the lattice vectors (in Angstrom^-1):
  | Reciprocal lattice vector 1:  0.629522  0.000000  0.000000
  | Reciprocal lattice vector 2:  0.000000  0.629522  0.000000
  | Reciprocal lattice vector 3:  0.000000  0.000000  0.629522
  | Unit cell volume                               :   0.994275E+03  Angstrom^3

  Fractional coordinates:
                         L1                L2                L3
       atom_frac         0.63134513        0.39418268       -1.20329069  O
       atom_frac         0.64495616        0.48370685       -1.24295653  H
       atom_frac         0.54707501        0.38663625       -1.19872196  H
       atom_frac         2.35910060        2.30203148       -0.26585832  O
       atom_frac         2.30818325        2.38004064       -0.29089619  H
       atom_frac         2.33639719        2.28247409       -0.17472006  H
       atom_frac         1.17718077       -1.07258077        0.78690757  O
       atom_frac         1.11828817       -1.14729363        0.80816120  H
       atom_frac         1.15136140       -1.02977894        0.86435665  H
       atom_frac        -0.00095172       -0.32104283        0.27122258  O
       atom_frac         0.01989524       -0.34894218        0.36642260  H
       atom_frac        -0.08549807       -0.35735326        0.25791413  H
       atom_frac        -0.69128373        0.27200407        1.43080570  O
       atom_frac        -0.77566106        0.22586085        1.45311836  H
       atom_frac        -0.60657477        0.23109185        1.46905884  H
       atom_frac        -0.04686961       -0.79820016        1.03465827  O
       atom_frac        -0.10679519       -0.81492413        1.09421213  H
       atom_frac         0.03985811       -0.81982651        1.07127828  H
       atom_frac         0.34567393        0.82216698        1.39876444  O
       atom_frac         0.26618895        0.87529557        1.40870344  H
       atom_frac         0.30422668        0.72894675        1.42785005  H
       atom_frac         1.57145462       -0.44455299        1.03475846  O
       atom_frac         1.57663453       -0.55215372        1.03457811  H
       atom_frac         1.59704355       -0.40800310        0.95028695  H
       atom_frac        -0.65146861       -0.69163541       -1.98767043  O
       atom_frac        -0.71918709       -0.61284376       -1.98622767  H
       atom_frac        -0.71672738       -0.75037772       -1.93195390  H
       atom_frac         0.90757929       -0.24376608       -0.00452425  O
       atom_frac         0.86196408       -0.15513662       -0.00009769  H
       atom_frac         0.83595434       -0.28917290        0.05127945  H
       atom_frac         0.32733887        1.54599594       -1.59055113  O
       atom_frac         0.29950465        1.45671524       -1.62789253  H
       atom_frac         0.28693562        1.54062568       -1.49234336  H
       atom_frac        -2.39849592       -0.44999038        1.48213384  O
       atom_frac        -2.40960717       -0.54493091        1.47905796  H
       atom_frac        -2.48630381       -0.39785069        1.44798855  H
       atom_frac         1.19701870        0.55365759        1.12435978  O
       atom_frac         1.13681359        0.59168931        1.18413406  H
       atom_frac         1.26541948        0.55899580        1.21084514  H
       atom_frac        -0.27431449       -0.38244423        0.25156599  O
       atom_frac        -0.30277190       -0.42819471        0.34955335  H
       atom_frac        -0.34577212       -0.42730000        0.20080895  H
       atom_frac        -1.73029833       -0.43035885       -1.30598705  O
       atom_frac        -1.81262574       -0.40311476       -1.28146015  H
       atom_frac        -1.66312990       -0.37107249       -1.27206218  H
       atom_frac         0.86132686        2.21588678       -0.23728168  O
       atom_frac         0.78343894        2.24985172       -0.24469786  H
       atom_frac         0.91029148        2.23701718       -0.15686893  H
       atom_frac        -1.18339265        0.92528314        0.55161369  O
       atom_frac        -1.23771651        1.01003118        0.58368801  H
       atom_frac        -1.22476174        0.84877686        0.57981160  H
       atom_frac         0.41695522       -0.20578646        0.69515614  O
       atom_frac         0.41364088       -0.17324625        0.61857171  H
       atom_frac         0.33471698       -0.14618851        0.73760731  H
       atom_frac         2.86507803        0.56658130        1.54789958  O
       atom_frac         2.88652904        0.48013903        1.54699786  H
       atom_frac         2.76970568        0.54939344        1.51787217  H
       atom_frac        -3.23813131        1.97790175       -0.09832820  O
       atom_frac        -3.19994830        2.04046136       -0.16458068  H
       atom_frac        -3.31092048        2.00654652       -0.06382523  H
       atom_frac        -0.76363908        0.12617825        1.16835389  O
       atom_frac        -0.76902337        0.14060784        1.25868661  H
       atom_frac        -0.78241698        0.03355155        1.14203357  H
       atom_frac         0.16623584        2.01724698        1.45821811  O
       atom_frac         0.09697071        2.02769696        1.40705028  H
       atom_frac         0.14322685        2.01436146        1.55693686  H
       atom_frac         0.55517950        1.05262261       -0.96200736  O
       atom_frac         0.48516363        0.97619248       -0.95491880  H
       atom_frac         0.51796234        1.11455102       -0.91025441  H
       atom_frac         0.03199688        0.66904121        1.74204078  O
       atom_frac        -0.03200539        0.67215616        1.82393737  H
       atom_frac        -0.01932405        0.64878448        1.67216718  H
       atom_frac        -0.55026811       -0.18585435        0.13891260  O
       atom_frac        -0.53784937       -0.28509009        0.10137984  H
       atom_frac        -0.58207092       -0.18348082        0.22435897  H
       atom_frac         1.56268786       -1.89868028        0.64608532  O
       atom_frac         1.53809083       -1.96683058        0.69879309  H
       atom_frac         1.50783298       -1.83340547        0.67175740  H
       atom_frac         1.63706006        2.27558091        2.44988418  O
       atom_frac         1.63794174        2.23340026        2.35784821  H
       atom_frac         1.60331554        2.21872220        2.50819567  H
       atom_frac         2.16388735        0.87877923        3.06444923  O
       atom_frac         2.24661553        0.84351580        3.07186340  H
       atom_frac         2.12658603        0.80062680        3.05666434  H
       atom_frac         0.96317860        0.26670795        0.49944093  O
       atom_frac         0.94062948        0.21637972        0.57969638  H
       atom_frac         0.87485572        0.26099101        0.46530566  H
       atom_frac        -2.27204415        1.12125384       -0.76368116  O
       atom_frac        -2.33332131        1.05591892       -0.82154680  H
       atom_frac        -2.18620001        1.06872340       -0.75134858  H
       atom_frac         1.93974880        0.97491604       -0.71032815  O
       atom_frac         1.90504244        0.88705104       -0.76090184  H
       atom_frac         1.86502593        0.97664735       -0.64001471  H
       atom_frac         1.63058768        0.72364260        0.81626971  O
       atom_frac         1.68659477        0.79810598        0.83149482  H
       atom_frac         1.54223876        0.76588036        0.76849136  H

 
  Finished reading input file 'geometry.in'.
 

 
  Consistency checks for stacksize environment parameter are next.
 
  | Maximum stacksize for task 0: unlimited
  | Maximum stacksize for task 1: unlimited
  | Maximum stacksize for task 2: unlimited
  | Maximum stacksize for task 3: unlimited
  | Maximum stacksize for task 4: unlimited
  | Maximum stacksize for task 5: unlimited
  | Maximum stacksize for task 6: unlimited
  | Maximum stacksize for task 7: unlimited
  | Maximum stacksize for task 8: unlimited
  | Maximum stacksize for task 9: unlimited
  | Maximum stacksize for task 10: unlimited
  | Maximum stacksize for task 11: unlimited
  | Maximum stacksize for task 12: unlimited
  | Maximum stacksize for task 13: unlimited
  | Maximum stacksize for task 14: unlimited
  | Maximum stacksize for task 15: unlimited
  | Maximum stacksize for task 16: unlimited
  | Maximum stacksize for task 17: unlimited
  | Current stacksize for task 0: unlimited
  | Current stacksize for task 1: unlimited
  | Current stacksize for task 2: unlimited
  | Current stacksize for task 3: unlimited
  | Current stacksize for task 4: unlimited
  | Current stacksize for task 5: unlimited
  | Current stacksize for task 6: unlimited
  | Current stacksize for task 7: unlimited
  | Current stacksize for task 8: unlimited
  | Current stacksize for task 9: unlimited
  | Current stacksize for task 10: unlimited
  | Current stacksize for task 11: unlimited
  | Current stacksize for task 12: unlimited
  | Current stacksize for task 13: unlimited
  | Current stacksize for task 14: unlimited
  | Current stacksize for task 15: unlimited
  | Current stacksize for task 16: unlimited
  | Current stacksize for task 17: unlimited
 
  Consistency checks for the contents of control.in are next.
 
  MPI_IN_PLACE appears to work with this MPI implementation.
  | Keeping use_mpi_in_place .true. (see manual).
  Explicit treatment of the Coulomb operator is needed, but the RI method is not specified.
  Coulomb operator: Defaulting to 'LVL fast' resolution of identity - RI_type = LVL_fast
  Species H: Using default value for prodbas_acc =   1.000000E-06.
  Species H: Using default value max_l_prodbas =     6.
  Species O: Using default value for prodbas_acc =   1.000000E-06.
  Species O: Using default value max_l_prodbas =     6.
  Target number of points in a grid batch is not set.  Since GPU acceleration is enabled, defaulting to  200
  Method for grid partitioning is not set. Defaulting to parallel hash+maxmin partitioning.
  Batch size limit is not set. Defaulting to    200
  By default, will store active basis functions for each batch.
  If in need of memory, prune_basis_once .false. can be used to disable this option.
  communication_type for Hartree potential was not specified.
  Defaulting to calc_hartree .
  Defaulting to Pulay charge density mixer.
  Pulay mixer: Number of relevant iterations not set.
  Defaulting to    8 iterations.
  Pulay mixer: Number of initial linear mixing iterations not set.
  Defaulting to    0 iterations.
  Work space size for distributed Hartree potential not set.
  Defaulting to   0.200000E+03 MB.
  Mixing parameter for charge density mixing has not been set.
  Using default: charge_mix_param =     0.0500.
  The mixing parameter will be adjusted in iteration number     2 of the first full s.c.f. cycle only.
  Algorithm-dependent basis array size parameters:
  | n_max_pulay                         :        8
  Maximum number of self-consistency iterations not provided.
  Presetting  1000 iterations.
  Presetting      1001 iterations before the initial mixing cycle
  is restarted anyway using the sc_init_iter criterion / keyword.
  Presetting a factor      1.000 between actual scf density residual
  and density convergence criterion sc_accuracy_rho below which sc_init_iter
  takes no effect.
  Calculation of forces was not defined in control.in. No forces will be calculated.
  Geometry relaxation not requested: no relaxation will be performed.
  No accuracy limit for integral partition fn. given. Defaulting to  0.1000E-14.
  No occupation type (smearing scheme) given. Defaulting to Gaussian broadening, width =  0.1000E-01 eV.
  The width will be adjusted in iteration number     2 of the first full s.c.f. cycle only.
  S.C.F. convergence parameters will be adjusted in iteration number     2 of the first full s.c.f. cycle only.
  No accuracy for occupation numbers given. Defaulting to  0.1000E-12.
  No threshold value for occupation numbers given. Defaulting to  0.0000E+00.
  No accuracy for fermi level given. Defaulting to  0.1000E-19.
  Maximum # of iterations to find E_F not set. Defaulting to  200.
  Preferred method for the eigenvalue solver ('KS_method') not specified in 'control.in'.
  Calling BLACS routine to test compilation state
  Since ScaLAPACK support is enabled, defaulting to ELPA (via ELSI).
  Will not use alltoall communication since running on < 1024 CPUs.
  Threshold for basis singularities not set.
  Default threshold for basis singularities:  0.1000E-04
  partition_type (choice of integration weights) for integrals was not specified.
  | Using a version of the partition function of Stratmann and coworkers ('stratmann_sparse').
  | At each grid point, the set of atoms used to build the partition table is smoothly restricted to
  | only those atoms whose free-atom density would be non-zero at that grid point.
  Partitioning for Hartree potential was not defined. Using partition_type for integrals.
  | Adjusted default value of keyword multip_moments_threshold to:       0.10000000E-11
  | This value may affect high angular momentum components of the Hartree potential in periodic systems.
  Angular momentum expansion for Kerker preconditioner not set explicitly.
  | Using default value of   0
  No explicit requirement for turning off preconditioner.
  | By default, it will be turned off when the charge convergence reaches
  | sc_accuracy_rho  =   0.100000E-05
  No special mixing parameter while Kerker preconditioner is on.
  Using default: charge_mix_param =     0.0500.
  Threshold for auxiliary basis singularities not set.
  Default threshold for auxiliary basis singularities:  0.1000E-04
  No q(lm)/r^(l+1) cutoff set for long-range Hartree potential.
  | Using default value of  0.100000E-09 .
  | Verify using the multipole_threshold keyword.
  Defaulting to new monopole extrapolation.
  Density update method: automatic selection selected.
  Using density matrix based charge density update.
  Using density matrix based charge density update.
  Using packed matrix style: index .
  Defaulting to use time-reversal symmetry for k-point grid.
  Charge integration errors on the 3D integration grid will be compensated
  by explicit normalization and distribution of residual charges.
  Use the "compensate_multipole_errors" flag to change this behaviour.
  Default to 1D ("use_logsbt") integrations for auxiliary 2-center integrals.
  Default onset of logarithmic r-grid for SBT is -38.000000000000
  Default onset of logarithmic k-grid for SBT is -25.000000000000
  Default range of logarithmic r- and k-grid for SBT is  45.000000000000
  Default number of logarithmic r- and k-grid for SBT is   4096
  Default of use_2d_corr is to use the efficient 2D distribution where possible
 
  Consistency checks for the contents of geometry.in are next.
 

  Range separation radius for Ewald summation (hartree_convergence_parameter):      3.01901960 bohr.
  Number of empty states per atom not set in control.in .
  | Since you are using a method that relies on the unoccupied spectrum
  | (MP2,GW,RPA et al.), will use the full Hamiltonian size (see below)
  | as the max. possible number of states (occupied plus empty).

  Structure-dependent array size parameters: 
  | Maximum number of distinct radial functions  :        9
  | Maximum number of basis functions            :      768
  | Number of Kohn-Sham states (occupied + empty):      768
------------------------------------------------------------

  Performing system and environment tests:
  | Environment variable OMP_NUM_THREADS correctly set to 1.
  | Checking for ScaLAPACK...
  | Testing pdtran()...
  | All pdtran() tests passed.
CUDA runtime version: 11060
CUDA driver version: 11060
  Initializing GPUs...

  Number of GPUs available to MPI task         0 :   1
  Number of GPUs available to MPI task         1 :   1
  Number of GPUs available to MPI task         2 :   1
  Number of GPUs available to MPI task         3 :   1
  Number of GPUs available to MPI task         4 :   1
  Number of GPUs available to MPI task         5 :   1
  Number of GPUs available to MPI task         6 :   1
  Number of GPUs available to MPI task         7 :   1
  Number of GPUs available to MPI task         8 :   1
  Number of GPUs available to MPI task         9 :   1
  Number of GPUs available to MPI task        10 :   1
  Number of GPUs available to MPI task        11 :   1
  Number of GPUs available to MPI task        12 :   1
  Number of GPUs available to MPI task        13 :   1
  Number of GPUs available to MPI task        14 :   1
  Number of GPUs available to MPI task        15 :   1
  Number of GPUs available to MPI task        16 :   1
  Number of GPUs available to MPI task        17 :   1

  | MPI task         0, GPU activated = T, Device Name = NVIDIA A100-SXM4-80GB
  | MPI task         1, GPU activated = T, Device Name = NVIDIA A100-SXM4-80GB
  | MPI task         2, GPU activated = T, Device Name = NVIDIA A100-SXM4-80GB
  | MPI task         3, GPU activated = T, Device Name = NVIDIA A100-SXM4-80GB
  | MPI task         4, GPU activated = T, Device Name = NVIDIA A100-SXM4-80GB
  | MPI task         5, GPU activated = T, Device Name = NVIDIA A100-SXM4-80GB
  | MPI task         6, GPU activated = T, Device Name = NVIDIA A100-SXM4-80GB
  | MPI task         7, GPU activated = T, Device Name = NVIDIA A100-SXM4-80GB
  | MPI task         8, GPU activated = T, Device Name = NVIDIA A100-SXM4-80GB
  | MPI task         9, GPU activated = T, Device Name = NVIDIA A100-SXM4-80GB
  | MPI task        10, GPU activated = T, Device Name = NVIDIA A100-SXM4-80GB
  | MPI task        11, GPU activated = T, Device Name = NVIDIA A100-SXM4-80GB
  | MPI task        12, GPU activated = T, Device Name = NVIDIA A100-SXM4-80GB
  | MPI task        13, GPU activated = T, Device Name = NVIDIA A100-SXM4-80GB
  | MPI task        14, GPU activated = T, Device Name = NVIDIA A100-SXM4-80GB
  | MPI task        15, GPU activated = T, Device Name = NVIDIA A100-SXM4-80GB
  | MPI task        16, GPU activated = T, Device Name = NVIDIA A100-SXM4-80GB
  | MPI task        17, GPU activated = T, Device Name = NVIDIA A100-SXM4-80GB

------------------------------------------------------------
          Preparing all fixed parts of the calculation.
------------------------------------------------------------
  Determining machine precision:
    2.225073858507201E-308
  Setting up grids for atomic and cluster calculations.

  Creating wave function, potential, and density for free atoms.
  Runtime choices for atomic solver:
  | atomic solver xc        : PW-LDA
  | compute density gradient: 0
  | compute kinetic density : F

  Species: H

  List of occupied orbitals and eigenvalues:
    n    l              occ      energy [Ha]    energy [eV]
    1    0           1.0000        -0.232375        -6.3233


  Species: O

  List of occupied orbitals and eigenvalues:
    n    l              occ      energy [Ha]    energy [eV]
    1    0           2.0000       -18.757744      -510.4242
    2    0           2.0000        -0.870917       -23.6989
    2    1           4.0000        -0.337950        -9.1961


  Adding cutoff potential to free-atom effective potential.
  Creating fixed part of basis set: Ionic, confined, hydrogenic.
 
  H                    hydrogenic:
 
  List of hydrogenic basis orbitals: 
    n    l      effective z      eigenvalue [eV]  inner max. [A]     outer max. [A]     outer radius [A]   
    2    0         2.100000       -14.9728           0.193243           1.317208           4.696947
    2    1         3.500000       -41.6669           0.602369           0.602369           3.862494
 
 
  O                    hydrogenic:
 
  List of hydrogenic basis orbitals: 
    n    l      effective z      eigenvalue [eV]  inner max. [A]     outer max. [A]     outer radius [A]   
    2    1         1.800000       -10.9749           1.164242           1.164242           4.691341
    3    2         7.600000       -87.3180           0.624125           0.624125           3.413946
    3    0         6.400000       -61.9207           0.061167           1.081902           4.151495
 
  Creating atomic-like basis functions for current effective potential.

  Species H                   :

  List of atomic basis orbitals and eigenvalues:
    n    l      energy [Ha]    energy [eV]    outer radius [A]
    1    0        -0.232375        -6.3233       4.696947


  Species O                   :

  List of atomic basis orbitals and eigenvalues:
    n    l      energy [Ha]    energy [eV]    outer radius [A]
    1    0       -18.757744      -510.4242       1.830144
    2    0        -0.870917       -23.6989       4.578029
    2    1        -0.337950        -9.1961       4.634338

  Assembling full basis from fixed parts.
  | Species H :   atomic orbital   1 s accepted.
  | Species H :    hydro orbital   2 s accepted.
  | Species H :    hydro orbital   2 p accepted.
  | Species O :   atomic orbital   1 s accepted.
  | Species O :    hydro orbital   3 s accepted.
  | Species O :   atomic orbital   2 s accepted.
  | Species O :   atomic orbital   2 p accepted.
  | Species O :    hydro orbital   2 p accepted.
  | Species O :    hydro orbital   3 d accepted.
 
  Basis size parameters after reduction:
  | Total number of radial functions:        9
  | Total number of basis functions :      768
 
  Per-task memory consumption for arrays in subroutine allocate_ext:
  |           2.268304MB.
  Testing on-site integration grid accuracy.
  |  Species  Function  <phi|h_atom|phi> (log., in eV)  <phi|h_atom|phi> (rad., in eV)
           1        1                 -6.3245358373                 -6.3232436907
           1        2                 14.1326137532                 14.1384481100
           1        3                 25.3627025200                 25.3628451197
           2        4               -510.4241781764               -510.4240769407
           2        5                 14.9072942213                 14.9072945271
           2        6                -21.2004736474                -21.2005650551
           2        7                 -9.1962086505                 -9.1963509834
           2        8                  8.1896755006                  8.1702200081
           2        9                 45.7920584937                 45.7920228520

  Preparing densities etc. for the partition functions (integrals / Hartree potential).

  Preparations completed.
  max(cpu_time)          :      0.070 s.
  Wall clock time (cpu1) :      0.062 s.
------------------------------------------------------------

  Initializing index lists of integration centers etc. from given atomic structure:
  Mapping all atomic coordinates to central unit cell.

  Initializing the k-points
  Using symmetry for reducing the k-points
  | k-points reduced from:        1 to        1
  | Number of k-points                             :         1
  | Consuming          0 KiB for k_phase_exx.
  The eigenvectors in the calculations are REAL.
  | Number of basis functions in the Hamiltonian integrals :      4410
  | Number of basis functions in a single unit cell        :       768
  | Number of centers in hartree potential         :      2620
  | Number of centers in hartree multipole         :      1934
  | Number of centers in electron density summation:      1452
  | Number of centers in basis integrals           :      1543
  | Number of centers in integrals                 :       679
  | Number of centers in hamiltonian               :      1453
  | Consuming          0 KiB for k_phase.
  | Number of super-cells (origin) [n_cells]                     :         125
  | Number of super-cells (after PM_index) [n_cells]             :          28
  | Number of super-cells in hamiltonian [n_cells_in_hamiltonian]:          28
  | Size of matrix packed + index [n_hamiltonian_matrix_size] :      762587
  | Size of matrix packed + index (no_symmetry):     1524405

------------------------------------------------------------
          Begin self-consistency loop: Initialization.

          Date     :  20230221, Time     :  150702.797
------------------------------------------------------------
  | Estimated reciprocal-space cutoff momentum G_max:         3.12956471 bohr^-1 .
  | Reciprocal lattice points for long-range Hartree potential:    3430
  Using simple linear distribution as default method for k-point parallelism.
  * Using 18 tasks for Scalapack Eigenvalue solver.
  Detailed listing of tasks and assigned k-points:
   Task     0 k-point     1 on adag039
   Task     1 k-point     1 on adag039
   Task     2 k-point     1 on adag039
   Task     3 k-point     1 on adag039
   Task     4 k-point     1 on adag039
   Task     5 k-point     1 on adag039
   Task     6 k-point     1 on adag039
   Task     7 k-point     1 on adag039
   Task     8 k-point     1 on adag039
   Task     9 k-point     1 on adag039
   Task    10 k-point     1 on adag039
   Task    11 k-point     1 on adag039
   Task    12 k-point     1 on adag039
   Task    13 k-point     1 on adag039
   Task    14 k-point     1 on adag039
   Task    15 k-point     1 on adag039
   Task    16 k-point     1 on adag039
   Task    17 k-point     1 on adag039
  K-point:     1 Tasks:    18 split into      6 X      3 BLACS grid
  Calculating block size based on n_basis =          768  max_nprow =            6  max_npcol =            3
  ScaLAPACK block size set to:           16
  Allocating        0.250 MB for ovlp
  Allocating        0.250 MB for ham
  Allocating        0.250 MB for eigenvec
  Required Scalapack workspace - INTEGER:            1  REAL:             1
  Partitioning the integration grid into batches with parallel hashing+maxmin method.
  | Number of batches:     3712
  | Maximal batch size:     200
  | Minimal batch size:     109
  | Average batch size:     137.276
  | Standard deviation of batch sizes:      29.190

  Integration load balanced across    18 MPI tasks.
  Work distribution over tasks is as follows:
  Task     0 has      28275 integration points.
  Task     1 has      28397 integration points.
  Task     2 has      28421 integration points.
  Task     3 has      28350 integration points.
  Task     4 has      28420 integration points.
  Task     5 has      28270 integration points.
  Task     6 has      28279 integration points.
  Task     7 has      28243 integration points.
  Task     8 has      28274 integration points.
  Task     9 has      28259 integration points.
  Task    10 has      28259 integration points.
  Task    11 has      28255 integration points.
  Task    12 has      28268 integration points.
  Task    13 has      28311 integration points.
  Task    14 has      28282 integration points.
  Task    15 has      28312 integration points.
  Task    16 has      28261 integration points.
  Task    17 has      28432 integration points.
  Initializing partition tables, free-atom densities, potentials, etc. across the integration grid (initialize_grid_storage).
  | initialize_grid_storage: Actual outermost partition radius vs. multipole_radius_free
  | (-- VB: in principle, multipole_radius_free should be larger, hence this output)
  | Species        1: Confinement radius =              4.999999999999999 AA, multipole_radius_free =              5.054417573612229 AA.
  | Species        1: outer_partition_radius set to              5.054417573612229 AA .
  | Species        2: Confinement radius =              4.999999999999999 AA, multipole_radius_free =              5.048384829883283 AA.
  | Species        2: outer_partition_radius set to              5.048384829883283 AA .
  | The sparse table of interatomic distances needs       4952.41 kbyte instead of     19046.79 kbyte of memory.
  | Net number of integration points:   509568
  | of which are non-zero points    :   407219
  | Numerical average free-atom electrostatic potential    :     -5.24131390 eV
  Renormalizing the initial density to the exact electron count on the 3D integration grid.
  | Initial density: Formal number of electrons (from input files) :     320.0000000000
  | Integrated number of electrons on 3D grid     :     319.9995260580
  | Charge integration error                      :      -0.0004739420
  | Normalization factor for density and gradient :       1.0000014811
  Renormalizing the free-atom superposition density to the exact electron count on the 3D integration grid.
  | Formal number of electrons (from input files) :     320.0000000000
  | Integrated number of electrons on 3D grid     :     319.9995260580
  | Charge integration error                      :      -0.0004739420
  | Normalization factor for density and gradient :       1.0000014811
  Obtaining max. number of non-zero basis functions in each batch (get_n_compute_maxes).
  | Maximal number of non-zero basis functions:      408 in task     0
  | Maximal number of non-zero basis functions:      402 in task     1
  | Maximal number of non-zero basis functions:      436 in task     2
  | Maximal number of non-zero basis functions:      439 in task     3
  | Maximal number of non-zero basis functions:      413 in task     4
  | Maximal number of non-zero basis functions:      398 in task     5
  | Maximal number of non-zero basis functions:      410 in task     6
  | Maximal number of non-zero basis functions:      415 in task     7
  | Maximal number of non-zero basis functions:      411 in task     8
  | Maximal number of non-zero basis functions:      433 in task     9
  | Maximal number of non-zero basis functions:      411 in task    10
  | Maximal number of non-zero basis functions:      414 in task    11
  | Maximal number of non-zero basis functions:      415 in task    12
  | Maximal number of non-zero basis functions:      416 in task    13
  | Maximal number of non-zero basis functions:      418 in task    14
  | Maximal number of non-zero basis functions:      431 in task    15
  | Maximal number of non-zero basis functions:      409 in task    16
  | Maximal number of non-zero basis functions:      408 in task    17
  Integrating Hamiltonian matrix: batch-based integration.
  GPU acceleration will be used when integrating the Hamiltonian matrix.
  Reporting GPU memory usage by myid 0.  Note that it is likely not the only MPI task binding to its GPU!
  Allocating        1.332 MB on GPU for hamiltonian_shell
  Allocating        0.653 MB on GPU for wave
  Allocating        0.002 MB on GPU for partition
  Allocating        0.653 MB on GPU for h_times_psi
  Time summed over all CPUs for integration: real work       11.237 s, elapsed       11.651 s
  Deallocating memory used on GPU for Hamiltonian integration.
  Integrating overlap matrix.
  Time summed over all CPUs for integration: real work        8.909 s, elapsed        9.493 s
  Deallocating overlap matrix.

  Updating Kohn-Sham eigenvalues and eigenvectors using ELSI and the ELPA eigensolver.
  Singularity check in k-point 1 (analysis for other k-points may follow below):
  Overlap matrix is not singular
  | Lowest and highest eigenvalues :  0.2215E-02,  0.7078E+01
  Finished singularity check of overlap matrix
  | Time :     0.166 s
  Starting ELPA eigensolver (GPU)
  Finished Cholesky decomposition
  | Time :     0.008 s
  Finished transformation to standard eigenproblem
  | Time :     0.030 s
  Finished solving standard eigenproblem
  | Time :     0.216 s
  Finished back-transformation of eigenvectors
  | Time :     0.017 s

  Obtaining occupation numbers and electronic chemical potential using ELSI.
  | Note that, for insulating systems, the printed 'chemical potential' value is not uniquely defined.
  | It can be anywhere in the energy gap, as long as it correctly separates occupied and unoccupied states.
  | In systems with a gap, the physically relevant chemical potential is the VBM or HOMO.

  | Chemical potential (Fermi level):    -8.75237825 eV
  Writing Kohn-Sham eigenvalues.

  State    Occupation    Eigenvalue [Ha]    Eigenvalue [eV]
      1       2.00000         -18.915737         -514.72340
      2       2.00000         -18.910609         -514.58385
      3       2.00000         -18.905282         -514.43889
      4       2.00000         -18.900815         -514.31735
      5       2.00000         -18.900687         -514.31385
      6       2.00000         -18.900115         -514.29830
      7       2.00000         -18.898601         -514.25709
      8       2.00000         -18.893412         -514.11590
      9       2.00000         -18.892200         -514.08293
     10       2.00000         -18.887152         -513.94555
     11       2.00000         -18.886112         -513.91725
     12       2.00000         -18.884395         -513.87053
     13       2.00000         -18.883814         -513.85473
     14       2.00000         -18.883522         -513.84677
     15       2.00000         -18.881838         -513.80096
     16       2.00000         -18.875653         -513.63265
     17       2.00000         -18.874743         -513.60789
     18       2.00000         -18.874237         -513.59412
     19       2.00000         -18.869801         -513.47342
     20       2.00000         -18.869189         -513.45676
     21       2.00000         -18.864297         -513.32364
     22       2.00000         -18.860645         -513.22426
     23       2.00000         -18.859118         -513.18272
     24       2.00000         -18.859005         -513.17965
     25       2.00000         -18.858660         -513.17025
     26       2.00000         -18.858548         -513.16719
     27       2.00000         -18.858431         -513.16403
     28       2.00000         -18.852235         -512.99541
     29       2.00000         -18.849433         -512.91917
     30       2.00000         -18.848815         -512.90236
     31       2.00000         -18.847520         -512.86712
     32       2.00000         -18.846486         -512.83899
     33       2.00000          -1.183371          -32.20116
     34       2.00000          -1.166082          -31.73071
     35       2.00000          -1.152578          -31.36323
     36       2.00000          -1.150815          -31.31527
     37       2.00000          -1.149026          -31.26659
     38       2.00000          -1.144895          -31.15417
     39       2.00000          -1.143335          -31.11174
     40       2.00000          -1.135014          -30.88530
     41       2.00000          -1.131508          -30.78991
     42       2.00000          -1.130884          -30.77291
     43       2.00000          -1.129591          -30.73775
     44       2.00000          -1.124794          -30.60721
     45       2.00000          -1.122928          -30.55642
     46       2.00000          -1.118473          -30.43519
     47       2.00000          -1.113646          -30.30384
     48       2.00000          -1.112888          -30.28324
     49       2.00000          -1.108807          -30.17217
     50       2.00000          -1.105987          -30.09543
     51       2.00000          -1.095731          -29.81634
     52       2.00000          -1.093744          -29.76228
     53       2.00000          -1.090057          -29.66196
     54       2.00000          -1.087186          -29.58385
     55       2.00000          -1.083855          -29.49320
     56       2.00000          -1.082350          -29.45225
     57       2.00000          -1.080465          -29.40094
     58       2.00000          -1.077743          -29.32689
     59       2.00000          -1.077438          -29.31857
     60       2.00000          -1.073591          -29.21389
     61       2.00000          -1.064431          -28.96464
     62       2.00000          -1.063657          -28.94358
     63       2.00000          -1.057002          -28.76248
     64       2.00000          -1.052064          -28.62811
     65       2.00000          -0.711979          -19.37394
     66       2.00000          -0.704601          -19.17317
     67       2.00000          -0.701377          -19.08545
     68       2.00000          -0.695477          -18.92488
     69       2.00000          -0.693401          -18.86841
     70       2.00000          -0.689955          -18.77463
     71       2.00000          -0.683127          -18.58883
     72       2.00000          -0.679555          -18.49165
     73       2.00000          -0.670959          -18.25771
     74       2.00000          -0.670104          -18.23446
     75       2.00000          -0.662297          -18.02202
     76       2.00000          -0.659830          -17.95490
     77       2.00000          -0.655815          -17.84563
     78       2.00000          -0.653487          -17.78230
     79       2.00000          -0.648069          -17.63485
     80       2.00000          -0.646597          -17.59481
     81       2.00000          -0.644123          -17.52748
     82       2.00000          -0.642722          -17.48934
     83       2.00000          -0.641515          -17.45652
     84       2.00000          -0.638927          -17.38608
     85       2.00000          -0.636877          -17.33029
     86       2.00000          -0.632483          -17.21073
     87       2.00000          -0.626674          -17.05267
     88       2.00000          -0.626184          -17.03932
     89       2.00000          -0.625023          -17.00773
     90       2.00000          -0.618198          -16.82204
     91       2.00000          -0.605997          -16.49001
     92       2.00000          -0.605021          -16.46345
     93       2.00000          -0.601002          -16.35410
     94       2.00000          -0.591297          -16.09002
     95       2.00000          -0.586198          -15.95126
     96       2.00000          -0.584906          -15.91610
     97       2.00000          -0.578826          -15.75066
     98       2.00000          -0.572541          -15.57965
     99       2.00000          -0.565352          -15.38400
    100       2.00000          -0.563683          -15.33859
    101       2.00000          -0.558081          -15.18616
    102       2.00000          -0.556596          -15.14575
    103       2.00000          -0.555281          -15.10997
    104       2.00000          -0.550462          -14.97883
    105       2.00000          -0.546343          -14.86674
    106       2.00000          -0.544582          -14.81882
    107       2.00000          -0.542707          -14.76780
    108       2.00000          -0.542586          -14.76452
    109       2.00000          -0.537920          -14.63754
    110       2.00000          -0.535364          -14.56799
    111       2.00000          -0.533854          -14.52690
    112       2.00000          -0.531396          -14.46003
    113       2.00000          -0.529678          -14.41328
    114       2.00000          -0.527043          -14.34158
    115       2.00000          -0.526327          -14.32208
    116       2.00000          -0.524435          -14.27059
    117       2.00000          -0.522689          -14.22308
    118       2.00000          -0.521173          -14.18185
    119       2.00000          -0.518890          -14.11972
    120       2.00000          -0.517873          -14.09204
    121       2.00000          -0.515113          -14.01693
    122       2.00000          -0.512245          -13.93889
    123       2.00000          -0.506791          -13.79047
    124       2.00000          -0.506772          -13.78998
    125       2.00000          -0.505042          -13.74289
    126       2.00000          -0.502045          -13.66134
    127       2.00000          -0.498889          -13.57546
    128       2.00000          -0.492210          -13.39371
    129       2.00000          -0.490357          -13.34330
    130       2.00000          -0.485026          -13.19823
    131       2.00000          -0.484272          -13.17772
    132       2.00000          -0.480255          -13.06841
    133       2.00000          -0.476280          -12.96025
    134       2.00000          -0.471805          -12.83847
    135       2.00000          -0.470736          -12.80938
    136       2.00000          -0.469882          -12.78615
    137       2.00000          -0.467933          -12.73312
    138       2.00000          -0.467604          -12.72415
    139       2.00000          -0.467189          -12.71287
    140       2.00000          -0.465257          -12.66029
    141       2.00000          -0.464155          -12.63029
    142       2.00000          -0.463162          -12.60328
    143       2.00000          -0.460731          -12.53713
    144       2.00000          -0.460192          -12.52246
    145       2.00000          -0.457334          -12.44470
    146       2.00000          -0.455029          -12.38197
    147       2.00000          -0.454371          -12.36407
    148       2.00000          -0.451214          -12.27815
    149       2.00000          -0.450179          -12.25000
    150       2.00000          -0.448017          -12.19116
    151       2.00000          -0.446400          -12.14717
    152       2.00000          -0.445541          -12.12379
    153       2.00000          -0.445120          -12.11234
    154       2.00000          -0.443062          -12.05633
    155       2.00000          -0.442357          -12.03714
    156       2.00000          -0.439706          -11.96500
    157       2.00000          -0.438327          -11.92750
    158       2.00000          -0.436931          -11.88950
    159       2.00000          -0.435664          -11.85501
    160       2.00000          -0.432047          -11.75659
    161       0.00000          -0.175082           -4.76422
    162       0.00000          -0.122909           -3.34452
    163       0.00000          -0.115546           -3.14418
    164       0.00000          -0.112963           -3.07387
    165       0.00000          -0.110800           -3.01501
    166       0.00000          -0.107384           -2.92207
    167       0.00000          -0.092809           -2.52546
    168       0.00000          -0.080358           -2.18666
    169       0.00000          -0.075350           -2.05039
    170       0.00000          -0.066519           -1.81008
    171       0.00000          -0.063978           -1.74093
    172       0.00000          -0.059537           -1.62008
    173       0.00000          -0.054789           -1.49089
    174       0.00000          -0.054292           -1.47735
    175       0.00000          -0.053612           -1.45887
    176       0.00000          -0.046940           -1.27730
    177       0.00000          -0.039806           -1.08317
    178       0.00000          -0.038758           -1.05465
    179       0.00000          -0.030985           -0.84315
    180       0.00000          -0.025897           -0.70470
    181       0.00000          -0.018409           -0.50094
    182       0.00000          -0.011793           -0.32090
    183       0.00000          -0.008587           -0.23365
    184       0.00000          -0.003120           -0.08490
    185       0.00000           0.001858            0.05056
    186       0.00000           0.004761            0.12956
    187       0.00000           0.009892            0.26917
    188       0.00000           0.013602            0.37013
    189       0.00000           0.018479            0.50284
    190       0.00000           0.021331            0.58044
    191       0.00000           0.026247            0.71421
    192       0.00000           0.028754            0.78244
    193       0.00000           0.031705            0.86274
    194       0.00000           0.035774            0.97345
    195       0.00000           0.040867            1.11205
    196       0.00000           0.042363            1.15276
    197       0.00000           0.046967            1.27803
    198       0.00000           0.048657            1.32402
    199       0.00000           0.052388            1.42554
    200       0.00000           0.058498            1.59182
    201       0.00000           0.059968            1.63182
    202       0.00000           0.062846            1.71013
    203       0.00000           0.064417            1.75287
    204       0.00000           0.068208            1.85603
    205       0.00000           0.070114            1.90791
    206       0.00000           0.072107            1.96214
    207       0.00000           0.076277            2.07560
    208       0.00000           0.080599            2.19322
    209       0.00000           0.083664            2.27662
    210       0.00000           0.086096            2.34280
    211       0.00000           0.092196            2.50877
    212       0.00000           0.095148            2.58911
    213       0.00000           0.097710            2.65882
    214       0.00000           0.099665            2.71202
    215       0.00000           0.100438            2.73307
    216       0.00000           0.105235            2.86358
    217       0.00000           0.108223            2.94490
    218       0.00000           0.114114            3.10521
    219       0.00000           0.116116            3.15968
    220       0.00000           0.119746            3.25847
    221       0.00000           0.126620            3.44551
    222       0.00000           0.133032            3.62000
    223       0.00000           0.133735            3.63913
    224       0.00000           0.137781            3.74922
    225       0.00000           0.145467            3.95836
    226       0.00000           0.153122            4.16666
    227       0.00000           0.158351            4.30896
    228       0.00000           0.164326            4.47155
    229       0.00000           0.165956            4.51589
    230       0.00000           0.171744            4.67338
    231       0.00000           0.182105            4.95534
    232       0.00000           0.186003            5.06140
    233       0.00000           0.195759            5.32688
    234       0.00000           0.199335            5.42417
    235       0.00000           0.200164            5.44674
    236       0.00000           0.204675            5.56949
    237       0.00000           0.212547            5.78370
    238       0.00000           0.213698            5.81503
    239       0.00000           0.218443            5.94414
    240       0.00000           0.223239            6.07465
    241       0.00000           0.236352            6.43147
    242       0.00000           0.240298            6.53883
    243       0.00000           0.249100            6.77837
    244       0.00000           0.253421            6.89594
    245       0.00000           0.255529            6.95330
    246       0.00000           0.259129            7.05126
    247       0.00000           0.268765            7.31346
    248       0.00000           0.274621            7.47282
    249       0.00000           0.280513            7.63316
    250       0.00000           0.284584            7.74393
    251       0.00000           0.288931            7.86220
    252       0.00000           0.299231            8.14250
    253       0.00000           0.305055            8.30098
    254       0.00000           0.307410            8.36506
    255       0.00000           0.313485            8.53035
    256       0.00000           0.319929            8.70570
    257       0.00000           0.326123            8.87425
    258       0.00000           0.330546            8.99463
    259       0.00000           0.338696            9.21638
[...]
  |    H      0     4.527807 A      4.527807 A        1.268855E-16 a.u.
  |    H      0     4.527807 A      4.583499 A       -4.900954E-17 a.u.
  |    H      0     4.527807 A      4.583499 A        4.713786E-16 a.u.
  |    H      2     3.678162 A  2.180220E+05 A            0.556529 a.u.
  |    H      1     3.958095 A  1.721251E+08 A            0.841931 a.u.
  |    H      0     4.527807 A  3.866455E+16 A            0.581436 a.u.
  |    O      0     2.043000 A      2.043000 A       -1.436841E-16 a.u.
  |    O      3     3.498446 A      3.498446 A        3.043453E-17 a.u.
  |    O      3     3.498446 A      3.498446 A        1.541443E-16 a.u.
  |    O      0     3.905335 A      3.905335 A        2.173090E-16 a.u.
  |    O      0     3.905335 A      3.905335 A        7.213445E-17 a.u.
  |    O      0     4.101052 A      4.101052 A        2.361718E-16 a.u.
  |    O      1     4.101052 A      4.101052 A        3.235185E-17 a.u.
  |    O      0     4.359549 A      4.359549 A       -5.329475E-17 a.u.
  |    O      1     4.413171 A      4.413171 A        3.261883E-17 a.u.
  |    O      1     4.522403 A      4.522403 A        6.417997E-16 a.u.
  |    O      1     4.522403 A      4.522403 A        4.224783E-16 a.u.
  |    O      2     4.522403 A      4.522403 A       -4.387647E-16 a.u.
  |    O      0     4.522403 A      4.578029 A        2.602039E-16 a.u.
  |    O      0     4.578029 A      4.578029 A        1.226235E-16 a.u.
  |    O      1     4.578029 A      4.578029 A       -6.107316E-16 a.u.
  |    O      1     4.578029 A      4.578029 A       -2.224438E-16 a.u.
  |    O      2     4.578029 A      4.578029 A       -7.020279E-16 a.u.
  |    O      2     4.522403 A      4.578029 A        1.323470E-15 a.u.
  |    O      2     4.578029 A      4.578029 A        7.923696E-16 a.u.
  |    O      2     4.522403 A      4.578029 A       -9.951815E-16 a.u.
  |    O      0     4.578029 A      4.634338 A       -8.813582E-18 a.u.
  |    O      1     4.578029 A      4.634338 A       -3.325386E-17 a.u.
  |    O      1     4.634338 A      4.634338 A        9.588032E-16 a.u.
  |    O      2     4.578029 A      4.634338 A        1.064715E-17 a.u.
  |    O      2     4.578029 A      4.634338 A       -3.770343E-15 a.u.
  |    O      4     3.251020 A  1.511584E+03 A            1.513372 a.u.
  |    O      3     3.541477 A  1.434166E+04 A            4.293220 a.u.
  |    O      2     4.634338 A  5.584435E+05 A            9.352428 a.u.
  |    O      1     4.634338 A  2.821283E+08 A            2.261940 a.u.
  |    O      0     4.578029 A  4.264100E+16 A            0.641234 a.u.

  | Shrink_full_auxil_basis : there are       38  radial auxiliary wave functions
                            accepted and       5 rejected.
  | Shrink_full_auxil_basis : there are totally                4544 partial auxiliary wave functions.
 
  | Maximal number of product basis functions per thread :   256   256
 
  | Minimal total memory requirement for three-center overlap :      10.450 Gbs
  | Number of local auxiliary basis functions on task:      0   256
  | Number of local auxiliary basis functions on task:      1   256
  | Number of local auxiliary basis functions on task:      2   256
  | Number of local auxiliary basis functions on task:      3   256
  | Number of local auxiliary basis functions on task:      4   256
  | Number of local auxiliary basis functions on task:      5   256
  | Number of local auxiliary basis functions on task:      6   256
  | Number of local auxiliary basis functions on task:      7   256
  | Number of local auxiliary basis functions on task:      8   256
  | Number of local auxiliary basis functions on task:      9   256
  | Number of local auxiliary basis functions on task:     10   256
  | Number of local auxiliary basis functions on task:     11   256
  | Number of local auxiliary basis functions on task:     12   256
  | Number of local auxiliary basis functions on task:     13   256
  | Number of local auxiliary basis functions on task:     14   240
  | Number of local auxiliary basis functions on task:     15   240
  | Number of local auxiliary basis functions on task:     16   240
  | Number of local auxiliary basis functions on task:     17   240
  | 2D aux task distribution:      3 X      6
  | 2D block size (nb_aux_2d):     64
 
  Basis pair condensation :    295296  -->     220973
 
 --------------------------------------------
  Constructing auxiliary basis (full product) ...
 
  Product basis:
  | charge radius: extent of product basis function
  | field radius: extent of its Coulomb potential
  | Species   l  charge radius    field radius  multipol momen
  |    H      1     3.910002 A      3.910002 A       -2.487223E-16 a.u.
  |    H      1     3.958095 A      3.958095 A       -2.441841E-16 a.u.
  |    H      0     4.527807 A      4.527807 A        1.268855E-16 a.u.
  |    H      0     4.527807 A      4.583499 A       -4.900954E-17 a.u.
  |    H      0     4.527807 A      4.583499 A        4.713786E-16 a.u.
  |    H      2     3.678162 A  2.180220E+05 A            0.556529 a.u.
  |    H      1     3.958095 A  1.721251E+08 A            0.841931 a.u.
  |    H      0     4.527807 A  3.866455E+16 A            0.581436 a.u.
  |    O      0     2.043000 A      2.043000 A       -1.436841E-16 a.u.
  |    O      3     3.498446 A      3.498446 A        3.043453E-17 a.u.
  |    O      3     3.498446 A      3.498446 A        1.541443E-16 a.u.
  |    O      0     3.905335 A      3.905335 A        2.173090E-16 a.u.
  |    O      0     3.905335 A      3.905335 A        7.213445E-17 a.u.
  |    O      0     4.101052 A      4.101052 A        2.361718E-16 a.u.
  |    O      1     4.101052 A      4.101052 A        3.235185E-17 a.u.
  |    O      0     4.359549 A      4.359549 A       -5.329475E-17 a.u.
  |    O      1     4.413171 A      4.413171 A        3.261883E-17 a.u.
  |    O      1     4.522403 A      4.522403 A        6.417997E-16 a.u.
  |    O      1     4.522403 A      4.522403 A        4.224783E-16 a.u.
  |    O      2     4.522403 A      4.522403 A       -4.387647E-16 a.u.
  |    O      0     4.522403 A      4.578029 A        2.602039E-16 a.u.
  |    O      0     4.578029 A      4.578029 A        1.226235E-16 a.u.
  |    O      1     4.578029 A      4.578029 A       -6.107316E-16 a.u.
  |    O      1     4.578029 A      4.578029 A       -2.224438E-16 a.u.
  |    O      2     4.578029 A      4.578029 A       -7.020279E-16 a.u.
  |    O      2     4.522403 A      4.578029 A        1.323470E-15 a.u.
  |    O      2     4.578029 A      4.578029 A        7.923696E-16 a.u.
  |    O      2     4.522403 A      4.578029 A       -9.951815E-16 a.u.
  |    O      0     4.578029 A      4.634338 A       -8.813582E-18 a.u.
  |    O      1     4.578029 A      4.634338 A       -3.325386E-17 a.u.
  |    O      1     4.634338 A      4.634338 A        9.588032E-16 a.u.
  |    O      2     4.578029 A      4.634338 A        1.064715E-17 a.u.
  |    O      2     4.578029 A      4.634338 A       -3.770343E-15 a.u.
  |    O      4     3.251020 A  1.511584E+03 A            1.513372 a.u.
  |    O      3     3.541477 A  1.434166E+04 A            4.293220 a.u.
  |    O      2     4.634338 A  5.584435E+05 A            9.352428 a.u.
  |    O      1     4.634338 A  2.821283E+08 A            2.261940 a.u.
  |    O      0     4.578029 A  4.264100E+16 A            0.641234 a.u.

  | Shrink_full_auxil_basis : there are       38  radial auxiliary wave functions
                            accepted and       5 rejected.
  | Shrink_full_auxil_basis : there are totally                4544 partial auxiliary wave functions.
 
  | Maximal number of product basis functions per thread :   256   256
 
  | Minimal total memory requirement for three-center overlap :      10.450 Gbs
  | Number of local auxiliary basis functions on task:      0   256
  | Number of local auxiliary basis functions on task:      1   256
  | Number of local auxiliary basis functions on task:      2   256
  | Number of local auxiliary basis functions on task:      3   256
  | Number of local auxiliary basis functions on task:      4   256
  | Number of local auxiliary basis functions on task:      5   256
  | Number of local auxiliary basis functions on task:      6   256
  | Number of local auxiliary basis functions on task:      7   256
  | Number of local auxiliary basis functions on task:      8   256
  | Number of local auxiliary basis functions on task:      9   256
  | Number of local auxiliary basis functions on task:     10   256
  | Number of local auxiliary basis functions on task:     11   256
  | Number of local auxiliary basis functions on task:     12   256
  | Number of local auxiliary basis functions on task:     13   256
  | Number of local auxiliary basis functions on task:     14   240
  | Number of local auxiliary basis functions on task:     15   240
  | Number of local auxiliary basis functions on task:     16   240
  | Number of local auxiliary basis functions on task:     17   240
  | 2D aux task distribution:      3 X      6
  | 2D block size (nb_aux_2d):     64
 
  Basis pair condensation :    295296  -->     220973
dP_dE (Bohr^3) at every cycle:--->
 (340.974033491320,0.000000000000000E+000) (-6.99439994928101,0.000000000000000E+000) (-5.12825173945333,0.000000000000000E+000)
 (-7.01051231308917,0.000000000000000E+000) (341.043536749669,0.000000000000000E+000) (-0.473342441387441,0.000000000000000E+000)
 (-5.13393421986156,0.000000000000000E+000) (-0.481398126405373,0.000000000000000E+000) (352.076316529888,0.000000000000000E+000)
DFPT polarizability (Bohr^3)        xx        yy        zz        xy        xz        yz
  | Polarizability:--->                       340.974033491                  341.043536750                  352.076316530                   -6.994399949                   -5.128251739                   -0.473342441

DFPT for dielectric_constant:--->  # PARSE DFPT_dielectric_tensor
               1.638598751890673            -0.013099575448899            -0.009604529490600
              -0.013129751750926             1.638728922195959            -0.000886507072670
              -0.009615172016246            -0.000901594293082             1.659391842845346

                                               :  max(cpu_time)    wall_clock(cpu1)
  | Time for  dielectric calculation            :        0.000 s           0.000 s
===========================================================================

------------------------------------------------------------------------------
  Final output of selected total energy values:

  The following output summarizes some interesting total energy values
  at the end of a run (AFTER all relaxation, molecular dynamics, etc.).

  | Total energy of the DFT / Hartree-Fock s.c.f. calculation      :         -66107.104372797 eV
  | Final zero-broadening corrected energy (caution - metals only) :         -66107.104372797 eV
  | For reference only, the value of 1 Hartree used in FHI-aims is :             27.211384500 eV
  | For reference only, the overall average (free atom contribution
  | + realspace contribution) of the electrostatic potential after
  | s.c.f. convergence is                                          :             -4.821102259 eV

  Before relying on these values, please be sure to understand exactly which
  total energy value is referred to by a given number. Different objects may
  all carry the same name 'total energy'. Definitions:

  Total energy of the DFT / Hartree-Fock s.c.f. calculation:
  | Note that this energy does not include ANY quantities calculated after the
  | s.c.f. cycle, in particular not ANY RPA, MP2, etc. many-body perturbation terms.

  Final zero-broadening corrected energy:
  | For metallic systems only, a broadening of the occupation numbers at the Fermi
  | level can be extrapolated back to zero broadening by an electron-gas inspired
  | formula. For all systems that are not real metals, this value can be
  | meaningless and should be avoided.

------------------------------------------------------------------------------
  Methods described in the following list of references were used in this FHI-aims run.
  If you publish the results, please make sure to cite these reference if they apply.
  FHI-aims is an academic code, and for our developers (often, Ph.D. students
  and postdocs), scientific credit in the community is essential.
  Thank you for helping us!

  For any use of FHI-aims, please cite:

    Volker Blum, Ralf Gehrke, Felix Hanke, Paula Havu, Ville Havu,
    Xinguo Ren, Karsten Reuter, and Matthias Scheffler
    'Ab initio molecular simulations with numeric atom-centered orbitals'
    Computer Physics Communications 180, 2175-2196 (2009)
    http://doi.org/10.1016/j.cpc.2009.06.022


  For Hartree-Fock, hybrid functionals, or many-body perturbation theory used in your run, please cite:

    Xinguo Ren, Patrick Rinke, Volker Blum, Juergen Wieferink, Alex Tkatchenko,
    Andrea Sanfilippo, Karsten Reuter, and Matthias Scheffler,
    'Resolution-of-identity approach to Hartree-Fock, hybrid density functionals,
    RPA, MP2, and GW with numeric atom-centered orbital basis functions'
    New Journal of Physics 14, 053020 (2012).
    http://doi.org/10.1088/1367-2630/14/5/053020


  The provided symmetry information was generated with SPGlib:

    Atsushi Togo, Yusuke Seto, Dimitar Pashov
    SPGlib 1.7.3 obtained from http://spglib.sourceforge.net
    Copyright (C) 2008 Atsushi Togo


  The DFPT (perturbation by an electric field) part of the code was used.
  Here is the corresponding reference:

    Honghui Shang, Nathaniel Raimbault, Mariana Rossi,
    Christian Carbogno, Patrick Rinke and Matthias Scheffler,
    'All-Electron, Real-Space Perturbation Theory for Homogeneous
    Electric Fields: Theory, Implementation, and Application within dft'
    New Journal of Physics, 20(7):073040, 2018


  The ELSI infrastructure was used in your run to solve the Kohn-Sham electronic structure.
  Please check out http://elsi-interchange.org to learn more.
  If scalability is important for your project, please acknowledge ELSI by citing:

    V. W-z. Yu, F. Corsetti, A. Garcia, W. P. Huhn, M. Jacquelin, W. Jia,
    B. Lange, L. Lin, J. Lu, W. Mi, A. Seifitokaldani, A. Vazquez-Mayagoitia,
    C. Yang, H. Yang, and V. Blum
    'ELSI: A unified software interface for Kohn-Sham electronic structure solvers'
    Computer Physics Communications 222, 267-285 (2018).
    http://doi.org/10.1016/j.cpc.2017.09.007


  For the real-space grid partitioning and parallelization used in this calculation, please cite:

    Ville Havu, Volker Blum, Paula Havu, and Matthias Scheffler,
    'Efficient O(N) integration for all-electron electronic structure calculation'
    'using numerically tabulated basis functions'
    Journal of Computational Physics 228, 8367-8379 (2009).
    http://doi.org/10.1016/j.jcp.2009.08.008


  The high-level electronic structure method used in your calculation
  employed our efficient localized resolution of identity for the Coulomb operator.
  Some calculations, especially large-scale hybrid density functional theory,
  are only possible thanks to this development. For this feature, please cite:

    Arvid Ihrig, Juergen Wieferink, Igor Ying Zhang, Matti Ropo, Xinguo Ren,
    Patrick Rinke, Matthias Scheffler, and Volker Blum,
    'Accurate localized resolution of identity approach for linear-scaling
    hybrid density functionals and for many-body perturbation theory'
    New Journal of Physics 117, 093020 (2015).
    http://doi.org/10.1088/1367-2630/17/9/093020

  Of course, there are many other important community references, e.g., those cited in the
  above references. Our list is limited to references that describe implementations in the
  FHI-aims code. The reason is purely practical (length of this list) - please credit others as well.

------------------------------------------------------------
          Leaving FHI-aims.
          Date     :  20230221, Time     :  151435.653

          Computational steps:
          | Number of self-consistency cycles          :           45
          | Number of SCF (re)initializations          :            1
          | Number of coupled perturbed self-consistency cycles          :            0
          | Number of CPSCF (re)initializations          :            0

          Detailed time accounting                     :  max(cpu_time)    wall_clock(cpu1)
          | Total time                                  :      452.764 s         463.892 s
          | GPU initialization                          :        2.100 s           9.567 s
          | Preparation time                            :        0.070 s           0.062 s
          | Boundary condition initalization            :        1.296 s           1.297 s
          | Grid partitioning                           :        0.419 s           0.419 s
          | Preloading free-atom quantities on grid     :        2.288 s           2.289 s
          | Free-atom superposition energy              :        0.303 s           0.303 s
          | Total time for integrations                 :       12.536 s          12.710 s
          | Product basis setup: Total time             :        0.000 s           0.000 s
          | Product basis: | 2-center integrations     :(       0.000 s)  (       0.000 s)
          | Product basis: | LVL 3-center & coefficient:(       0.000 s)  (       0.000 s)
          | Total time for solution of K.-S. equations  :        2.412 s           4.823 s
          | Total time for density update               :        8.707 s           8.994 s
          | Total time for mixing & preconditioning     :        8.689 s           8.689 s
          | Total time for Hartree multipole update     :        0.100 s           0.102 s
          | Total time for Hartree multipole sum        :       36.519 s          36.535 s
          | Total time for total energy evaluation      :        0.005 s           0.010 s
          | Total time for DFPT                         :      376.784 s         376.923 s
          | Total time first_order_DM                   :        0.286 s           0.287 s
          | Total time first_order_density              :       79.619 s          79.624 s
          | Total time first_order_potential            :       54.861 s          54.878 s
          | Total time first_order_H                    :      154.874 s         154.928 s
          | Total time solving of Sternheimer equations :        0.178 s           0.176 s
          | Total time for dielectric constant          :        0.000 s           0.000 s
          | Total time momentum matrix                  :        0.000 s           0.000 s

          GPU acceleration has been used for charge density update.
          GPU acceleration has been used for real-space Hamiltonian integration.
          Due to GPU usage, wall_clock(cpu1) will give a more reliable estimate for timings.

          Partial memory accounting:
          | Residual value for overall tracked memory usage across tasks:     0.000000 MB (should be 0.000000 MB)
          | Peak values for overall tracked memory usage:
          |   Minimum:      114.204 MB (on task  0 after allocating DFPT_pulay_mixing::pulay_mix::alphas)
          |   Maximum:      114.204 MB (on task  0 after allocating DFPT_pulay_mixing::pulay_mix::alphas)
          |   Average:      114.204 MB
          | Largest tracked array allocation:
          |   Minimum:       40.727 MB (DFPT_pulay_mixing::initialize_pulay_mixing::X_in_diffs on task  0)
          |   Maximum:       40.727 MB (DFPT_pulay_mixing::initialize_pulay_mixing::X_in_diffs on task  0)
          |   Average:       40.727 MB
          Note:  These values currently only include a subset of arrays which are explicitly tracked.
          The "true" memory usage will be greater.

          Have a nice day.
------------------------------------------------------------
