------------------------------------------------------------
          Invoking FHI-aims ...

          When using FHI-aims, please cite the following reference:

            Volker Blum, Ralf Gehrke, Felix Hanke, Paula Havu,
            Ville Havu, Xinguo Ren, Karsten Reuter, and Matthias Scheffler,
            'Ab Initio Molecular Simulations with Numeric Atom-Centered Orbitals',
            Computer Physics Communications 180, 2175-2196 (2009)

          In addition, many other developments in FHI-aims are likely important for
          your particular application. A partial list of references is given at the end of
          this file. Thank you for giving credit to the authors of these developments.

          For any questions about FHI-aims, please visit our slack channel at

            https://fhi-aims.slack.com

          and our main development and support site at

            https://aims-git.rz-berlin.mpg.de .

          The latter site, in particular, has a wiki to collect information, as well
          as an issue tracker to log discussions, suggest improvements, and report issues
          or bugs. https://aims-git.rz-berlin.mpg.de is also the main development site
          of the project and all new and updated code versions can be obtained there.
          Please send an email to aims-coordinators@fhi-berlin.mpg.de and we will add
          you to these sites. They are for you and everyone is welcome there.

------------------------------------------------------------



  Date     :  20230221, Time     :  161040.769
  Time zero on CPU 1             :   0.366004000000000E+00  s.
  Internal wall clock time zero  :           446227840.769  s.

  FHI-aims created a unique identifier for this run for later identification
  aims_uuid : A1E5B7BD-EF28-42D5-A79C-2F78ABF90657

  Build configuration of the current instance of FHI-aims
  -------------------------------------------------------
  FHI-aims version      : 221103
  Commit number         : 42523251a
  CMake host system     : Linux-5.3.18-150300.59.68-default
  CMake version         : 3.17.0
  Fortran compiler      : /mpcdf/soft/SLE_15/packages/x86_64/intel_oneapi/2021.3/mpi/2021.3.0/bin/mpiifort (Intel) version 20.2.3.20210609
  Fortran compiler flags: -O3 -ip -fp-model precise
  C compiler            : /mpcdf/soft/SLE_15/packages/x86_64/intel/2021.3.0/bin/icc (Intel) version 20.2.3.20210609
  C compiler flags      : -O3 -ip -fp-model precise -std=gnu99
  CUDA compiler         : /mpcdf/soft/SLE_15/packages/x86_64/cuda/11.6.2/bin/nvcc
  CUDA compiler flags   : -O3 -DAdd_ -lcublas
  HIP compiler          :
  HIP compiler flags    :
  HIP GPU arch          :
  ELPA2 kernel          : AVX512
  Using MPI
  Using ScaLAPACK
  Using LibXC
  Using CUDA
  Using i-PI
  Using RLSY
  Linking against: /mpcdf/soft/SLE_15/packages/x86_64/cuda/11.6.2/lib64/libcublas.so
                   /mpcdf/soft/SLE_15/packages/x86_64/cuda/11.6.2/lib64/libcudart.so
                   /mpcdf/soft/SLE_15/packages/x86_64/intel_oneapi/2021.3/mkl/latest/lib/intel64/libmkl_intel_lp64.so
                   /mpcdf/soft/SLE_15/packages/x86_64/intel_oneapi/2021.3/mkl/latest/lib/intel64/libmkl_sequential.so
                   /mpcdf/soft/SLE_15/packages/x86_64/intel_oneapi/2021.3/mkl/latest/lib/intel64/libmkl_core.so
                   /mpcdf/soft/SLE_15/packages/x86_64/intel_oneapi/2021.3/mkl/latest/lib/intel64/libmkl_blacs_intelmpi_lp64.so
                   /mpcdf/soft/SLE_15/packages/x86_64/intel_oneapi/2021.3/mkl/latest/lib/intel64/libmkl_scalapack_lp64.so

  Using       18 parallel tasks.
  Task        0 on host adag039 reporting.
  Task        1 on host adag039 reporting.
  Task        2 on host adag039 reporting.
  Task        3 on host adag039 reporting.
  Task        4 on host adag039 reporting.
  Task        5 on host adag039 reporting.
  Task        6 on host adag039 reporting.
  Task        7 on host adag039 reporting.
  Task        8 on host adag039 reporting.
  Task        9 on host adag039 reporting.
  Task       10 on host adag039 reporting.
  Task       11 on host adag039 reporting.
  Task       12 on host adag039 reporting.
  Task       13 on host adag039 reporting.
  Task       14 on host adag039 reporting.
  Task       15 on host adag039 reporting.
  Task       16 on host adag039 reporting.
  Task       17 on host adag039 reporting.

  Obtaining array dimensions for all initial allocations:
  
  -----------------------------------------------------------------------
  Parsing control.in (first pass over file, find array dimensions only).
  The contents of control.in will be repeated verbatim below
  unless switched off by setting 'verbatim_writeout .false.' .
  in the first line of control.in .
  -----------------------------------------------------------------------
  
  #########################################################################################
  #
  #  Volker Blum, 2017 : Test run input file control.in for simple H2O
  #
  #########################################################################################
  #
  #  Physical model
  #
    xc                 pw-lda
    spin               none
    relativistic       none
    charge             0.
  
    use_gpu
  
    DFPT dielectric
    ri_density_restart write
    ri_rho1 write
  #  ri_density_restart read 0
  #  ri_rho1 read
    ri_full_output .true.
    sc_accuracy_rho    1d-6
  #  use_calculate_fock_matrix_old .false.
  #  wave_threshold 1e-8
    k_grid 1 1 1
  #  output cube eigenstate 160
  #  output cube eigenstate 161
    wave_threshold 1e-8
    default_prodbas_acc 1e-6
    default_max_l_prodbas 6
  #
  #  Relaxation
  #
  #  relax_geometry   bfgs 1.e-2
  #
  
  ################################################################################
  
  
  ################################################################################
  #
  #  FHI-aims code project
  #  VB, Fritz-Haber Institut, 2009
  #
  #  Suggested "light" defaults for H atom (to be pasted into control.in file)
  #  Be sure to double-check any results obtained with these settings for post-processing,
  #  e.g., with the "tight" defaults and larger basis sets.
  #
  ################################################################################
    species        H
  #     global species definitions
      nucleus             1
      mass                1.00794
  #
      l_hartree           4
  #
      cut_pot             3.5  1.5  1.0
      basis_dep_cutoff    1e-4
  #
      radial_base         24 5.0
      radial_multiplier   1
      angular_grids       specified
        division   0.2421   50
        division   0.3822  110
        division   0.4799  194
        division   0.5341  302
  #      division   0.5626  434
  #      division   0.5922  590
  #      division   0.6542  770
  #      division   0.6868 1202
  #      outer_grid  770
        outer_grid  302
  ################################################################################
  #
  #  Definition of "minimal" basis
  #
  ################################################################################
  #     valence basis states
      valence      1  s   1.
  #     ion occupancy
      ion_occ      1  s   0.5
  ################################################################################
  #
  #  Suggested additional basis functions. For production calculations,
  #  uncomment them one after another (the most important basis functions are
  #  listed first).
  #
  #  Basis constructed for dimers: 0.5 A, 0.7 A, 1.0 A, 1.5 A, 2.5 A
  #
  ################################################################################
  #  "First tier" - improvements: -1014.90 meV to -62.69 meV
       hydro 2 s 2.1
       hydro 2 p 3.5
  #  "Second tier" - improvements: -12.89 meV to -1.83 meV
  #     hydro 1 s 0.85
  #     hydro 2 p 3.7
  #     hydro 2 s 1.2
  #     hydro 3 d 7
  #  "Third tier" - improvements: -0.25 meV to -0.12 meV
  #     hydro 4 f 11.2
  #     hydro 3 p 4.8
  #     hydro 4 d 9
  #     hydro 3 s 3.2
  ################################################################################
  #
  #  FHI-aims code project
  #  VB, Fritz-Haber Institut, 2009
  #
  #  Suggested "light" defaults for O atom (to be pasted into control.in file)
  #  Be sure to double-check any results obtained with these settings for post-processing,
  #  e.g., with the "tight" defaults and larger basis sets.
  #
  ################################################################################
    species        O
  #     global species definitions
      nucleus             8
      mass                15.9994
  #
      l_hartree           4
  #
      cut_pot             3.5  1.5  1.0
      basis_dep_cutoff    1e-4
  #
      radial_base         36 5.0
      radial_multiplier   1
       angular_grids specified
        division   0.2659   50
        division   0.4451  110
        division   0.6052  194
        division   0.7543  302
  #      division   0.8014  434
  #      division   0.8507  590
  #      division   0.8762  770
  #      division   0.9023  974
  #      division   1.2339 1202
  #      outer_grid 974
        outer_grid 302
  ################################################################################
  #
  #  Definition of "minimal" basis
  #
  ################################################################################
  #     valence basis states
      valence      2  s   2.
      valence      2  p   4.
  #     ion occupancy
      ion_occ      2  s   1.
      ion_occ      2  p   3.
  ################################################################################
  #
  #  Suggested additional basis functions. For production calculations,
  #  uncomment them one after another (the most important basis functions are
  #  listed first).
  #
  #  Constructed for dimers: 1.0 A, 1.208 A, 1.5 A, 2.0 A, 3.0 A
  #
  ################################################################################
  #  "First tier" - improvements: -699.05 meV to -159.38 meV
       hydro 2 p 1.8
       hydro 3 d 7.6
       hydro 3 s 6.4
  #  "Second tier" - improvements: -49.91 meV to -5.39 meV
  #     hydro 4 f 11.6
  #     hydro 3 p 6.2
  #     hydro 3 d 5.6
  #     hydro 5 g 17.6
  #     hydro 1 s 0.75
  #  "Third tier" - improvements: -2.83 meV to -0.50 meV
  #     ionic 2 p auto
  #     hydro 4 f 10.8
  #     hydro 4 d 4.7
  #     hydro 2 s 6.8
  #  "Fourth tier" - improvements: -0.40 meV to -0.12 meV
  #     hydro 3 p 5
  #     hydro 3 s 3.3
  #     hydro 5 g 15.6
  #     hydro 4 f 17.6
  #     hydro 4 d 14
  # Further basis functions - -0.08 meV and below
  #     hydro 3 s 2.1
  #     hydro 4 d 11.6
  #     hydro 3 p 16
  #     hydro 2 s 17.2
  
  -----------------------------------------------------------------------
  Completed first pass over input file control.in .
  -----------------------------------------------------------------------
  
  
  -----------------------------------------------------------------------
  Parsing geometry.in (first pass over file, find array dimensions only).
  The contents of geometry.in will be repeated verbatim below
  unless switched off by setting 'verbatim_writeout .false.' .
  in the first line of geometry.in .
  -----------------------------------------------------------------------
  
  #=======================================================
  # FHI-aims file: /ada/ptmp/mpsd/alewis/bulk_water/qmdata/data/geoms/245.in
  # Created using the Atomic Simulation Environment (ASE)
  # Tue Feb 21 11:23:37 2023
  #=======================================================
  lattice_vector 9.7662099999999992 0.0000000000000000 0.0000000000000000
  lattice_vector 0.0000000000000000 9.7662099999999992 0.0000000000000000
  lattice_vector 0.0000000000000000 0.0000000000000000 9.7662099999999992
  atom 7.2363600000000003 -0.3832400000000000 -11.6971000000000007 O
  atom 7.1310900000000004 -0.4815600000000000 -10.6946999999999992 H
  atom 6.4124900000000000 -0.8152870000000000 -12.1334000000000000 H
  atom 25.6060000000000016 16.6614000000000004 -3.8884200000000000 O
  atom 25.9136999999999986 15.7597000000000005 -3.6784500000000002 H
  atom 26.6519000000000013 16.9495000000000005 -4.0873499999999998 H
  atom 10.0403000000000002 -9.8995200000000008 8.1204199999999993 O
  atom 10.6784999999999997 -10.4611000000000001 7.6787999999999998 H
  atom 9.1721199999999996 -10.0656999999999996 7.9260200000000003 H
  atom 3.3844599999999998 -7.3121299999999998 -1.5230500000000000 O
  atom 4.2305799999999998 -6.9389399999999997 -1.4036999999999999 H
  atom 2.8913000000000002 -6.7004500000000000 -1.6575899999999999 H
  atom -6.7092499999999999 6.0838099999999997 15.2134999999999998 O
  atom -5.7704599999999999 5.9417600000000004 15.3498000000000001 H
  atom -7.0584499999999997 5.2123299999999997 15.1259999999999994 H
  atom -6.0351200000000000 -5.0311500000000002 12.1887000000000008 O
  atom -5.8016899999999998 -5.0189700000000004 13.1574000000000009 H
  atom -6.2341300000000004 -6.0428499999999996 12.0190999999999999 H
  atom 0.0169970000000000 6.7225900000000003 12.6171000000000006 O
  atom 0.9975650000000000 6.9605600000000001 12.6327999999999996 H
  atom -0.4053470000000000 7.3363699999999996 13.4238999999999997 H
  atom 12.6433999999999997 -3.7652000000000001 9.7760700000000007 O
  atom 13.2718000000000007 -3.0591100000000000 9.4637499999999992 H
  atom 13.0739000000000001 -3.8420700000000001 10.5768000000000004 H
  atom -10.0221000000000000 -7.6570400000000003 -19.9684999999999988 O
  atom -9.8366799999999994 -8.0459300000000002 -19.0284000000000013 H
  atom -9.8458699999999997 -8.5130300000000005 -20.2988999999999997 H
  atom 6.6194800000000003 -2.1686899999999998 3.0664400000000001 O
  atom 6.8550100000000000 -2.2743600000000002 4.0398800000000001 H
  atom 6.8758200000000000 -2.9465900000000000 2.5938099999999999 H
  atom 2.2993299999999999 20.1477000000000004 -15.1660000000000004 O
  atom 1.6746500000000000 20.3065999999999995 -15.9451000000000001 H
  atom 2.3548300000000002 20.9979000000000013 -15.0317000000000007 H
  atom -22.8219999999999992 -3.8392200000000001 8.6622800000000009 O
  atom -23.2395999999999994 -3.0135100000000001 8.3368099999999998 H
  atom -22.4033000000000015 -3.4545900000000000 9.5464699999999993 H
  atom 17.3035999999999994 8.9374900000000004 10.7393000000000001 O
  atom 18.1566000000000010 8.7753200000000007 10.5894999999999992 H
  atom 17.0982999999999983 8.6007599999999993 11.7391000000000005 H
  atom -1.2263599999999999 -1.3964600000000000 5.6101599999999996 O
  atom -1.7772800000000000 -0.7705379999999999 6.3351699999999997 H
  atom -0.4546990000000000 -1.5820900000000000 5.9818499999999997 H
  atom -11.9379000000000008 -5.9040600000000003 -13.0782000000000007 O
  atom -11.4420999999999999 -6.8951500000000001 -13.3268000000000004 H
  atom -11.3255999999999997 -5.2467899999999998 -12.7278000000000002 H
  atom 4.0926499999999999 18.6055999999999990 1.5390500000000000 O
  atom 5.1185600000000004 18.4935000000000009 1.6858900000000001 H
  atom 3.5815899999999998 18.1241999999999983 2.0473800000000000 H
  atom -15.5836000000000006 10.1280999999999999 6.5323099999999998 O
  atom -16.3380000000000010 9.9109800000000003 5.8408100000000003 H
  atom -15.9128000000000007 10.7721999999999998 7.2387400000000000 H
  atom 5.4031000000000002 -5.6604099999999997 4.7258300000000002 O
  atom 6.3023100000000003 -5.5193099999999999 4.9904000000000002 H
  atom 5.2934999999999999 -6.3144999999999998 5.3967200000000002 H
  atom 28.4769000000000005 5.7940500000000004 17.3231000000000002 O
  atom 27.5869000000000000 5.7178800000000001 17.7604000000000006 H
  atom 29.2770000000000010 5.4179199999999996 17.6698999999999984 H
  atom -31.2921000000000014 20.4682999999999993 -6.0009499999999996 O
  atom -31.9479000000000006 20.9359999999999999 -6.5057200000000002 H
  atom -31.4262000000000015 19.6747000000000014 -5.4809700000000001 H
  atom -6.3687199999999997 2.1868699999999999 11.3133999999999997 O
  atom -6.1187699999999996 1.3939800000000000 11.5647000000000002 H
  atom -6.6798900000000003 2.2075000000000000 10.3027999999999995 H
  atom -2.3311400000000000 25.0689999999999991 11.3954000000000004 O
  atom -2.6378599999999999 24.1198000000000015 11.3595000000000006 H
  atom -1.4557899999999999 25.0580999999999996 11.5609000000000002 H
  atom 14.1578999999999997 8.0890000000000004 -10.9549000000000003 O
  atom 13.7812000000000001 8.5656099999999995 -11.5881000000000007 H
  atom 13.7456999999999994 8.5190699999999993 -10.1355000000000004 H
  atom 6.1289400000000001 3.1762800000000002 18.7010000000000005 O
  atom 6.1270800000000003 4.1464800000000004 18.5532000000000004 H
  atom 7.1920200000000003 2.7902399999999998 18.3575000000000017 H
  atom 1.4841899999999999 -1.9106000000000001 -3.0666400000000000 O
  atom 2.0709800000000000 -2.0373399999999999 -3.7018599999999999 H
  atom 1.1269499999999999 -2.7747600000000001 -2.6334700000000000 H
  atom 10.3735999999999997 -18.3941000000000017 12.2279000000000000 O
  atom 10.8240999999999996 -17.4451999999999998 12.2294999999999998 H
  atom 9.5867199999999997 -18.6297999999999995 12.6981000000000002 H
  atom 11.5396999999999998 22.9780000000000015 24.7821999999999996 O
  atom 11.0416000000000007 22.6476000000000006 25.4439999999999991 H
  atom 10.8649000000000004 23.0975999999999999 23.9269999999999996 H
  atom 16.4018000000000015 12.6008999999999993 31.0920999999999985 O
  atom 16.4926999999999992 12.1760999999999999 30.1624000000000017 H
  atom 15.3829999999999991 12.7043999999999997 31.1599000000000004 H
  atom 9.2081099999999996 1.8635600000000001 5.7758399999999996 O
  atom 9.6700099999999996 1.1929900000000000 6.2212199999999998 H
  atom 8.7851499999999998 1.5219800000000001 5.0696500000000002 H
  atom -26.8932000000000002 7.8918100000000004 -6.4176799999999998 O
  atom -27.0429999999999993 8.7439699999999991 -6.0347299999999997 H
  atom -26.2604000000000006 7.2833300000000003 -5.7398300000000004 H
  atom 19.2951000000000015 13.7791999999999994 -6.3329100000000000 O
  atom 18.3476999999999997 13.9742999999999995 -6.0609299999999999 H
  atom 19.5344000000000015 14.7317000000000000 -6.5400000000000000 H
  atom 21.0422000000000011 4.0697599999999996 8.2809299999999997 O
  atom 21.4707000000000008 4.7170300000000003 8.8956700000000009 H
  atom 20.6263000000000005 3.2813599999999998 8.9044100000000004 H
  
  -----------------------------------------------------------------------
  Completed first pass over input file geometry.in .
  -----------------------------------------------------------------------
  

  Basic array size parameters:
  | Number of species                 :        2
  | Number of atoms                   :       96
  | Number of lattice vectors         :        3
  | Max. basis fn. angular momentum   :        2
  | Max. atomic/ionic basis occupied n:        2
  | Max. number of basis fn. types    :        2
  | Max. radial fns per species/type  :        3
  | Max. logarithmic grid size        :     1301
  | Max. radial integration grid size :       36
  | Max. angular integration grid size:      302
  | Max. angular grid division number :        8
  | Radial grid for Hartree potential :     1301
  | Number of spin channels           :        1

------------------------------------------------------------
          Reading file control.in.
------------------------------------------------------------
  XC: Using Perdew-Wang parametrisation of Ceperley-Alder LDA.
  Spin treatment: No spin polarisation.
  Non-relativistic treatment of kinetic energy.
  Charge =   0.000000E+00: Neutral system requested explicitly.
  DFPT calculation will begin after the DFT/HF calculation.
  Convergence accuracy of self-consistent charge density:  0.1000E-05
  Found k-point grid:         1         1         1
  Threshold value for wave function integration:  0.1000E-07
 
  Reading configuration options for species H                   .
  | Found nuclear charge :   1.0000
  | Found atomic mass :    1.00794000000000      amu
  | Found l_max for Hartree potential  :   4
  | Found cutoff potl. onset [A], width [A], scale factor :    3.50000    1.50000    1.00000
  | Threshold for basis-dependent cutoff potential is   0.100000E-03
  | Found data for basic radial integration grid :    24 points, outermost radius =    5.000 A
  | Found multiplier for basic radial grid :   1
  | Found angular grid specification: user-specified.
  | Specified grid contains     5 separate shells.
  | Check grid settings after all constraints further below.
  | Found free-atom valence shell :  1 s   1.000
  | No ionic wave fns used. Skipping ion_occ.
  | Found hydrogenic basis function :  2 s   2.100
  | Found hydrogenic basis function :  2 p   3.500
  Species H                   : Missing cutoff potential type.
  Defaulting to exp(1/x)/(1-x)^2 type cutoff potential.
  Species H : No 'logarithmic' tag. Using default grid for free atom:
  | Default logarithmic grid data [bohr] : 0.1000E-03 0.1000E+03 0.1012E+01
  Species H : On-site basis accuracy parameter (for Gram-Schmidt orthonormalisation) not specified.
  Using default value basis_acc =  0.1000000E-03.
  Species H                   : Using default innermost maximum threshold i_radial=  2 for radial functions.
  Species H                   : Default cutoff onset for free atom density etc. : 0.35000000E+01 AA.
  Species H                   : Basic radial grid will be enhanced according to radial_multiplier =   1, to contain    24 grid points.
 
  Reading configuration options for species O                   .
  | Found nuclear charge :   8.0000
  | Found atomic mass :    15.9994000000000      amu
  | Found l_max for Hartree potential  :   4
  | Found cutoff potl. onset [A], width [A], scale factor :    3.50000    1.50000    1.00000
  | Threshold for basis-dependent cutoff potential is   0.100000E-03
  | Found data for basic radial integration grid :    36 points, outermost radius =    5.000 A
  | Found multiplier for basic radial grid :   1
  | Found angular grid specification: user-specified.
  | Specified grid contains     5 separate shells.
  | Check grid settings after all constraints further below.
  | Found free-atom valence shell :  2 s   2.000
  | Found free-atom valence shell :  2 p   4.000
  | No ionic wave fns used. Skipping ion_occ.
  | No ionic wave fns used. Skipping ion_occ.
  | Found hydrogenic basis function :  2 p   1.800
  | Found hydrogenic basis function :  3 d   7.600
  | Found hydrogenic basis function :  3 s   6.400
  Species O                   : Missing cutoff potential type.
  Defaulting to exp(1/x)/(1-x)^2 type cutoff potential.
  Species O : No 'logarithmic' tag. Using default grid for free atom:
  | Default logarithmic grid data [bohr] : 0.1000E-03 0.1000E+03 0.1012E+01
  Species O : On-site basis accuracy parameter (for Gram-Schmidt orthonormalisation) not specified.
  Using default value basis_acc =  0.1000000E-03.
  Species O                   : Using default innermost maximum threshold i_radial=  2 for radial functions.
  Species O                   : Default cutoff onset for free atom density etc. : 0.35000000E+01 AA.
  Species O                   : Basic radial grid will be enhanced according to radial_multiplier =   1, to contain    36 grid points.
 
  Finished reading input file 'control.in'.
 
------------------------------------------------------------


------------------------------------------------------------
          Reading geometry description geometry.in.
------------------------------------------------------------
  | The smallest distance between any two atoms is         0.79715759 AA.
  | The first atom of this pair is atom number                     10 .
  | The second atom of this pair is atom number                    12 .
  | Wigner-Seitz cell of the first atom image           0     0     0 .
  | (The Wigner-Seitz cell of the second atom is 0 0 0  by definition.)

  Symmetry information by spglib:
  | Precision set to  0.1E-04
  | Number of Operations  : 1
  | Space group           : 1
  | International         : P1 G
  | Schoenflies           : C1^1
  Input structure read successfully.
  The structure contains       96 atoms,  and a total of        320.000 electrons.

  Input geometry:
  | Unit cell:
  |        9.76621000        0.00000000        0.00000000
  |        0.00000000        9.76621000        0.00000000
  |        0.00000000        0.00000000        9.76621000
  | Atomic structure:
  |       Atom                x [A]            y [A]            z [A]
  |    1: Species O             7.23636000       -0.38324000      -11.69710000
  |    2: Species H             7.13109000       -0.48156000      -10.69470000
  |    3: Species H             6.41249000       -0.81528700      -12.13340000
  |    4: Species O            25.60600000       16.66140000       -3.88842000
  |    5: Species H            25.91370000       15.75970000       -3.67845000
  |    6: Species H            26.65190000       16.94950000       -4.08735000
  |    7: Species O            10.04030000       -9.89952000        8.12042000
  |    8: Species H            10.67850000      -10.46110000        7.67880000
  |    9: Species H             9.17212000      -10.06570000        7.92602000
  |   10: Species O             3.38446000       -7.31213000       -1.52305000
  |   11: Species H             4.23058000       -6.93894000       -1.40370000
  |   12: Species H             2.89130000       -6.70045000       -1.65759000
  |   13: Species O            -6.70925000        6.08381000       15.21350000
  |   14: Species H            -5.77046000        5.94176000       15.34980000
  |   15: Species H            -7.05845000        5.21233000       15.12600000
  |   16: Species O            -6.03512000       -5.03115000       12.18870000
  |   17: Species H            -5.80169000       -5.01897000       13.15740000
  |   18: Species H            -6.23413000       -6.04285000       12.01910000
  |   19: Species O             0.01699700        6.72259000       12.61710000
  |   20: Species H             0.99756500        6.96056000       12.63280000
  |   21: Species H            -0.40534700        7.33637000       13.42390000
  |   22: Species O            12.64340000       -3.76520000        9.77607000
  |   23: Species H            13.27180000       -3.05911000        9.46375000
  |   24: Species H            13.07390000       -3.84207000       10.57680000
  |   25: Species O           -10.02210000       -7.65704000      -19.96850000
  |   26: Species H            -9.83668000       -8.04593000      -19.02840000
  |   27: Species H            -9.84587000       -8.51303000      -20.29890000
  |   28: Species O             6.61948000       -2.16869000        3.06644000
  |   29: Species H             6.85501000       -2.27436000        4.03988000
  |   30: Species H             6.87582000       -2.94659000        2.59381000
  |   31: Species O             2.29933000       20.14770000      -15.16600000
  |   32: Species H             1.67465000       20.30660000      -15.94510000
  |   33: Species H             2.35483000       20.99790000      -15.03170000
  |   34: Species O           -22.82200000       -3.83922000        8.66228000
  |   35: Species H           -23.23960000       -3.01351000        8.33681000
  |   36: Species H           -22.40330000       -3.45459000        9.54647000
  |   37: Species O            17.30360000        8.93749000       10.73930000
  |   38: Species H            18.15660000        8.77532000       10.58950000
  |   39: Species H            17.09830000        8.60076000       11.73910000
  |   40: Species O            -1.22636000       -1.39646000        5.61016000
  |   41: Species H            -1.77728000       -0.77053800        6.33517000
  |   42: Species H            -0.45469900       -1.58209000        5.98185000
  |   43: Species O           -11.93790000       -5.90406000      -13.07820000
  |   44: Species H           -11.44210000       -6.89515000      -13.32680000
  |   45: Species H           -11.32560000       -5.24679000      -12.72780000
  |   46: Species O             4.09265000       18.60560000        1.53905000
  |   47: Species H             5.11856000       18.49350000        1.68589000
  |   48: Species H             3.58159000       18.12420000        2.04738000
  |   49: Species O           -15.58360000       10.12810000        6.53231000
  |   50: Species H           -16.33800000        9.91098000        5.84081000
  |   51: Species H           -15.91280000       10.77220000        7.23874000
  |   52: Species O             5.40310000       -5.66041000        4.72583000
  |   53: Species H             6.30231000       -5.51931000        4.99040000
  |   54: Species H             5.29350000       -6.31450000        5.39672000
  |   55: Species O            28.47690000        5.79405000       17.32310000
  |   56: Species H            27.58690000        5.71788000       17.76040000
  |   57: Species H            29.27700000        5.41792000       17.66990000
  |   58: Species O           -31.29210000       20.46830000       -6.00095000
  |   59: Species H           -31.94790000       20.93600000       -6.50572000
  |   60: Species H           -31.42620000       19.67470000       -5.48097000
  |   61: Species O            -6.36872000        2.18687000       11.31340000
  |   62: Species H            -6.11877000        1.39398000       11.56470000
  |   63: Species H            -6.67989000        2.20750000       10.30280000
  |   64: Species O            -2.33114000       25.06900000       11.39540000
  |   65: Species H            -2.63786000       24.11980000       11.35950000
  |   66: Species H            -1.45579000       25.05810000       11.56090000
  |   67: Species O            14.15790000        8.08900000      -10.95490000
  |   68: Species H            13.78120000        8.56561000      -11.58810000
  |   69: Species H            13.74570000        8.51907000      -10.13550000
  |   70: Species O             6.12894000        3.17628000       18.70100000
  |   71: Species H             6.12708000        4.14648000       18.55320000
  |   72: Species H             7.19202000        2.79024000       18.35750000
  |   73: Species O             1.48419000       -1.91060000       -3.06664000
  |   74: Species H             2.07098000       -2.03734000       -3.70186000
  |   75: Species H             1.12695000       -2.77476000       -2.63347000
  |   76: Species O            10.37360000      -18.39410000       12.22790000
  |   77: Species H            10.82410000      -17.44520000       12.22950000
  |   78: Species H             9.58672000      -18.62980000       12.69810000
  |   79: Species O            11.53970000       22.97800000       24.78220000
  |   80: Species H            11.04160000       22.64760000       25.44400000
  |   81: Species H            10.86490000       23.09760000       23.92700000
  |   82: Species O            16.40180000       12.60090000       31.09210000
  |   83: Species H            16.49270000       12.17610000       30.16240000
  |   84: Species H            15.38300000       12.70440000       31.15990000
  |   85: Species O             9.20811000        1.86356000        5.77584000
  |   86: Species H             9.67001000        1.19299000        6.22122000
  |   87: Species H             8.78515000        1.52198000        5.06965000
  |   88: Species O           -26.89320000        7.89181000       -6.41768000
  |   89: Species H           -27.04300000        8.74397000       -6.03473000
  |   90: Species H           -26.26040000        7.28333000       -5.73983000
  |   91: Species O            19.29510000       13.77920000       -6.33291000
  |   92: Species H            18.34770000       13.97430000       -6.06093000
  |   93: Species H            19.53440000       14.73170000       -6.54000000
  |   94: Species O            21.04220000        4.06976000        8.28093000
  |   95: Species H            21.47070000        4.71703000        8.89567000
  |   96: Species H            20.62630000        3.28136000        8.90441000

  Lattice parameters for 3D lattice (in Angstroms) :     9.766210    9.766210    9.766210
  Angle(s) between unit vectors (in degrees)       :    90.000000   90.000000   90.000000


  Quantities derived from the lattice vectors (in Angstrom^-1):
  | Reciprocal lattice vector 1:  0.643360  0.000000  0.000000
  | Reciprocal lattice vector 2:  0.000000  0.643360  0.000000
  | Reciprocal lattice vector 3:  0.000000  0.000000  0.643360
  | Unit cell volume                               :   0.931490E+03  Angstrom^3

  Fractional coordinates:
                         L1                L2                L3
       atom_frac         0.74095888       -0.03924143       -1.19771129  O
       atom_frac         0.73017988       -0.04930879       -1.09507168  H
       atom_frac         0.65659964       -0.08348039       -1.24238574  H
       atom_frac         2.62189734        1.70602516       -0.39815036  O
       atom_frac         2.65340393        1.61369661       -0.37665072  H
       atom_frac         2.72899108        1.73552484       -0.41851957  H
       atom_frac         1.02806513       -1.01365013        0.83148120  O
       atom_frac         1.09341290       -1.07115247        0.78626202  H
       atom_frac         0.93916883       -1.03066594        0.81157583  H
       atom_frac         0.34654794       -0.74871726       -0.15595098  O
       atom_frac         0.43318544       -0.71050489       -0.14373027  H
       atom_frac         0.29605139       -0.68608498       -0.16972705  H
       atom_frac        -0.68698605        0.62294483        1.55776908  O
       atom_frac        -0.59085971        0.60839978        1.57172537  H
       atom_frac        -0.72274198        0.53371062        1.54880962  H
       atom_frac        -0.61795927       -0.51515890        1.24804812  O
       atom_frac        -0.59405747       -0.51391174        1.34723706  H
       atom_frac        -0.63833667       -0.61875077        1.23068212  H
       atom_frac         0.00174039        0.68835198        1.29191365  O
       atom_frac         0.10214454        0.71271865        1.29352123  H
       atom_frac        -0.04150505        0.75119929        1.37452502  H
       atom_frac         1.29460661       -0.38553339        1.00100960  O
       atom_frac         1.35895091       -0.31323410        0.96902995  H
       atom_frac         1.33868717       -0.39340440        1.08299944  H
       atom_frac        -1.02620157       -0.78403393       -2.04465192  O
       atom_frac        -1.00721570       -0.82385388       -1.94839144  H
       atom_frac        -1.00815670       -0.87168205       -2.07848285  H
       atom_frac         0.67779415       -0.22206055        0.31398465  O
       atom_frac         0.70191098       -0.23288051        0.41365893  H
       atom_frac         0.70404179       -0.30171274        0.26559023  H
       atom_frac         0.23543729        2.06300090       -1.55290537  O
       atom_frac         0.17147389        2.07927128       -1.63268044  H
       atom_frac         0.24112015        2.15005616       -1.53915388  H
       atom_frac        -2.33683281       -0.39311258        0.88696434  O
       atom_frac        -2.37959249       -0.30856494        0.85363821  H
       atom_frac        -2.29396050       -0.35372883        0.97749997  H
       atom_frac         1.77178250        0.91514416        1.09963845  O
       atom_frac         1.85912447        0.89853894        1.08429985  H
       atom_frac         1.75076104        0.88066507        1.20201183  H
       atom_frac        -0.12557174       -0.14298894        0.57444597  O
       atom_frac        -0.18198257       -0.07889836        0.64868255  H
       atom_frac        -0.04655839       -0.16199631        0.61250475  H
       atom_frac        -1.22236774       -0.60453953       -1.33912746  O
       atom_frac        -1.17160086       -0.70602107       -1.36458258  H
       atom_frac        -1.15967197       -0.53723911       -1.30324865  H
       atom_frac         0.41906226        1.90509932        0.15758928  O
       atom_frac         0.52410915        1.89362096        0.17262480  H
       atom_frac         0.36673285        1.85580691        0.20963915  H
       atom_frac        -1.59566505        1.03705532        0.66886848  O
       atom_frac        -1.67291099        1.01482356        0.59806312  H
       atom_frac        -1.62937311        1.10300721        0.74120258  H
       atom_frac         0.55324430       -0.57959126        0.48389600  O
       atom_frac         0.64531789       -0.56514349        0.51098635  H
       atom_frac         0.54202193       -0.64656607        0.55259103  H
       atom_frac         2.91585989        0.59327518        1.77377918  O
       atom_frac         2.82472935        0.58547584        1.81855602  H
       atom_frac         2.99778522        0.55476178        1.80928938  H
       atom_frac        -3.20411910        2.09582837       -0.61446047  O
       atom_frac        -3.27126900        2.14371798       -0.66614582  H
       atom_frac        -3.21785012        2.01456860       -0.56121771  H
       atom_frac        -0.65211786        0.22392207        1.15842277  O
       atom_frac        -0.62652452        0.14273500        1.18415434  H
       atom_frac        -0.68397976        0.22603446        1.05494352  H
       atom_frac        -0.23869444        2.56691183        1.16681906  O
       atom_frac        -0.27010068        2.46971957        1.16314312  H
       atom_frac        -0.14906397        2.56579574        1.18376525  H
       atom_frac         1.44968212        0.82826398       -1.12171456  O
       atom_frac         1.41111035        0.87706592       -1.18655036  H
       atom_frac         1.40747537        0.87230051       -1.03781303  H
       atom_frac         0.62756586        0.32523159        1.91486769  O
       atom_frac         0.62737541        0.42457412        1.89973388  H
       atom_frac         0.73641873        0.28570346        1.87969540  H
       atom_frac         0.15197195       -0.19563372       -0.31400513  O
       atom_frac         0.21205565       -0.20861112       -0.37904776  H
       atom_frac         0.11539277       -0.28411840       -0.26965117  H
       atom_frac         1.06219301       -1.88344301        1.25206196  O
       atom_frac         1.10832145       -1.78628147        1.25222579  H
       atom_frac         0.98162132       -1.90757725        1.30020755  H
       atom_frac         1.18159450        2.35280626        2.53754527  O
       atom_frac         1.13059211        2.31897532        2.60530953  H
       atom_frac         1.11249912        2.36505256        2.44997804  H
       atom_frac         1.67944371        1.29025487        3.18364033  O
       atom_frac         1.68875132        1.24675795        3.08844475  H
       atom_frac         1.57512484        1.30085263        3.19058263  H
       atom_frac         0.94285398        0.19081711        0.59141059  O
       atom_frac         0.99014971        0.12215486        0.63701477  H
       atom_frac         0.89954547        0.15584142        0.51910106  H
       atom_frac        -2.75369872        0.80807294       -0.65713107  O
       atom_frac        -2.76903732        0.89532889       -0.61791934  H
       atom_frac        -2.68890388        0.74576832       -0.58772339  H
       atom_frac         1.97569989        1.41090556       -0.64845114  O
       atom_frac         1.87869194        1.43088260       -0.62060206  H
       atom_frac         2.00020274        1.50843572       -0.66965588  H
       atom_frac         2.15459221        0.41671846        0.84791644  O
       atom_frac         2.19846798        0.48299494        0.91086204  H
       atom_frac         2.11200660        0.33599114        0.91175697  H

 
  Finished reading input file 'geometry.in'.
 

 
  Consistency checks for stacksize environment parameter are next.
 
  | Maximum stacksize for task 0: unlimited
  | Maximum stacksize for task 1: unlimited
  | Maximum stacksize for task 2: unlimited
  | Maximum stacksize for task 3: unlimited
  | Maximum stacksize for task 4: unlimited
  | Maximum stacksize for task 5: unlimited
  | Maximum stacksize for task 6: unlimited
  | Maximum stacksize for task 7: unlimited
  | Maximum stacksize for task 8: unlimited
  | Maximum stacksize for task 9: unlimited
  | Maximum stacksize for task 10: unlimited
  | Maximum stacksize for task 11: unlimited
  | Maximum stacksize for task 12: unlimited
  | Maximum stacksize for task 13: unlimited
  | Maximum stacksize for task 14: unlimited
  | Maximum stacksize for task 15: unlimited
  | Maximum stacksize for task 16: unlimited
  | Maximum stacksize for task 17: unlimited
  | Current stacksize for task 0: unlimited
  | Current stacksize for task 1: unlimited
  | Current stacksize for task 2: unlimited
  | Current stacksize for task 3: unlimited
  | Current stacksize for task 4: unlimited
  | Current stacksize for task 5: unlimited
  | Current stacksize for task 6: unlimited
  | Current stacksize for task 7: unlimited
  | Current stacksize for task 8: unlimited
  | Current stacksize for task 9: unlimited
  | Current stacksize for task 10: unlimited
  | Current stacksize for task 11: unlimited
  | Current stacksize for task 12: unlimited
  | Current stacksize for task 13: unlimited
  | Current stacksize for task 14: unlimited
  | Current stacksize for task 15: unlimited
  | Current stacksize for task 16: unlimited
  | Current stacksize for task 17: unlimited
 
  Consistency checks for the contents of control.in are next.
 
  MPI_IN_PLACE appears to work with this MPI implementation.
  | Keeping use_mpi_in_place .true. (see manual).
  Explicit treatment of the Coulomb operator is needed, but the RI method is not specified.
  Coulomb operator: Defaulting to 'LVL fast' resolution of identity - RI_type = LVL_fast
  Species H: Using default value for prodbas_acc =   1.000000E-06.
  Species H: Using default value max_l_prodbas =     6.
  Species O: Using default value for prodbas_acc =   1.000000E-06.
  Species O: Using default value max_l_prodbas =     6.
  Target number of points in a grid batch is not set.  Since GPU acceleration is enabled, defaulting to  200
  Method for grid partitioning is not set. Defaulting to parallel hash+maxmin partitioning.
  Batch size limit is not set. Defaulting to    200
  By default, will store active basis functions for each batch.
  If in need of memory, prune_basis_once .false. can be used to disable this option.
  communication_type for Hartree potential was not specified.
  Defaulting to calc_hartree .
  Defaulting to Pulay charge density mixer.
  Pulay mixer: Number of relevant iterations not set.
  Defaulting to    8 iterations.
  Pulay mixer: Number of initial linear mixing iterations not set.
  Defaulting to    0 iterations.
  Work space size for distributed Hartree potential not set.
  Defaulting to   0.200000E+03 MB.
  Mixing parameter for charge density mixing has not been set.
  Using default: charge_mix_param =     0.0500.
  The mixing parameter will be adjusted in iteration number     2 of the first full s.c.f. cycle only.
  Algorithm-dependent basis array size parameters:
  | n_max_pulay                         :        8
  Maximum number of self-consistency iterations not provided.
  Presetting  1000 iterations.
  Presetting      1001 iterations before the initial mixing cycle
  is restarted anyway using the sc_init_iter criterion / keyword.
  Presetting a factor      1.000 between actual scf density residual
  and density convergence criterion sc_accuracy_rho below which sc_init_iter
  takes no effect.
  Calculation of forces was not defined in control.in. No forces will be calculated.
  Geometry relaxation not requested: no relaxation will be performed.
  No accuracy limit for integral partition fn. given. Defaulting to  0.1000E-14.
  No occupation type (smearing scheme) given. Defaulting to Gaussian broadening, width =  0.1000E-01 eV.
  The width will be adjusted in iteration number     2 of the first full s.c.f. cycle only.
  S.C.F. convergence parameters will be adjusted in iteration number     2 of the first full s.c.f. cycle only.
  No accuracy for occupation numbers given. Defaulting to  0.1000E-12.
  No threshold value for occupation numbers given. Defaulting to  0.0000E+00.
  No accuracy for fermi level given. Defaulting to  0.1000E-19.
  Maximum # of iterations to find E_F not set. Defaulting to  200.
  Preferred method for the eigenvalue solver ('KS_method') not specified in 'control.in'.
  Calling BLACS routine to test compilation state
  Since ScaLAPACK support is enabled, defaulting to ELPA (via ELSI).
  Will not use alltoall communication since running on < 1024 CPUs.
  Threshold for basis singularities not set.
  Default threshold for basis singularities:  0.1000E-04
  partition_type (choice of integration weights) for integrals was not specified.
  | Using a version of the partition function of Stratmann and coworkers ('stratmann_sparse').
  | At each grid point, the set of atoms used to build the partition table is smoothly restricted to
  | only those atoms whose free-atom density would be non-zero at that grid point.
  Partitioning for Hartree potential was not defined. Using partition_type for integrals.
  | Adjusted default value of keyword multip_moments_threshold to:       0.10000000E-11
  | This value may affect high angular momentum components of the Hartree potential in periodic systems.
  Angular momentum expansion for Kerker preconditioner not set explicitly.
  | Using default value of   0
  No explicit requirement for turning off preconditioner.
  | By default, it will be turned off when the charge convergence reaches
  | sc_accuracy_rho  =   0.100000E-05
  No special mixing parameter while Kerker preconditioner is on.
  Using default: charge_mix_param =     0.0500.
  Threshold for auxiliary basis singularities not set.
  Default threshold for auxiliary basis singularities:  0.1000E-04
  No q(lm)/r^(l+1) cutoff set for long-range Hartree potential.
  | Using default value of  0.100000E-09 .
  | Verify using the multipole_threshold keyword.
  Defaulting to new monopole extrapolation.
  Density update method: automatic selection selected.
  Using density matrix based charge density update.
  Using density matrix based charge density update.
  Using packed matrix style: index .
  Defaulting to use time-reversal symmetry for k-point grid.
  Charge integration errors on the 3D integration grid will be compensated
  by explicit normalization and distribution of residual charges.
  Use the "compensate_multipole_errors" flag to change this behaviour.
  Default to 1D ("use_logsbt") integrations for auxiliary 2-center integrals.
  Default onset of logarithmic r-grid for SBT is -38.000000000000
  Default onset of logarithmic k-grid for SBT is -25.000000000000
  Default range of logarithmic r- and k-grid for SBT is  45.000000000000
  Default number of logarithmic r- and k-grid for SBT is   4096
  Default of use_2d_corr is to use the efficient 2D distribution where possible
 
  Consistency checks for the contents of geometry.in are next.
 

  Range separation radius for Ewald summation (hartree_convergence_parameter):      2.93949767 bohr.
  Number of empty states per atom not set in control.in .
  | Since you are using a method that relies on the unoccupied spectrum
  | (MP2,GW,RPA et al.), will use the full Hamiltonian size (see below)
  | as the max. possible number of states (occupied plus empty).

  Structure-dependent array size parameters: 
  | Maximum number of distinct radial functions  :        9
  | Maximum number of basis functions            :      768
  | Number of Kohn-Sham states (occupied + empty):      768
------------------------------------------------------------

  Performing system and environment tests:
  | Environment variable OMP_NUM_THREADS correctly set to 1.
  | Checking for ScaLAPACK...
  | Testing pdtran()...
  | All pdtran() tests passed.
CUDA runtime version: 11060
CUDA driver version: 11060
  Initializing GPUs...

  Number of GPUs available to MPI task         0 :   1
  Number of GPUs available to MPI task         1 :   1
  Number of GPUs available to MPI task         2 :   1
  Number of GPUs available to MPI task         3 :   1
  Number of GPUs available to MPI task         4 :   1
  Number of GPUs available to MPI task         5 :   1
  Number of GPUs available to MPI task         6 :   1
  Number of GPUs available to MPI task         7 :   1
  Number of GPUs available to MPI task         8 :   1
  Number of GPUs available to MPI task         9 :   1
  Number of GPUs available to MPI task        10 :   1
  Number of GPUs available to MPI task        11 :   1
  Number of GPUs available to MPI task        12 :   1
  Number of GPUs available to MPI task        13 :   1
  Number of GPUs available to MPI task        14 :   1
  Number of GPUs available to MPI task        15 :   1
  Number of GPUs available to MPI task        16 :   1
  Number of GPUs available to MPI task        17 :   1

  | MPI task         0, GPU activated = T, Device Name = NVIDIA A100-SXM4-80GB
  | MPI task         1, GPU activated = T, Device Name = NVIDIA A100-SXM4-80GB
  | MPI task         2, GPU activated = T, Device Name = NVIDIA A100-SXM4-80GB
  | MPI task         3, GPU activated = T, Device Name = NVIDIA A100-SXM4-80GB
  | MPI task         4, GPU activated = T, Device Name = NVIDIA A100-SXM4-80GB
  | MPI task         5, GPU activated = T, Device Name = NVIDIA A100-SXM4-80GB
  | MPI task         6, GPU activated = T, Device Name = NVIDIA A100-SXM4-80GB
  | MPI task         7, GPU activated = T, Device Name = NVIDIA A100-SXM4-80GB
  | MPI task         8, GPU activated = T, Device Name = NVIDIA A100-SXM4-80GB
  | MPI task         9, GPU activated = T, Device Name = NVIDIA A100-SXM4-80GB
  | MPI task        10, GPU activated = T, Device Name = NVIDIA A100-SXM4-80GB
  | MPI task        11, GPU activated = T, Device Name = NVIDIA A100-SXM4-80GB
  | MPI task        12, GPU activated = T, Device Name = NVIDIA A100-SXM4-80GB
  | MPI task        13, GPU activated = T, Device Name = NVIDIA A100-SXM4-80GB
  | MPI task        14, GPU activated = T, Device Name = NVIDIA A100-SXM4-80GB
  | MPI task        15, GPU activated = T, Device Name = NVIDIA A100-SXM4-80GB
  | MPI task        16, GPU activated = T, Device Name = NVIDIA A100-SXM4-80GB
  | MPI task        17, GPU activated = T, Device Name = NVIDIA A100-SXM4-80GB

------------------------------------------------------------
          Preparing all fixed parts of the calculation.
------------------------------------------------------------
  Determining machine precision:
    2.225073858507201E-308
  Setting up grids for atomic and cluster calculations.

  Creating wave function, potential, and density for free atoms.
  Runtime choices for atomic solver:
  | atomic solver xc        : PW-LDA
  | compute density gradient: 0
  | compute kinetic density : F

  Species: H

  List of occupied orbitals and eigenvalues:
    n    l              occ      energy [Ha]    energy [eV]
    1    0           1.0000        -0.232375        -6.3233


  Species: O

  List of occupied orbitals and eigenvalues:
    n    l              occ      energy [Ha]    energy [eV]
    1    0           2.0000       -18.757744      -510.4242
    2    0           2.0000        -0.870917       -23.6989
    2    1           4.0000        -0.337950        -9.1961


  Adding cutoff potential to free-atom effective potential.
  Creating fixed part of basis set: Ionic, confined, hydrogenic.
 
  H                    hydrogenic:
 
  List of hydrogenic basis orbitals: 
    n    l      effective z      eigenvalue [eV]  inner max. [A]     outer max. [A]     outer radius [A]   
    2    0         2.100000       -14.9728           0.193243           1.317208           4.696947
    2    1         3.500000       -41.6669           0.602369           0.602369           3.862494
 
 
  O                    hydrogenic:
 
  List of hydrogenic basis orbitals: 
    n    l      effective z      eigenvalue [eV]  inner max. [A]     outer max. [A]     outer radius [A]   
    2    1         1.800000       -10.9749           1.164242           1.164242           4.691341
    3    2         7.600000       -87.3180           0.624125           0.624125           3.413946
    3    0         6.400000       -61.9207           0.061167           1.081902           4.151495
 
  Creating atomic-like basis functions for current effective potential.

  Species H                   :

  List of atomic basis orbitals and eigenvalues:
    n    l      energy [Ha]    energy [eV]    outer radius [A]
    1    0        -0.232375        -6.3233       4.696947


  Species O                   :

  List of atomic basis orbitals and eigenvalues:
    n    l      energy [Ha]    energy [eV]    outer radius [A]
    1    0       -18.757744      -510.4242       1.830144
    2    0        -0.870917       -23.6989       4.578029
    2    1        -0.337950        -9.1961       4.634338

  Assembling full basis from fixed parts.
  | Species H :   atomic orbital   1 s accepted.
  | Species H :    hydro orbital   2 s accepted.
  | Species H :    hydro orbital   2 p accepted.
  | Species O :   atomic orbital   1 s accepted.
  | Species O :    hydro orbital   3 s accepted.
  | Species O :   atomic orbital   2 s accepted.
  | Species O :   atomic orbital   2 p accepted.
  | Species O :    hydro orbital   2 p accepted.
  | Species O :    hydro orbital   3 d accepted.
 
  Basis size parameters after reduction:
  | Total number of radial functions:        9
  | Total number of basis functions :      768
 
  Per-task memory consumption for arrays in subroutine allocate_ext:
  |           2.268304MB.
  Testing on-site integration grid accuracy.
  |  Species  Function  <phi|h_atom|phi> (log., in eV)  <phi|h_atom|phi> (rad., in eV)
           1        1                 -6.3245358373                 -6.3232436907
           1        2                 14.1326137532                 14.1384481100
           1        3                 25.3627025200                 25.3628451197
           2        4               -510.4241781764               -510.4240769407
           2        5                 14.9072942213                 14.9072945271
           2        6                -21.2004736474                -21.2005650551
           2        7                 -9.1962086505                 -9.1963509834
           2        8                  8.1896755006                  8.1702200081
           2        9                 45.7920584937                 45.7920228520

  Preparing densities etc. for the partition functions (integrals / Hartree potential).

  Preparations completed.
  max(cpu_time)          :      0.071 s.
  Wall clock time (cpu1) :      0.064 s.
------------------------------------------------------------

  Initializing index lists of integration centers etc. from given atomic structure:
  Mapping all atomic coordinates to central unit cell.

  Initializing the k-points
  Using symmetry for reducing the k-points
  | k-points reduced from:        1 to        1
  | Number of k-points                             :         1
  | Consuming          0 KiB for k_phase_exx.
  The eigenvectors in the calculations are REAL.
  | Number of basis functions in the Hamiltonian integrals :      4593
  | Number of basis functions in a single unit cell        :       768
  | Number of centers in hartree potential         :      2560
  | Number of centers in hartree multipole         :      1925
  | Number of centers in electron density summation:      1489
  | Number of centers in basis integrals           :      1595
  | Number of centers in integrals                 :       722
  | Number of centers in hamiltonian               :      1490
  | Consuming          0 KiB for k_phase.
  | Number of super-cells (origin) [n_cells]                     :         125
  | Number of super-cells (after PM_index) [n_cells]             :          28
  | Number of super-cells in hamiltonian [n_cells_in_hamiltonian]:          28
  | Size of matrix packed + index [n_hamiltonian_matrix_size] :      815840
  | Size of matrix packed + index (no_symmetry):     1630911

------------------------------------------------------------
          Begin self-consistency loop: Initialization.

          Date     :  20230221, Time     :  161051.475
------------------------------------------------------------
  | Estimated reciprocal-space cutoff momentum G_max:         3.21825062 bohr^-1 .
  | Reciprocal lattice points for long-range Hartree potential:    3574
  Using simple linear distribution as default method for k-point parallelism.
  * Using 18 tasks for Scalapack Eigenvalue solver.
  Detailed listing of tasks and assigned k-points:
   Task     0 k-point     1 on adag039
   Task     1 k-point     1 on adag039
   Task     2 k-point     1 on adag039
   Task     3 k-point     1 on adag039
   Task     4 k-point     1 on adag039
   Task     5 k-point     1 on adag039
   Task     6 k-point     1 on adag039
   Task     7 k-point     1 on adag039
   Task     8 k-point     1 on adag039
   Task     9 k-point     1 on adag039
   Task    10 k-point     1 on adag039
   Task    11 k-point     1 on adag039
   Task    12 k-point     1 on adag039
   Task    13 k-point     1 on adag039
   Task    14 k-point     1 on adag039
   Task    15 k-point     1 on adag039
   Task    16 k-point     1 on adag039
   Task    17 k-point     1 on adag039
  K-point:     1 Tasks:    18 split into      6 X      3 BLACS grid
  Calculating block size based on n_basis =          768  max_nprow =            6  max_npcol =            3
  ScaLAPACK block size set to:           16
  Allocating        0.250 MB for ovlp
  Allocating        0.250 MB for ham
  Allocating        0.250 MB for eigenvec
  Required Scalapack workspace - INTEGER:            1  REAL:             1
  Partitioning the integration grid into batches with parallel hashing+maxmin method.
  | Number of batches:     4046
  | Maximal batch size:     200
  | Minimal batch size:      99
  | Average batch size:     125.944
  | Standard deviation of batch sizes:      26.087

  Integration load balanced across    18 MPI tasks.
  Work distribution over tasks is as follows:
  Task     0 has      28270 integration points.
  Task     1 has      28320 integration points.
  Task     2 has      28317 integration points.
  Task     3 has      28275 integration points.
  Task     4 has      28335 integration points.
  Task     5 has      28273 integration points.
  Task     6 has      28335 integration points.
  Task     7 has      28257 integration points.
  Task     8 has      28323 integration points.
  Task     9 has      28324 integration points.
  Task    10 has      28295 integration points.
  Task    11 has      28318 integration points.
  Task    12 has      28329 integration points.
  Task    13 has      28326 integration points.
  Task    14 has      28294 integration points.
  Task    15 has      28371 integration points.
  Task    16 has      28277 integration points.
  Task    17 has      28329 integration points.
  Initializing partition tables, free-atom densities, potentials, etc. across the integration grid (initialize_grid_storage).
  | initialize_grid_storage: Actual outermost partition radius vs. multipole_radius_free
  | (-- VB: in principle, multipole_radius_free should be larger, hence this output)
  | Species        1: Confinement radius =              4.999999999999999 AA, multipole_radius_free =              5.054417573612229 AA.
  | Species        1: outer_partition_radius set to              5.054417573612229 AA .
  | Species        2: Confinement radius =              4.999999999999999 AA, multipole_radius_free =              5.048384829883283 AA.
  | Species        2: outer_partition_radius set to              5.048384829883283 AA .
  | The sparse table of interatomic distances needs       5460.34 kbyte instead of     20352.20 kbyte of memory.
  | Net number of integration points:   509568
  | of which are non-zero points    :   404989
  | Numerical average free-atom electrostatic potential    :     -5.59455749 eV
  Renormalizing the initial density to the exact electron count on the 3D integration grid.
  | Initial density: Formal number of electrons (from input files) :     320.0000000000
  | Integrated number of electrons on 3D grid     :     319.9973272117
  | Charge integration error                      :      -0.0026727883
  | Normalization factor for density and gradient :       1.0000083525
  Renormalizing the free-atom superposition density to the exact electron count on the 3D integration grid.
  | Formal number of electrons (from input files) :     320.0000000000
  | Integrated number of electrons on 3D grid     :     319.9973272117
  | Charge integration error                      :      -0.0026727883
  | Normalization factor for density and gradient :       1.0000083525
  Obtaining max. number of non-zero basis functions in each batch (get_n_compute_maxes).
  | Maximal number of non-zero basis functions:      454 in task     0
  | Maximal number of non-zero basis functions:      449 in task     1
  | Maximal number of non-zero basis functions:      438 in task     2
  | Maximal number of non-zero basis functions:      439 in task     3
  | Maximal number of non-zero basis functions:      442 in task     4
  | Maximal number of non-zero basis functions:      432 in task     5
  | Maximal number of non-zero basis functions:      442 in task     6
  | Maximal number of non-zero basis functions:      428 in task     7
  | Maximal number of non-zero basis functions:      452 in task     8
  | Maximal number of non-zero basis functions:      450 in task     9
  | Maximal number of non-zero basis functions:      435 in task    10
  | Maximal number of non-zero basis functions:      422 in task    11
  | Maximal number of non-zero basis functions:      434 in task    12
  | Maximal number of non-zero basis functions:      431 in task    13
  | Maximal number of non-zero basis functions:      436 in task    14
  | Maximal number of non-zero basis functions:      450 in task    15
  | Maximal number of non-zero basis functions:      427 in task    16
  | Maximal number of non-zero basis functions:      440 in task    17
  Integrating Hamiltonian matrix: batch-based integration.
  GPU acceleration will be used when integrating the Hamiltonian matrix.
  Reporting GPU memory usage by myid 0.  Note that it is likely not the only MPI task binding to its GPU!
  Allocating        1.649 MB on GPU for hamiltonian_shell
  Allocating        0.726 MB on GPU for wave
  Allocating        0.002 MB on GPU for partition
  Allocating        0.726 MB on GPU for h_times_psi
  Time summed over all CPUs for integration: real work       12.151 s, elapsed       12.740 s
  Deallocating memory used on GPU for Hamiltonian integration.
  Integrating overlap matrix.
  Time summed over all CPUs for integration: real work        9.729 s, elapsed       10.301 s
  Deallocating overlap matrix.

  Updating Kohn-Sham eigenvalues and eigenvectors using ELSI and the ELPA eigensolver.
  Singularity check in k-point 1 (analysis for other k-points may follow below):
  Overlap matrix is not singular
  | Lowest and highest eigenvalues :  0.1874E-02,  0.7558E+01
  Finished singularity check of overlap matrix
  | Time :     0.150 s
  Starting ELPA eigensolver (GPU)
  Finished Cholesky decomposition
  | Time :     0.007 s
  Finished transformation to standard eigenproblem
  | Time :     0.027 s
  Finished solving standard eigenproblem
  | Time :     0.179 s
  Finished back-transformation of eigenvectors
  | Time :     0.018 s

  Obtaining occupation numbers and electronic chemical potential using ELSI.
  | Note that, for insulating systems, the printed 'chemical potential' value is not uniquely defined.
  | It can be anywhere in the energy gap, as long as it correctly separates occupied and unoccupied states.
  | In systems with a gap, the physically relevant chemical potential is the VBM or HOMO.

  | Chemical potential (Fermi level):    -7.14520079 eV
  Writing Kohn-Sham eigenvalues.

  State    Occupation    Eigenvalue [Ha]    Eigenvalue [eV]
      1       2.00000         -18.933778         -515.21430
      2       2.00000         -18.905719         -514.45078
      3       2.00000         -18.896181         -514.19124
      4       2.00000         -18.892689         -514.09623
      5       2.00000         -18.888725         -513.98835
      6       2.00000         -18.888573         -513.98423
      7       2.00000         -18.887904         -513.96601
      8       2.00000         -18.885105         -513.88984
      9       2.00000         -18.884827         -513.88228
     10       2.00000         -18.881773         -513.79920
     11       2.00000         -18.881767         -513.79902
     12       2.00000         -18.881306         -513.78647
     13       2.00000         -18.880732         -513.77085
     14       2.00000         -18.875644         -513.63241
     15       2.00000         -18.875287         -513.62270
     16       2.00000         -18.874691         -513.60649
     17       2.00000         -18.873560         -513.57570
     18       2.00000         -18.870129         -513.48234
     19       2.00000         -18.868656         -513.44226
     20       2.00000         -18.867517         -513.41126
     21       2.00000         -18.860930         -513.23202
     22       2.00000         -18.859887         -513.20363
     23       2.00000         -18.859085         -513.18181
     24       2.00000         -18.856609         -513.11443
     25       2.00000         -18.852444         -513.00112
     26       2.00000         -18.852332         -512.99806
     27       2.00000         -18.851478         -512.97482
     28       2.00000         -18.849275         -512.91486
     29       2.00000         -18.849068         -512.90924
     30       2.00000         -18.848296         -512.88823
     31       2.00000         -18.845107         -512.80145
     32       2.00000         -18.840572         -512.67804
     33       2.00000          -1.201081          -32.68307
     34       2.00000          -1.155328          -31.43808
     35       2.00000          -1.153449          -31.38694
     36       2.00000          -1.136711          -30.93148
     37       2.00000          -1.134128          -30.86118
     38       2.00000          -1.129995          -30.74872
     39       2.00000          -1.128132          -30.69803
     40       2.00000          -1.123176          -30.56318
     41       2.00000          -1.122270          -30.53852
     42       2.00000          -1.120203          -30.48227
     43       2.00000          -1.117607          -30.41163
     44       2.00000          -1.114754          -30.33401
     45       2.00000          -1.111678          -30.25030
     46       2.00000          -1.108873          -30.17398
     47       2.00000          -1.105121          -30.07187
     48       2.00000          -1.104316          -30.04996
     49       2.00000          -1.103193          -30.01940
     50       2.00000          -1.100050          -29.93389
     51       2.00000          -1.097054          -29.85237
     52       2.00000          -1.086285          -29.55931
     53       2.00000          -1.084229          -29.50337
     54       2.00000          -1.081572          -29.43108
     55       2.00000          -1.077519          -29.32078
     56       2.00000          -1.071387          -29.15393
     57       2.00000          -1.069896          -29.11335
     58       2.00000          -1.069105          -29.09184
     59       2.00000          -1.067163          -29.03898
     60       2.00000          -1.064711          -28.97227
     61       2.00000          -1.059120          -28.82012
     62       2.00000          -1.056243          -28.74184
     63       2.00000          -1.051565          -28.61455
     64       2.00000          -1.043852          -28.40467
     65       2.00000          -0.732968          -19.94508
     66       2.00000          -0.709650          -19.31055
     67       2.00000          -0.706037          -19.21225
     68       2.00000          -0.690400          -18.78675
     69       2.00000          -0.686459          -18.67949
     70       2.00000          -0.679169          -18.48113
     71       2.00000          -0.674436          -18.35235
     72       2.00000          -0.673072          -18.31523
     73       2.00000          -0.669169          -18.20902
     74       2.00000          -0.667679          -18.16847
     75       2.00000          -0.664732          -18.08829
     76       2.00000          -0.662618          -18.03074
     77       2.00000          -0.661265          -17.99395
     78       2.00000          -0.658052          -17.90650
     79       2.00000          -0.653942          -17.79466
     80       2.00000          -0.644067          -17.52596
     81       2.00000          -0.638797          -17.38255
     82       2.00000          -0.634364          -17.26193
     83       2.00000          -0.631801          -17.19217
     84       2.00000          -0.631012          -17.17071
     85       2.00000          -0.627046          -17.06279
     86       2.00000          -0.620614          -16.88776
     87       2.00000          -0.618455          -16.82900
     88       2.00000          -0.616847          -16.78526
     89       2.00000          -0.615354          -16.74463
     90       2.00000          -0.614213          -16.71358
     91       2.00000          -0.611359          -16.63591
     92       2.00000          -0.608348          -16.55398
     93       2.00000          -0.606325          -16.49895
     94       2.00000          -0.597371          -16.25529
     95       2.00000          -0.588578          -16.01601
     96       2.00000          -0.581247          -15.81653
     97       2.00000          -0.580596          -15.79883
     98       2.00000          -0.569052          -15.48469
     99       2.00000          -0.564681          -15.36576
    100       2.00000          -0.561707          -15.28483
    101       2.00000          -0.559207          -15.21680
    102       2.00000          -0.556436          -15.14139
    103       2.00000          -0.553030          -15.04870
    104       2.00000          -0.550108          -14.96919
    105       2.00000          -0.548939          -14.93739
    106       2.00000          -0.545755          -14.85075
    107       2.00000          -0.542098          -14.75123
    108       2.00000          -0.535355          -14.56774
    109       2.00000          -0.534813          -14.55300
    110       2.00000          -0.531327          -14.45815
    111       2.00000          -0.528672          -14.38588
    112       2.00000          -0.524726          -14.27852
    113       2.00000          -0.521358          -14.18687
    114       2.00000          -0.518843          -14.11844
    115       2.00000          -0.517637          -14.08562
    116       2.00000          -0.514044          -13.98785
    117       2.00000          -0.511757          -13.92562
    118       2.00000          -0.510597          -13.89406
    119       2.00000          -0.508319          -13.83206
    120       2.00000          -0.506056          -13.77050
    121       2.00000          -0.502804          -13.68199
    122       2.00000          -0.499728          -13.59829
    123       2.00000          -0.499007          -13.57867
    124       2.00000          -0.497347          -13.53349
    125       2.00000          -0.494719          -13.46198
    126       2.00000          -0.492214          -13.39382
    127       2.00000          -0.489134          -13.31002
    128       2.00000          -0.487350          -13.26146
    129       2.00000          -0.486389          -13.23533
    130       2.00000          -0.477474          -12.99273
    131       2.00000          -0.475082          -12.92763
    132       2.00000          -0.472428          -12.85542
    133       2.00000          -0.470738          -12.80944
    134       2.00000          -0.469395          -12.77289
    135       2.00000          -0.467183          -12.71270
    136       2.00000          -0.466681          -12.69904
    137       2.00000          -0.466501          -12.69413
    138       2.00000          -0.465255          -12.66023
    139       2.00000          -0.464459          -12.63858
    140       2.00000          -0.462549          -12.58661
    141       2.00000          -0.461080          -12.54662
    142       2.00000          -0.460436          -12.52909
    143       2.00000          -0.459897          -12.51444
    144       2.00000          -0.458962          -12.48900
    145       2.00000          -0.457086          -12.43794
    146       2.00000          -0.456289          -12.41626
    147       2.00000          -0.454839          -12.37681
    148       2.00000          -0.454037          -12.35497
    149       2.00000          -0.451533          -12.28685
    150       2.00000          -0.450628          -12.26221
    151       2.00000          -0.446604          -12.15272
    152       2.00000          -0.445922          -12.13415
    153       2.00000          -0.445160          -12.11343
    154       2.00000          -0.442175          -12.03218
    155       2.00000          -0.437735          -11.91137
    156       2.00000          -0.436581          -11.87997
    157       2.00000          -0.436021          -11.86473
    158       2.00000          -0.435049          -11.83828
    159       2.00000          -0.434562          -11.82503
    160       2.00000          -0.421310          -11.46444
    161       0.00000          -0.179071           -4.87277
    162       0.00000          -0.126015           -3.42905
    163       0.00000          -0.119116           -3.24131
    164       0.00000          -0.112932           -3.07303
    165       0.00000          -0.109603           -2.98245
    166       0.00000          -0.105711           -2.87655
    167       0.00000          -0.095760           -2.60577
    168       0.00000          -0.081256           -2.21109
    169       0.00000          -0.076195           -2.07337
    170       0.00000          -0.071328           -1.94093
    171       0.00000          -0.065455           -1.78112
    172       0.00000          -0.061296           -1.66795
    173       0.00000          -0.057815           -1.57324
    174       0.00000          -0.053837           -1.46498
    175       0.00000          -0.051984           -1.41456
    176       0.00000          -0.043763           -1.19086
    177       0.00000          -0.043525           -1.18438
    178       0.00000          -0.041248           -1.12243
    179       0.00000          -0.034449           -0.93742
    180       0.00000          -0.025426           -0.69187
    181       0.00000          -0.017564           -0.47795
    182       0.00000          -0.009543           -0.25969
    183       0.00000          -0.004953           -0.13477
    184       0.00000          -0.000678           -0.01844
    185       0.00000           0.006578            0.17899
    186       0.00000           0.009090            0.24737
    187       0.00000           0.011732            0.31923
    188       0.00000           0.013204            0.35931
    189       0.00000           0.016346            0.44480
    190       0.00000           0.018227            0.49598
    191       0.00000           0.020365            0.55416
    192       0.00000           0.026724            0.72719
    193       0.00000           0.035048            0.95370
    194       0.00000           0.040935            1.11390
    195       0.00000           0.041349            1.12517
    196       0.00000           0.048991            1.33311
    197       0.00000           0.050966            1.38685
    198       0.00000           0.052996            1.44211
    199       0.00000           0.057527            1.56539
    200       0.00000           0.060197            1.63803
    201       0.00000           0.064187            1.74662
    202       0.00000           0.066089            1.79839
    203       0.00000           0.067819            1.84545
    204       0.00000           0.070409            1.91593
    205       0.00000           0.074022            2.01425
    206       0.00000           0.078229            2.12872
    207       0.00000           0.078668            2.14066
    208       0.00000           0.082379            2.24165
    209       0.00000           0.085331            2.32198
    210       0.00000           0.086745            2.36046
    211       0.00000           0.091897            2.50064
    212       0.00000           0.095483            2.59822
    213       0.00000           0.100072            2.72311
    214       0.00000           0.101427            2.75997
    215       0.00000           0.105078            2.85931
    216       0.00000           0.105786            2.87857
    217       0.00000           0.113438            3.08680
    218       0.00000           0.119921            3.26321
    219       0.00000           0.120725            3.28509
    220       0.00000           0.123588            3.36301
    221       0.00000           0.128312            3.49156
    222       0.00000           0.130598            3.55376
    223       0.00000           0.134444            3.65840
    224       0.00000           0.141918            3.86180
    225       0.00000           0.146082            3.97508
    226       0.00000           0.150900            4.10619
    227       0.00000           0.156887            4.26912
    228       0.00000           0.161089            4.38346
    229       0.00000           0.170143            4.62981
    230       0.00000           0.176187            4.79430
    231       0.00000           0.179967            4.89716
    232       0.00000           0.188241            5.12230
    233       0.00000           0.191617            5.21415
    234       0.00000           0.195323            5.31502
    235       0.00000           0.198956            5.41387
    236       0.00000           0.206847            5.62858
    237       0.00000           0.216248            5.88441
    238       0.00000           0.223915            6.09304
    239       0.00000           0.225628            6.13966
    240       0.00000           0.232002            6.31309
    241       0.00000           0.238932            6.50167
    242       0.00000           0.243889            6.63655
    243       0.00000           0.246255            6.70094
    244       0.00000           0.253883            6.90851
    245       0.00000           0.258946            7.04629
    246       0.00000           0.264292            7.19175
    247       0.00000           0.274595            7.47212
    248       0.00000           0.277991            7.56452
    249       0.00000           0.286522            7.79665
    250       0.00000           0.291683            7.93710
    251       0.00000           0.298588            8.12499
    252       0.00000           0.305062            8.30116
    253       0.00000           0.314147            8.54839
    254       0.00000           0.325182            8.84866
    255       0.00000           0.328653            8.94309
    256       0.00000           0.331896            9.03135
    257       0.00000           0.335484            9.12898
    258       0.00000           0.341581            9.29490
    259       0.00000           0.345188            9.39305
[...]
  |    H      0     4.527807 A      4.527807 A        1.268855E-16 a.u.
  |    H      0     4.527807 A      4.583499 A       -4.900954E-17 a.u.
  |    H      0     4.527807 A      4.583499 A        4.713786E-16 a.u.
  |    H      2     3.678162 A  2.180220E+05 A            0.556529 a.u.
  |    H      1     3.958095 A  1.721251E+08 A            0.841931 a.u.
  |    H      0     4.527807 A  3.866455E+16 A            0.581436 a.u.
  |    O      0     2.043000 A      2.043000 A       -1.436841E-16 a.u.
  |    O      3     3.498446 A      3.498446 A        3.043453E-17 a.u.
  |    O      3     3.498446 A      3.498446 A        1.541443E-16 a.u.
  |    O      0     3.905335 A      3.905335 A        2.173090E-16 a.u.
  |    O      0     3.905335 A      3.905335 A        7.213445E-17 a.u.
  |    O      0     4.101052 A      4.101052 A        2.361718E-16 a.u.
  |    O      1     4.101052 A      4.101052 A        3.235185E-17 a.u.
  |    O      0     4.359549 A      4.359549 A       -5.329475E-17 a.u.
  |    O      1     4.413171 A      4.413171 A        3.261883E-17 a.u.
  |    O      1     4.522403 A      4.522403 A        6.417997E-16 a.u.
  |    O      1     4.522403 A      4.522403 A        4.224783E-16 a.u.
  |    O      2     4.522403 A      4.522403 A       -4.387647E-16 a.u.
  |    O      0     4.522403 A      4.578029 A        2.602039E-16 a.u.
  |    O      0     4.578029 A      4.578029 A        1.226235E-16 a.u.
  |    O      1     4.578029 A      4.578029 A       -6.107316E-16 a.u.
  |    O      1     4.578029 A      4.578029 A       -2.224438E-16 a.u.
  |    O      2     4.578029 A      4.578029 A       -7.020279E-16 a.u.
  |    O      2     4.522403 A      4.578029 A        1.323470E-15 a.u.
  |    O      2     4.578029 A      4.578029 A        7.923696E-16 a.u.
  |    O      2     4.522403 A      4.578029 A       -9.951815E-16 a.u.
  |    O      0     4.578029 A      4.634338 A       -8.813582E-18 a.u.
  |    O      1     4.578029 A      4.634338 A       -3.325386E-17 a.u.
  |    O      1     4.634338 A      4.634338 A        9.588032E-16 a.u.
  |    O      2     4.578029 A      4.634338 A        1.064715E-17 a.u.
  |    O      2     4.578029 A      4.634338 A       -3.770343E-15 a.u.
  |    O      4     3.251020 A  1.511584E+03 A            1.513372 a.u.
  |    O      3     3.541477 A  1.434166E+04 A            4.293220 a.u.
  |    O      2     4.634338 A  5.584435E+05 A            9.352428 a.u.
  |    O      1     4.634338 A  2.821283E+08 A            2.261940 a.u.
  |    O      0     4.578029 A  4.264100E+16 A            0.641234 a.u.

  | Shrink_full_auxil_basis : there are       38  radial auxiliary wave functions
                            accepted and       5 rejected.
  | Shrink_full_auxil_basis : there are totally                4544 partial auxiliary wave functions.
 
  | Maximal number of product basis functions per thread :   256   256
 
  | Minimal total memory requirement for three-center overlap :      10.450 Gbs
  | Number of local auxiliary basis functions on task:      0   256
  | Number of local auxiliary basis functions on task:      1   256
  | Number of local auxiliary basis functions on task:      2   256
  | Number of local auxiliary basis functions on task:      3   256
  | Number of local auxiliary basis functions on task:      4   256
  | Number of local auxiliary basis functions on task:      5   256
  | Number of local auxiliary basis functions on task:      6   256
  | Number of local auxiliary basis functions on task:      7   256
  | Number of local auxiliary basis functions on task:      8   256
  | Number of local auxiliary basis functions on task:      9   256
  | Number of local auxiliary basis functions on task:     10   256
  | Number of local auxiliary basis functions on task:     11   256
  | Number of local auxiliary basis functions on task:     12   256
  | Number of local auxiliary basis functions on task:     13   256
  | Number of local auxiliary basis functions on task:     14   240
  | Number of local auxiliary basis functions on task:     15   240
  | Number of local auxiliary basis functions on task:     16   240
  | Number of local auxiliary basis functions on task:     17   240
  | 2D aux task distribution:      3 X      6
  | 2D block size (nb_aux_2d):     64
 
  Basis pair condensation :    295296  -->     230864
 
 --------------------------------------------
  Constructing auxiliary basis (full product) ...
 
  Product basis:
  | charge radius: extent of product basis function
  | field radius: extent of its Coulomb potential
  | Species   l  charge radius    field radius  multipol momen
  |    H      1     3.910002 A      3.910002 A       -2.487223E-16 a.u.
  |    H      1     3.958095 A      3.958095 A       -2.441841E-16 a.u.
  |    H      0     4.527807 A      4.527807 A        1.268855E-16 a.u.
  |    H      0     4.527807 A      4.583499 A       -4.900954E-17 a.u.
  |    H      0     4.527807 A      4.583499 A        4.713786E-16 a.u.
  |    H      2     3.678162 A  2.180220E+05 A            0.556529 a.u.
  |    H      1     3.958095 A  1.721251E+08 A            0.841931 a.u.
  |    H      0     4.527807 A  3.866455E+16 A            0.581436 a.u.
  |    O      0     2.043000 A      2.043000 A       -1.436841E-16 a.u.
  |    O      3     3.498446 A      3.498446 A        3.043453E-17 a.u.
  |    O      3     3.498446 A      3.498446 A        1.541443E-16 a.u.
  |    O      0     3.905335 A      3.905335 A        2.173090E-16 a.u.
  |    O      0     3.905335 A      3.905335 A        7.213445E-17 a.u.
  |    O      0     4.101052 A      4.101052 A        2.361718E-16 a.u.
  |    O      1     4.101052 A      4.101052 A        3.235185E-17 a.u.
  |    O      0     4.359549 A      4.359549 A       -5.329475E-17 a.u.
  |    O      1     4.413171 A      4.413171 A        3.261883E-17 a.u.
  |    O      1     4.522403 A      4.522403 A        6.417997E-16 a.u.
  |    O      1     4.522403 A      4.522403 A        4.224783E-16 a.u.
  |    O      2     4.522403 A      4.522403 A       -4.387647E-16 a.u.
  |    O      0     4.522403 A      4.578029 A        2.602039E-16 a.u.
  |    O      0     4.578029 A      4.578029 A        1.226235E-16 a.u.
  |    O      1     4.578029 A      4.578029 A       -6.107316E-16 a.u.
  |    O      1     4.578029 A      4.578029 A       -2.224438E-16 a.u.
  |    O      2     4.578029 A      4.578029 A       -7.020279E-16 a.u.
  |    O      2     4.522403 A      4.578029 A        1.323470E-15 a.u.
  |    O      2     4.578029 A      4.578029 A        7.923696E-16 a.u.
  |    O      2     4.522403 A      4.578029 A       -9.951815E-16 a.u.
  |    O      0     4.578029 A      4.634338 A       -8.813582E-18 a.u.
  |    O      1     4.578029 A      4.634338 A       -3.325386E-17 a.u.
  |    O      1     4.634338 A      4.634338 A        9.588032E-16 a.u.
  |    O      2     4.578029 A      4.634338 A        1.064715E-17 a.u.
  |    O      2     4.578029 A      4.634338 A       -3.770343E-15 a.u.
  |    O      4     3.251020 A  1.511584E+03 A            1.513372 a.u.
  |    O      3     3.541477 A  1.434166E+04 A            4.293220 a.u.
  |    O      2     4.634338 A  5.584435E+05 A            9.352428 a.u.
  |    O      1     4.634338 A  2.821283E+08 A            2.261940 a.u.
  |    O      0     4.578029 A  4.264100E+16 A            0.641234 a.u.

  | Shrink_full_auxil_basis : there are       38  radial auxiliary wave functions
                            accepted and       5 rejected.
  | Shrink_full_auxil_basis : there are totally                4544 partial auxiliary wave functions.
 
  | Maximal number of product basis functions per thread :   256   256
 
  | Minimal total memory requirement for three-center overlap :      10.450 Gbs
  | Number of local auxiliary basis functions on task:      0   256
  | Number of local auxiliary basis functions on task:      1   256
  | Number of local auxiliary basis functions on task:      2   256
  | Number of local auxiliary basis functions on task:      3   256
  | Number of local auxiliary basis functions on task:      4   256
  | Number of local auxiliary basis functions on task:      5   256
  | Number of local auxiliary basis functions on task:      6   256
  | Number of local auxiliary basis functions on task:      7   256
  | Number of local auxiliary basis functions on task:      8   256
  | Number of local auxiliary basis functions on task:      9   256
  | Number of local auxiliary basis functions on task:     10   256
  | Number of local auxiliary basis functions on task:     11   256
  | Number of local auxiliary basis functions on task:     12   256
  | Number of local auxiliary basis functions on task:     13   256
  | Number of local auxiliary basis functions on task:     14   240
  | Number of local auxiliary basis functions on task:     15   240
  | Number of local auxiliary basis functions on task:     16   240
  | Number of local auxiliary basis functions on task:     17   240
  | 2D aux task distribution:      3 X      6
  | 2D block size (nb_aux_2d):     64
 
  Basis pair condensation :    295296  -->     230864
dP_dE (Bohr^3) at every cycle:--->
 (353.836981319060,0.000000000000000E+000) (0.130961975500285,0.000000000000000E+000) (10.0887402716834,0.000000000000000E+000)
 (0.157019333802226,0.000000000000000E+000) (362.650505399277,0.000000000000000E+000) (-7.69130932514908,0.000000000000000E+000)
 (10.1098715061877,0.000000000000000E+000) (-7.70320124950697,0.000000000000000E+000) (369.424066092835,0.000000000000000E+000)
DFPT polarizability (Bohr^3)        xx        yy        zz        xy        xz        yz
  | Polarizability:--->                       353.836981319                  362.650505399                  369.424066093                    0.130961976                   10.088740272                   -7.691309325

DFPT for dielectric_constant:--->  # PARSE DFPT_dielectric_tensor
               1.707356430973891             0.000261806426332             0.020168426954687
               0.000313897759183             1.724975569918736            -0.015375716505019
               0.020210670460624            -0.015399489681977             1.738516612743935

                                               :  max(cpu_time)    wall_clock(cpu1)
  | Time for  dielectric calculation            :        0.000 s           0.000 s
===========================================================================

------------------------------------------------------------------------------
  Final output of selected total energy values:

  The following output summarizes some interesting total energy values
  at the end of a run (AFTER all relaxation, molecular dynamics, etc.).

  | Total energy of the DFT / Hartree-Fock s.c.f. calculation      :         -66107.935242339 eV
  | Final zero-broadening corrected energy (caution - metals only) :         -66107.935242339 eV
  | For reference only, the value of 1 Hartree used in FHI-aims is :             27.211384500 eV
  | For reference only, the overall average (free atom contribution
  | + realspace contribution) of the electrostatic potential after
  | s.c.f. convergence is                                          :             -5.171057434 eV

  Before relying on these values, please be sure to understand exactly which
  total energy value is referred to by a given number. Different objects may
  all carry the same name 'total energy'. Definitions:

  Total energy of the DFT / Hartree-Fock s.c.f. calculation:
  | Note that this energy does not include ANY quantities calculated after the
  | s.c.f. cycle, in particular not ANY RPA, MP2, etc. many-body perturbation terms.

  Final zero-broadening corrected energy:
  | For metallic systems only, a broadening of the occupation numbers at the Fermi
  | level can be extrapolated back to zero broadening by an electron-gas inspired
  | formula. For all systems that are not real metals, this value can be
  | meaningless and should be avoided.

------------------------------------------------------------------------------
  Methods described in the following list of references were used in this FHI-aims run.
  If you publish the results, please make sure to cite these reference if they apply.
  FHI-aims is an academic code, and for our developers (often, Ph.D. students
  and postdocs), scientific credit in the community is essential.
  Thank you for helping us!

  For any use of FHI-aims, please cite:

    Volker Blum, Ralf Gehrke, Felix Hanke, Paula Havu, Ville Havu,
    Xinguo Ren, Karsten Reuter, and Matthias Scheffler
    'Ab initio molecular simulations with numeric atom-centered orbitals'
    Computer Physics Communications 180, 2175-2196 (2009)
    http://doi.org/10.1016/j.cpc.2009.06.022


  For Hartree-Fock, hybrid functionals, or many-body perturbation theory used in your run, please cite:

    Xinguo Ren, Patrick Rinke, Volker Blum, Juergen Wieferink, Alex Tkatchenko,
    Andrea Sanfilippo, Karsten Reuter, and Matthias Scheffler,
    'Resolution-of-identity approach to Hartree-Fock, hybrid density functionals,
    RPA, MP2, and GW with numeric atom-centered orbital basis functions'
    New Journal of Physics 14, 053020 (2012).
    http://doi.org/10.1088/1367-2630/14/5/053020


  The provided symmetry information was generated with SPGlib:

    Atsushi Togo, Yusuke Seto, Dimitar Pashov
    SPGlib 1.7.3 obtained from http://spglib.sourceforge.net
    Copyright (C) 2008 Atsushi Togo


  The DFPT (perturbation by an electric field) part of the code was used.
  Here is the corresponding reference:

    Honghui Shang, Nathaniel Raimbault, Mariana Rossi,
    Christian Carbogno, Patrick Rinke and Matthias Scheffler,
    'All-Electron, Real-Space Perturbation Theory for Homogeneous
    Electric Fields: Theory, Implementation, and Application within dft'
    New Journal of Physics, 20(7):073040, 2018


  The ELSI infrastructure was used in your run to solve the Kohn-Sham electronic structure.
  Please check out http://elsi-interchange.org to learn more.
  If scalability is important for your project, please acknowledge ELSI by citing:

    V. W-z. Yu, F. Corsetti, A. Garcia, W. P. Huhn, M. Jacquelin, W. Jia,
    B. Lange, L. Lin, J. Lu, W. Mi, A. Seifitokaldani, A. Vazquez-Mayagoitia,
    C. Yang, H. Yang, and V. Blum
    'ELSI: A unified software interface for Kohn-Sham electronic structure solvers'
    Computer Physics Communications 222, 267-285 (2018).
    http://doi.org/10.1016/j.cpc.2017.09.007


  For the real-space grid partitioning and parallelization used in this calculation, please cite:

    Ville Havu, Volker Blum, Paula Havu, and Matthias Scheffler,
    'Efficient O(N) integration for all-electron electronic structure calculation'
    'using numerically tabulated basis functions'
    Journal of Computational Physics 228, 8367-8379 (2009).
    http://doi.org/10.1016/j.jcp.2009.08.008


  The high-level electronic structure method used in your calculation
  employed our efficient localized resolution of identity for the Coulomb operator.
  Some calculations, especially large-scale hybrid density functional theory,
  are only possible thanks to this development. For this feature, please cite:

    Arvid Ihrig, Juergen Wieferink, Igor Ying Zhang, Matti Ropo, Xinguo Ren,
    Patrick Rinke, Matthias Scheffler, and Volker Blum,
    'Accurate localized resolution of identity approach for linear-scaling
    hybrid density functionals and for many-body perturbation theory'
    New Journal of Physics 117, 093020 (2015).
    http://doi.org/10.1088/1367-2630/17/9/093020

  Of course, there are many other important community references, e.g., those cited in the
  above references. Our list is limited to references that describe implementations in the
  FHI-aims code. The reason is purely practical (length of this list) - please credit others as well.

------------------------------------------------------------
          Leaving FHI-aims.
          Date     :  20230221, Time     :  161914.973

          Computational steps:
          | Number of self-consistency cycles          :           45
          | Number of SCF (re)initializations          :            1
          | Number of coupled perturbed self-consistency cycles          :            0
          | Number of CPSCF (re)initializations          :            0

          Detailed time accounting                     :  max(cpu_time)    wall_clock(cpu1)
          | Total time                                  :      503.490 s         514.204 s
          | GPU initialization                          :        2.129 s           9.289 s
          | Preparation time                            :        0.071 s           0.064 s
          | Boundary condition initalization            :        1.263 s           1.263 s
          | Grid partitioning                           :        0.410 s           0.411 s
          | Preloading free-atom quantities on grid     :        2.486 s           2.486 s
          | Free-atom superposition energy              :        0.320 s           0.320 s
          | Total time for integrations                 :       12.643 s          12.833 s
          | Product basis setup: Total time             :        0.000 s           0.000 s
          | Product basis: | 2-center integrations     :(       0.000 s)  (       0.000 s)
          | Product basis: | LVL 3-center & coefficient:(       0.000 s)  (       0.000 s)
          | Total time for solution of K.-S. equations  :        2.328 s           4.558 s
          | Total time for density update               :        8.965 s           9.292 s
          | Total time for mixing & preconditioning     :        8.538 s           8.541 s
          | Total time for Hartree multipole update     :        0.099 s           0.101 s
          | Total time for Hartree multipole sum        :       35.429 s          35.441 s
          | Total time for total energy evaluation      :        0.006 s           0.014 s
          | Total time for DFPT                         :      428.340 s         428.504 s
          | Total time first_order_DM                   :        0.320 s           0.318 s
          | Total time first_order_density              :       92.107 s          92.120 s
          | Total time first_order_potential            :       52.921 s          52.942 s
          | Total time first_order_H                    :      185.249 s         185.313 s
          | Total time solving of Sternheimer equations :        0.184 s           0.184 s
          | Total time for dielectric constant          :        0.000 s           0.000 s
          | Total time momentum matrix                  :        0.000 s           0.000 s

          GPU acceleration has been used for charge density update.
          GPU acceleration has been used for real-space Hamiltonian integration.
          Due to GPU usage, wall_clock(cpu1) will give a more reliable estimate for timings.

          Partial memory accounting:
          | Residual value for overall tracked memory usage across tasks:     0.000000 MB (should be 0.000000 MB)
          | Peak values for overall tracked memory usage:
          |   Minimum:      122.127 MB (on task  0 after allocating DFPT_pulay_mixing::pulay_mix::alphas)
          |   Maximum:      122.127 MB (on task  0 after allocating DFPT_pulay_mixing::pulay_mix::alphas)
          |   Average:      122.127 MB
          | Largest tracked array allocation:
          |   Minimum:       43.571 MB (DFPT_pulay_mixing::initialize_pulay_mixing::X_in_diffs on task  0)
          |   Maximum:       43.571 MB (DFPT_pulay_mixing::initialize_pulay_mixing::X_in_diffs on task  0)
          |   Average:       43.571 MB
          Note:  These values currently only include a subset of arrays which are explicitly tracked.
          The "true" memory usage will be greater.

          Have a nice day.
------------------------------------------------------------
