------------------------------------------------------------
          Invoking FHI-aims ...

          When using FHI-aims, please cite the following reference:

            Volker Blum, Ralf Gehrke, Felix Hanke, Paula Havu,
            Ville Havu, Xinguo Ren, Karsten Reuter, and Matthias Scheffler,
            'Ab Initio Molecular Simulations with Numeric Atom-Centered Orbitals',
            Computer Physics Communications 180, 2175-2196 (2009)

          In addition, many other developments in FHI-aims are likely important for
          your particular application. A partial list of references is given at the end of
          this file. Thank you for giving credit to the authors of these developments.

          For any questions about FHI-aims, please visit our slack channel at

            https://fhi-aims.slack.com

          and our main development and support site at

            https://aims-git.rz-berlin.mpg.de .

          The latter site, in particular, has a wiki to collect information, as well
          as an issue tracker to log discussions, suggest improvements, and report issues
          or bugs. https://aims-git.rz-berlin.mpg.de is also the main development site
          of the project and all new and updated code versions can be obtained there.
          Please send an email to aims-coordinators@fhi-berlin.mpg.de and we will add
          you to these sites. They are for you and everyone is welcome there.

------------------------------------------------------------



  Date     :  20230221, Time     :  134440.640
  Time zero on CPU 1             :   0.390154000000000E+00  s.
  Internal wall clock time zero  :           446219080.640  s.

  FHI-aims created a unique identifier for this run for later identification
  aims_uuid : F3508E84-77DD-49D8-AE08-C98D243A90C1

  Build configuration of the current instance of FHI-aims
  -------------------------------------------------------
  FHI-aims version      : 221103
  Commit number         : 42523251a
  CMake host system     : Linux-5.3.18-150300.59.68-default
  CMake version         : 3.17.0
  Fortran compiler      : /mpcdf/soft/SLE_15/packages/x86_64/intel_oneapi/2021.3/mpi/2021.3.0/bin/mpiifort (Intel) version 20.2.3.20210609
  Fortran compiler flags: -O3 -ip -fp-model precise
  C compiler            : /mpcdf/soft/SLE_15/packages/x86_64/intel/2021.3.0/bin/icc (Intel) version 20.2.3.20210609
  C compiler flags      : -O3 -ip -fp-model precise -std=gnu99
  CUDA compiler         : /mpcdf/soft/SLE_15/packages/x86_64/cuda/11.6.2/bin/nvcc
  CUDA compiler flags   : -O3 -DAdd_ -lcublas
  HIP compiler          :
  HIP compiler flags    :
  HIP GPU arch          :
  ELPA2 kernel          : AVX512
  Using MPI
  Using ScaLAPACK
  Using LibXC
  Using CUDA
  Using i-PI
  Using RLSY
  Linking against: /mpcdf/soft/SLE_15/packages/x86_64/cuda/11.6.2/lib64/libcublas.so
                   /mpcdf/soft/SLE_15/packages/x86_64/cuda/11.6.2/lib64/libcudart.so
                   /mpcdf/soft/SLE_15/packages/x86_64/intel_oneapi/2021.3/mkl/latest/lib/intel64/libmkl_intel_lp64.so
                   /mpcdf/soft/SLE_15/packages/x86_64/intel_oneapi/2021.3/mkl/latest/lib/intel64/libmkl_sequential.so
                   /mpcdf/soft/SLE_15/packages/x86_64/intel_oneapi/2021.3/mkl/latest/lib/intel64/libmkl_core.so
                   /mpcdf/soft/SLE_15/packages/x86_64/intel_oneapi/2021.3/mkl/latest/lib/intel64/libmkl_blacs_intelmpi_lp64.so
                   /mpcdf/soft/SLE_15/packages/x86_64/intel_oneapi/2021.3/mkl/latest/lib/intel64/libmkl_scalapack_lp64.so

  Using       18 parallel tasks.
  Task        0 on host adag040 reporting.
  Task        1 on host adag040 reporting.
  Task        2 on host adag040 reporting.
  Task        3 on host adag040 reporting.
  Task        4 on host adag040 reporting.
  Task        5 on host adag040 reporting.
  Task        6 on host adag040 reporting.
  Task        7 on host adag040 reporting.
  Task        8 on host adag040 reporting.
  Task        9 on host adag040 reporting.
  Task       10 on host adag040 reporting.
  Task       11 on host adag040 reporting.
  Task       12 on host adag040 reporting.
  Task       13 on host adag040 reporting.
  Task       14 on host adag040 reporting.
  Task       15 on host adag040 reporting.
  Task       16 on host adag040 reporting.
  Task       17 on host adag040 reporting.

  Obtaining array dimensions for all initial allocations:
  
  -----------------------------------------------------------------------
  Parsing control.in (first pass over file, find array dimensions only).
  The contents of control.in will be repeated verbatim below
  unless switched off by setting 'verbatim_writeout .false.' .
  in the first line of control.in .
  -----------------------------------------------------------------------
  
  #########################################################################################
  #
  #  Volker Blum, 2017 : Test run input file control.in for simple H2O
  #
  #########################################################################################
  #
  #  Physical model
  #
    xc                 pw-lda
    spin               none
    relativistic       none
    charge             0.
  
    use_gpu
  
    DFPT dielectric
    ri_density_restart write
    ri_rho1 write
  #  ri_density_restart read 0
  #  ri_rho1 read
    ri_full_output .true.
    sc_accuracy_rho    1d-6
  #  use_calculate_fock_matrix_old .false.
  #  wave_threshold 1e-8
    k_grid 1 1 1
  #  output cube eigenstate 160
  #  output cube eigenstate 161
    wave_threshold 1e-8
    default_prodbas_acc 1e-6
    default_max_l_prodbas 6
  #
  #  Relaxation
  #
  #  relax_geometry   bfgs 1.e-2
  #
  
  ################################################################################
  
  
  ################################################################################
  #
  #  FHI-aims code project
  #  VB, Fritz-Haber Institut, 2009
  #
  #  Suggested "light" defaults for H atom (to be pasted into control.in file)
  #  Be sure to double-check any results obtained with these settings for post-processing,
  #  e.g., with the "tight" defaults and larger basis sets.
  #
  ################################################################################
    species        H
  #     global species definitions
      nucleus             1
      mass                1.00794
  #
      l_hartree           4
  #
      cut_pot             3.5  1.5  1.0
      basis_dep_cutoff    1e-4
  #
      radial_base         24 5.0
      radial_multiplier   1
      angular_grids       specified
        division   0.2421   50
        division   0.3822  110
        division   0.4799  194
        division   0.5341  302
  #      division   0.5626  434
  #      division   0.5922  590
  #      division   0.6542  770
  #      division   0.6868 1202
  #      outer_grid  770
        outer_grid  302
  ################################################################################
  #
  #  Definition of "minimal" basis
  #
  ################################################################################
  #     valence basis states
      valence      1  s   1.
  #     ion occupancy
      ion_occ      1  s   0.5
  ################################################################################
  #
  #  Suggested additional basis functions. For production calculations,
  #  uncomment them one after another (the most important basis functions are
  #  listed first).
  #
  #  Basis constructed for dimers: 0.5 A, 0.7 A, 1.0 A, 1.5 A, 2.5 A
  #
  ################################################################################
  #  "First tier" - improvements: -1014.90 meV to -62.69 meV
       hydro 2 s 2.1
       hydro 2 p 3.5
  #  "Second tier" - improvements: -12.89 meV to -1.83 meV
  #     hydro 1 s 0.85
  #     hydro 2 p 3.7
  #     hydro 2 s 1.2
  #     hydro 3 d 7
  #  "Third tier" - improvements: -0.25 meV to -0.12 meV
  #     hydro 4 f 11.2
  #     hydro 3 p 4.8
  #     hydro 4 d 9
  #     hydro 3 s 3.2
  ################################################################################
  #
  #  FHI-aims code project
  #  VB, Fritz-Haber Institut, 2009
  #
  #  Suggested "light" defaults for O atom (to be pasted into control.in file)
  #  Be sure to double-check any results obtained with these settings for post-processing,
  #  e.g., with the "tight" defaults and larger basis sets.
  #
  ################################################################################
    species        O
  #     global species definitions
      nucleus             8
      mass                15.9994
  #
      l_hartree           4
  #
      cut_pot             3.5  1.5  1.0
      basis_dep_cutoff    1e-4
  #
      radial_base         36 5.0
      radial_multiplier   1
       angular_grids specified
        division   0.2659   50
        division   0.4451  110
        division   0.6052  194
        division   0.7543  302
  #      division   0.8014  434
  #      division   0.8507  590
  #      division   0.8762  770
  #      division   0.9023  974
  #      division   1.2339 1202
  #      outer_grid 974
        outer_grid 302
  ################################################################################
  #
  #  Definition of "minimal" basis
  #
  ################################################################################
  #     valence basis states
      valence      2  s   2.
      valence      2  p   4.
  #     ion occupancy
      ion_occ      2  s   1.
      ion_occ      2  p   3.
  ################################################################################
  #
  #  Suggested additional basis functions. For production calculations,
  #  uncomment them one after another (the most important basis functions are
  #  listed first).
  #
  #  Constructed for dimers: 1.0 A, 1.208 A, 1.5 A, 2.0 A, 3.0 A
  #
  ################################################################################
  #  "First tier" - improvements: -699.05 meV to -159.38 meV
       hydro 2 p 1.8
       hydro 3 d 7.6
       hydro 3 s 6.4
  #  "Second tier" - improvements: -49.91 meV to -5.39 meV
  #     hydro 4 f 11.6
  #     hydro 3 p 6.2
  #     hydro 3 d 5.6
  #     hydro 5 g 17.6
  #     hydro 1 s 0.75
  #  "Third tier" - improvements: -2.83 meV to -0.50 meV
  #     ionic 2 p auto
  #     hydro 4 f 10.8
  #     hydro 4 d 4.7
  #     hydro 2 s 6.8
  #  "Fourth tier" - improvements: -0.40 meV to -0.12 meV
  #     hydro 3 p 5
  #     hydro 3 s 3.3
  #     hydro 5 g 15.6
  #     hydro 4 f 17.6
  #     hydro 4 d 14
  # Further basis functions - -0.08 meV and below
  #     hydro 3 s 2.1
  #     hydro 4 d 11.6
  #     hydro 3 p 16
  #     hydro 2 s 17.2
  
  -----------------------------------------------------------------------
  Completed first pass over input file control.in .
  -----------------------------------------------------------------------
  
  
  -----------------------------------------------------------------------
  Parsing geometry.in (first pass over file, find array dimensions only).
  The contents of geometry.in will be repeated verbatim below
  unless switched off by setting 'verbatim_writeout .false.' .
  in the first line of geometry.in .
  -----------------------------------------------------------------------
  
  #=======================================================
  # FHI-aims file: /ada/ptmp/mpsd/alewis/bulk_water/qmdata/data/geoms/253.in
  # Created using the Atomic Simulation Environment (ASE)
  # Tue Feb 21 11:23:37 2023
  #=======================================================
  lattice_vector 9.9875100000000003 0.0000000000000000 0.0000000000000000
  lattice_vector 0.0000000000000000 9.9875100000000003 0.0000000000000000
  lattice_vector 0.0000000000000000 0.0000000000000000 9.9875100000000003
  atom 11.3567000000000000 12.0039999999999996 -3.6319300000000001 O
  atom 11.3125999999999998 12.6172000000000004 -2.9359500000000001 H
  atom 12.3528000000000002 12.0625000000000000 -3.4792800000000002 H
  atom 3.9579499999999999 27.6713999999999984 1.7692399999999999 O
  atom 4.9663599999999999 27.7474999999999987 2.0765199999999999 H
  atom 3.4990899999999998 27.0928000000000004 2.4175399999999998 H
  atom 6.3189599999999997 15.5566999999999993 4.1609600000000002 O
  atom 6.9530500000000002 15.8986999999999998 4.7628000000000004 H
  atom 6.6521600000000003 14.9847999999999999 3.4829300000000001 H
  atom 4.6306099999999999 3.8337100000000000 -10.8087999999999997 O
  atom 5.3449700000000000 3.6255700000000002 -11.3513000000000002 H
  atom 4.7411000000000003 4.7214700000000001 -10.5053000000000001 H
  atom -6.4632399999999999 10.4962999999999997 18.3538999999999994 O
  atom -6.4072600000000000 11.3795999999999999 18.0807000000000002 H
  atom -6.0559799999999999 10.0408000000000008 17.5445999999999991 H
  atom 9.2177100000000003 6.1143400000000003 6.0084000000000000 O
  atom 10.0175000000000001 6.3966799999999999 6.5120300000000002 H
  atom 8.3622399999999999 6.2261699999999998 6.6315200000000001 H
  atom -4.3058100000000001 5.8280000000000003 10.8299000000000003 O
  atom -4.9028200000000002 6.6869600000000000 11.0055999999999994 H
  atom -3.2914599999999998 5.8364599999999998 11.0254999999999992 H
  atom -18.3277000000000001 -16.0401999999999987 -1.6190000000000000 O
  atom -18.2622999999999998 -15.0984999999999996 -2.0267499999999998 H
  atom -17.4865999999999993 -16.3280999999999992 -1.5932900000000001 H
  atom 7.9572399999999996 -6.0801499999999997 2.4009600000000000 O
  atom 8.4407399999999999 -6.4381599999999999 3.0249899999999998 H
  atom 7.5124599999999999 -6.8639799999999997 2.0504899999999999 H
  atom 4.8529200000000001 -7.1651100000000003 5.6980500000000003 O
  atom 4.4321900000000003 -6.4858300000000000 5.1475099999999996 H
  atom 5.6984599999999999 -6.9288999999999996 6.2207600000000003 H
  atom -0.0232260000000000 3.6011600000000001 4.7664200000000001 O
  atom -0.3694990000000000 3.9764100000000000 5.4708500000000004 H
  atom 0.6940790000000000 3.1282100000000002 5.4241700000000002 H
  atom 1.3278700000000001 -3.4321999999999999 -11.9141999999999992 O
  atom 0.5537250000000000 -2.8019099999999999 -11.6952999999999996 H
  atom 1.7560000000000000 -2.9918100000000001 -12.7042999999999999 H
  atom 10.2833000000000006 5.9945800000000000 -7.0255799999999997 O
  atom 10.4906000000000006 6.8484200000000000 -6.3955799999999998 H
  atom 10.3129000000000008 5.2613599999999998 -6.4076100000000000 H
  atom -1.8927300000000000 -3.0976599999999999 11.1811000000000007 O
  atom -1.5448100000000000 -2.3757899999999998 10.5770000000000000 H
  atom -1.1342699999999999 -3.5441500000000001 11.7398000000000007 H
  atom -3.2261099999999998 -13.3542000000000005 -12.2628000000000004 O
  atom -3.3022100000000001 -12.9108000000000001 -11.5949000000000009 H
  atom -3.4644499999999998 -12.7394999999999996 -13.0259000000000000 H
  atom 9.9231499999999997 19.5768999999999984 16.7759999999999998 O
  atom 8.9869000000000003 19.9150999999999989 16.6736000000000004 H
  atom 10.5496999999999996 20.3396000000000008 16.7280000000000015 H
  atom -13.6938999999999993 -1.6071700000000000 5.5152599999999996 O
  atom -13.5330999999999992 -1.8054900000000000 4.5058699999999998 H
  atom -14.6742000000000008 -1.2123500000000000 5.7093400000000001 H
  atom 6.0140000000000002 9.6533300000000004 29.5614999999999988 O
  atom 6.6074299999999999 9.9131300000000007 28.9471999999999987 H
  atom 5.2186399999999997 10.0487000000000002 29.2929999999999993 H
  atom -1.1738999999999999 14.0053999999999998 9.4363200000000003 O
  atom -1.2014600000000000 14.0549999999999997 10.4298999999999999 H
  atom -0.2695580000000000 14.2407000000000004 9.0102100000000007 H
  atom -10.3783999999999992 -1.6130100000000001 -10.8242999999999991 O
  atom -10.2547999999999995 -1.0885400000000001 -11.7553000000000001 H
  atom -9.6951099999999997 -1.3206700000000000 -10.3313000000000006 H
  atom 13.7619000000000007 -0.3711190000000000 5.8636299999999997 O
  atom 13.5907000000000000 0.2504640000000000 5.1630799999999999 H
  atom 13.0753000000000004 -0.9564680000000000 5.4149300000000000 H
  atom 12.4453999999999994 37.3125000000000000 5.5270900000000003 O
  atom 12.7561000000000000 36.4971000000000032 5.2093800000000003 H
  atom 11.7253000000000007 37.3686999999999969 5.0340600000000002 H
  atom -3.2768999999999999 3.9177200000000001 7.4020099999999998 O
  atom -3.4495900000000002 4.9153000000000002 7.4462000000000002 H
  atom -2.5856300000000001 3.6943199999999998 8.0496099999999995 H
  atom -5.4105100000000004 11.4154999999999998 13.5266999999999999 O
  atom -5.0757599999999998 11.8336000000000006 12.8251000000000008 H
  atom -5.1448000000000000 11.7323000000000004 14.3910000000000000 H
  atom 12.7110000000000003 4.8928300000000000 11.7440999999999995 O
  atom 11.7878000000000007 5.1701699999999997 11.8041999999999998 H
  atom 12.6721000000000004 4.4757499999999997 10.9002999999999997 H
  atom -3.6896900000000001 -1.3917100000000000 2.8583900000000000 O
  atom -3.7391399999999999 -0.4131680000000000 2.6998899999999999 H
  atom -2.8281499999999999 -1.6267799999999999 2.4456899999999999 H
  atom -14.0382999999999996 12.1850000000000005 31.0687999999999995 O
  atom -14.3470999999999993 12.6376000000000008 30.3872000000000000 H
  atom -14.1278000000000006 11.1359999999999992 30.8585999999999991 H
  atom 11.8627000000000002 -10.5572999999999997 0.4914310000000000 O
  atom 12.0778999999999996 -10.1448999999999998 -0.3370780000000000 H
  atom 12.5959000000000003 -11.0307999999999993 0.6826670000000000 H
  atom 3.5438299999999998 15.1463999999999999 -5.5199199999999999 O
  atom 3.3959199999999998 14.8787000000000003 -6.5210999999999997 H
  atom 4.3677299999999999 15.6074000000000002 -5.3609400000000003 H
  atom 1.9781400000000000 0.6194180000000000 -7.1470099999999999 O
  atom 2.6542300000000001 1.3783200000000000 -7.1388900000000000 H
  atom 1.7327600000000001 0.2779180000000000 -8.1683599999999998 H
  atom 30.2163000000000004 -11.4882000000000009 14.1989000000000001 O
  atom 30.1489000000000011 -10.9128000000000007 15.0094999999999992 H
  atom 30.6110000000000007 -11.0082000000000004 13.5634999999999994 H
  atom 17.2252000000000010 0.5272150000000000 -2.8158699999999999 O
  atom 16.7712000000000003 -0.1048810000000000 -3.5652900000000001 H
  atom 17.3301000000000016 1.5193200000000000 -3.0146899999999999 H
  
  -----------------------------------------------------------------------
  Completed first pass over input file geometry.in .
  -----------------------------------------------------------------------
  

  Basic array size parameters:
  | Number of species                 :        2
  | Number of atoms                   :       96
  | Number of lattice vectors         :        3
  | Max. basis fn. angular momentum   :        2
  | Max. atomic/ionic basis occupied n:        2
  | Max. number of basis fn. types    :        2
  | Max. radial fns per species/type  :        3
  | Max. logarithmic grid size        :     1301
  | Max. radial integration grid size :       36
  | Max. angular integration grid size:      302
  | Max. angular grid division number :        8
  | Radial grid for Hartree potential :     1301
  | Number of spin channels           :        1

------------------------------------------------------------
          Reading file control.in.
------------------------------------------------------------
  XC: Using Perdew-Wang parametrisation of Ceperley-Alder LDA.
  Spin treatment: No spin polarisation.
  Non-relativistic treatment of kinetic energy.
  Charge =   0.000000E+00: Neutral system requested explicitly.
  DFPT calculation will begin after the DFT/HF calculation.
  Convergence accuracy of self-consistent charge density:  0.1000E-05
  Found k-point grid:         1         1         1
  Threshold value for wave function integration:  0.1000E-07
 
  Reading configuration options for species H                   .
  | Found nuclear charge :   1.0000
  | Found atomic mass :    1.00794000000000      amu
  | Found l_max for Hartree potential  :   4
  | Found cutoff potl. onset [A], width [A], scale factor :    3.50000    1.50000    1.00000
  | Threshold for basis-dependent cutoff potential is   0.100000E-03
  | Found data for basic radial integration grid :    24 points, outermost radius =    5.000 A
  | Found multiplier for basic radial grid :   1
  | Found angular grid specification: user-specified.
  | Specified grid contains     5 separate shells.
  | Check grid settings after all constraints further below.
  | Found free-atom valence shell :  1 s   1.000
  | No ionic wave fns used. Skipping ion_occ.
  | Found hydrogenic basis function :  2 s   2.100
  | Found hydrogenic basis function :  2 p   3.500
  Species H                   : Missing cutoff potential type.
  Defaulting to exp(1/x)/(1-x)^2 type cutoff potential.
  Species H : No 'logarithmic' tag. Using default grid for free atom:
  | Default logarithmic grid data [bohr] : 0.1000E-03 0.1000E+03 0.1012E+01
  Species H : On-site basis accuracy parameter (for Gram-Schmidt orthonormalisation) not specified.
  Using default value basis_acc =  0.1000000E-03.
  Species H                   : Using default innermost maximum threshold i_radial=  2 for radial functions.
  Species H                   : Default cutoff onset for free atom density etc. : 0.35000000E+01 AA.
  Species H                   : Basic radial grid will be enhanced according to radial_multiplier =   1, to contain    24 grid points.
 
  Reading configuration options for species O                   .
  | Found nuclear charge :   8.0000
  | Found atomic mass :    15.9994000000000      amu
  | Found l_max for Hartree potential  :   4
  | Found cutoff potl. onset [A], width [A], scale factor :    3.50000    1.50000    1.00000
  | Threshold for basis-dependent cutoff potential is   0.100000E-03
  | Found data for basic radial integration grid :    36 points, outermost radius =    5.000 A
  | Found multiplier for basic radial grid :   1
  | Found angular grid specification: user-specified.
  | Specified grid contains     5 separate shells.
  | Check grid settings after all constraints further below.
  | Found free-atom valence shell :  2 s   2.000
  | Found free-atom valence shell :  2 p   4.000
  | No ionic wave fns used. Skipping ion_occ.
  | No ionic wave fns used. Skipping ion_occ.
  | Found hydrogenic basis function :  2 p   1.800
  | Found hydrogenic basis function :  3 d   7.600
  | Found hydrogenic basis function :  3 s   6.400
  Species O                   : Missing cutoff potential type.
  Defaulting to exp(1/x)/(1-x)^2 type cutoff potential.
  Species O : No 'logarithmic' tag. Using default grid for free atom:
  | Default logarithmic grid data [bohr] : 0.1000E-03 0.1000E+03 0.1012E+01
  Species O : On-site basis accuracy parameter (for Gram-Schmidt orthonormalisation) not specified.
  Using default value basis_acc =  0.1000000E-03.
  Species O                   : Using default innermost maximum threshold i_radial=  2 for radial functions.
  Species O                   : Default cutoff onset for free atom density etc. : 0.35000000E+01 AA.
  Species O                   : Basic radial grid will be enhanced according to radial_multiplier =   1, to contain    36 grid points.
 
  Finished reading input file 'control.in'.
 
------------------------------------------------------------


------------------------------------------------------------
          Reading geometry description geometry.in.
------------------------------------------------------------
  | The smallest distance between any two atoms is         0.80528578 AA.
  | The first atom of this pair is atom number                     43 .
  | The second atom of this pair is atom number                    44 .
  | Wigner-Seitz cell of the first atom image           0     0     0 .
  | (The Wigner-Seitz cell of the second atom is 0 0 0  by definition.)

  Symmetry information by spglib:
  | Precision set to  0.1E-04
  | Number of Operations  : 1
  | Space group           : 1
  | International         : P1
  | Schoenflies           : C1^1
  Input structure read successfully.
  The structure contains       96 atoms,  and a total of        320.000 electrons.

  Input geometry:
  | Unit cell:
  |        9.98751000        0.00000000        0.00000000
  |        0.00000000        9.98751000        0.00000000
  |        0.00000000        0.00000000        9.98751000
  | Atomic structure:
  |       Atom                x [A]            y [A]            z [A]
  |    1: Species O            11.35670000       12.00400000       -3.63193000
  |    2: Species H            11.31260000       12.61720000       -2.93595000
  |    3: Species H            12.35280000       12.06250000       -3.47928000
  |    4: Species O             3.95795000       27.67140000        1.76924000
  |    5: Species H             4.96636000       27.74750000        2.07652000
  |    6: Species H             3.49909000       27.09280000        2.41754000
  |    7: Species O             6.31896000       15.55670000        4.16096000
  |    8: Species H             6.95305000       15.89870000        4.76280000
  |    9: Species H             6.65216000       14.98480000        3.48293000
  |   10: Species O             4.63061000        3.83371000      -10.80880000
  |   11: Species H             5.34497000        3.62557000      -11.35130000
  |   12: Species H             4.74110000        4.72147000      -10.50530000
  |   13: Species O            -6.46324000       10.49630000       18.35390000
  |   14: Species H            -6.40726000       11.37960000       18.08070000
  |   15: Species H            -6.05598000       10.04080000       17.54460000
  |   16: Species O             9.21771000        6.11434000        6.00840000
  |   17: Species H            10.01750000        6.39668000        6.51203000
  |   18: Species H             8.36224000        6.22617000        6.63152000
  |   19: Species O            -4.30581000        5.82800000       10.82990000
  |   20: Species H            -4.90282000        6.68696000       11.00560000
  |   21: Species H            -3.29146000        5.83646000       11.02550000
  |   22: Species O           -18.32770000      -16.04020000       -1.61900000
  |   23: Species H           -18.26230000      -15.09850000       -2.02675000
  |   24: Species H           -17.48660000      -16.32810000       -1.59329000
  |   25: Species O             7.95724000       -6.08015000        2.40096000
  |   26: Species H             8.44074000       -6.43816000        3.02499000
  |   27: Species H             7.51246000       -6.86398000        2.05049000
  |   28: Species O             4.85292000       -7.16511000        5.69805000
  |   29: Species H             4.43219000       -6.48583000        5.14751000
  |   30: Species H             5.69846000       -6.92890000        6.22076000
  |   31: Species O            -0.02322600        3.60116000        4.76642000
  |   32: Species H            -0.36949900        3.97641000        5.47085000
  |   33: Species H             0.69407900        3.12821000        5.42417000
  |   34: Species O             1.32787000       -3.43220000      -11.91420000
  |   35: Species H             0.55372500       -2.80191000      -11.69530000
  |   36: Species H             1.75600000       -2.99181000      -12.70430000
  |   37: Species O            10.28330000        5.99458000       -7.02558000
  |   38: Species H            10.49060000        6.84842000       -6.39558000
  |   39: Species H            10.31290000        5.26136000       -6.40761000
  |   40: Species O            -1.89273000       -3.09766000       11.18110000
  |   41: Species H            -1.54481000       -2.37579000       10.57700000
  |   42: Species H            -1.13427000       -3.54415000       11.73980000
  |   43: Species O            -3.22611000      -13.35420000      -12.26280000
  |   44: Species H            -3.30221000      -12.91080000      -11.59490000
  |   45: Species H            -3.46445000      -12.73950000      -13.02590000
  |   46: Species O             9.92315000       19.57690000       16.77600000
  |   47: Species H             8.98690000       19.91510000       16.67360000
  |   48: Species H            10.54970000       20.33960000       16.72800000
  |   49: Species O           -13.69390000       -1.60717000        5.51526000
  |   50: Species H           -13.53310000       -1.80549000        4.50587000
  |   51: Species H           -14.67420000       -1.21235000        5.70934000
  |   52: Species O             6.01400000        9.65333000       29.56150000
  |   53: Species H             6.60743000        9.91313000       28.94720000
  |   54: Species H             5.21864000       10.04870000       29.29300000
  |   55: Species O            -1.17390000       14.00540000        9.43632000
  |   56: Species H            -1.20146000       14.05500000       10.42990000
  |   57: Species H            -0.26955800       14.24070000        9.01021000
  |   58: Species O           -10.37840000       -1.61301000      -10.82430000
  |   59: Species H           -10.25480000       -1.08854000      -11.75530000
  |   60: Species H            -9.69511000       -1.32067000      -10.33130000
  |   61: Species O            13.76190000       -0.37111900        5.86363000
  |   62: Species H            13.59070000        0.25046400        5.16308000
  |   63: Species H            13.07530000       -0.95646800        5.41493000
  |   64: Species O            12.44540000       37.31250000        5.52709000
  |   65: Species H            12.75610000       36.49710000        5.20938000
  |   66: Species H            11.72530000       37.36870000        5.03406000
  |   67: Species O            -3.27690000        3.91772000        7.40201000
  |   68: Species H            -3.44959000        4.91530000        7.44620000
  |   69: Species H            -2.58563000        3.69432000        8.04961000
  |   70: Species O            -5.41051000       11.41550000       13.52670000
  |   71: Species H            -5.07576000       11.83360000       12.82510000
  |   72: Species H            -5.14480000       11.73230000       14.39100000
  |   73: Species O            12.71100000        4.89283000       11.74410000
  |   74: Species H            11.78780000        5.17017000       11.80420000
  |   75: Species H            12.67210000        4.47575000       10.90030000
  |   76: Species O            -3.68969000       -1.39171000        2.85839000
  |   77: Species H            -3.73914000       -0.41316800        2.69989000
  |   78: Species H            -2.82815000       -1.62678000        2.44569000
  |   79: Species O           -14.03830000       12.18500000       31.06880000
  |   80: Species H           -14.34710000       12.63760000       30.38720000
  |   81: Species H           -14.12780000       11.13600000       30.85860000
  |   82: Species O            11.86270000      -10.55730000        0.49143100
  |   83: Species H            12.07790000      -10.14490000       -0.33707800
  |   84: Species H            12.59590000      -11.03080000        0.68266700
  |   85: Species O             3.54383000       15.14640000       -5.51992000
  |   86: Species H             3.39592000       14.87870000       -6.52110000
  |   87: Species H             4.36773000       15.60740000       -5.36094000
  |   88: Species O             1.97814000        0.61941800       -7.14701000
  |   89: Species H             2.65423000        1.37832000       -7.13889000
  |   90: Species H             1.73276000        0.27791800       -8.16836000
  |   91: Species O            30.21630000      -11.48820000       14.19890000
  |   92: Species H            30.14890000      -10.91280000       15.00950000
  |   93: Species H            30.61100000      -11.00820000       13.56350000
  |   94: Species O            17.22520000        0.52721500       -2.81587000
  |   95: Species H            16.77120000       -0.10488100       -3.56529000
  |   96: Species H            17.33010000        1.51932000       -3.01469000

  Lattice parameters for 3D lattice (in Angstroms) :     9.987510    9.987510    9.987510
  Angle(s) between unit vectors (in degrees)       :    90.000000   90.000000   90.000000


  Quantities derived from the lattice vectors (in Angstrom^-1):
  | Reciprocal lattice vector 1:  0.629104  0.000000  0.000000
  | Reciprocal lattice vector 2:  0.000000  0.629104  0.000000
  | Reciprocal lattice vector 3:  0.000000  0.000000  0.629104
  | Unit cell volume                               :   0.996258E+03  Angstrom^3

  Fractional coordinates:
                         L1                L2                L3
       atom_frac         1.13709023        1.20190117       -0.36364720  O
       atom_frac         1.13267471        1.26329786       -0.29396216  H
       atom_frac         1.23682479        1.20775849       -0.34836311  H
       atom_frac         0.39628997        2.77060048        0.17714525  O
       atom_frac         0.49725707        2.77822000        0.20791168  H
       atom_frac         0.35034658        2.71266812        0.24205633  H
       atom_frac         0.63268623        1.55761546        0.41661635  O
       atom_frac         0.69617452        1.59185823        0.47687562  H
       atom_frac         0.66604789        1.50035394        0.34872856  H
       atom_frac         0.46364009        0.38385043       -1.08223171  O
       atom_frac         0.53516542        0.36301040       -1.13654955  H
       atom_frac         0.47470290        0.47273745       -1.05184375  H
       atom_frac        -0.64713227        1.05094263        1.83768527  O
       atom_frac        -0.64152727        1.13938309        1.81033110  H
       atom_frac        -0.60635534        1.00533566        1.75665406  H
       atom_frac         0.92292373        0.61219864        0.60159139  O
       atom_frac         1.00300275        0.64046794        0.65201737  H
       atom_frac         0.83726975        0.62339562        0.66398131  H
       atom_frac        -0.43111947        0.58352883        1.08434435  O
       atom_frac        -0.49089513        0.66953225        1.10193632  H
       atom_frac        -0.32955762        0.58437589        1.10392881  H
       atom_frac        -1.83506199       -1.60602593       -0.16210247  O
       atom_frac        -1.82851381       -1.51173816       -0.20292846  H
       atom_frac        -1.75084681       -1.63485193       -0.15952825  H
       atom_frac         0.79671910       -0.60877536        0.24039625  O
       atom_frac         0.84512957       -0.64462113        0.30287729  H
       atom_frac         0.75218548       -0.68725638        0.20530543  H
       atom_frac         0.48589889       -0.71740704        0.57051758  O
       atom_frac         0.44377327       -0.64939409        0.51539473  H
       atom_frac         0.57055863       -0.69375650        0.62285394  H
       atom_frac        -0.00232550        0.36056635        0.47723807  O
       atom_frac        -0.03699611        0.39813827        0.54776916  H
       atom_frac         0.06949470        0.31321220        0.54309533  H
       atom_frac         0.13295306       -0.34364922       -1.19290994  O
       atom_frac         0.05544175       -0.28054140       -1.17099257  H
       atom_frac         0.17581960       -0.29955514       -1.27201875  H
       atom_frac         1.02961599        0.60020766       -0.70343659  O
       atom_frac         1.05037191        0.68569844       -0.64035781  H
       atom_frac         1.03257969        0.52679397       -0.64156231  H
       atom_frac        -0.18950970       -0.31015338        1.11950827  O
       atom_frac        -0.15467419       -0.23787611        1.05902272  H
       atom_frac        -0.11356885       -0.35485822        1.17544813  H
       atom_frac        -0.32301445       -1.33709003       -1.22781354  O
       atom_frac        -0.33063396       -1.29269458       -1.16094001  H
       atom_frac        -0.34687825       -1.27554315       -1.30421897  H
       atom_frac         0.99355595        1.96013821        1.67969794  O
       atom_frac         0.89981387        1.99400051        1.66944514  H
       atom_frac         1.05628931        2.03650359        1.67489194  H
       atom_frac        -1.37110251       -0.16091799        0.55221572  O
       atom_frac        -1.35500240       -0.18077479        0.45115049  H
       atom_frac        -1.46925510       -0.12138661        0.57164799  H
       atom_frac         0.60215209        0.96654021        2.95984685  O
       atom_frac         0.66156930        0.99255270        2.89834003  H
       atom_frac         0.52251662        1.00612665        2.93296327  H
       atom_frac        -0.11753680        1.40229146        0.94481207  O
       atom_frac        -0.12029625        1.40725766        1.04429432  H
       atom_frac        -0.02698951        1.42585089        0.90214778  H
       atom_frac        -1.03913788       -0.16150272       -1.08378365  O
       atom_frac        -1.02676243       -0.10899013       -1.17700007  H
       atom_frac        -0.97072343       -0.13223216       -1.03442199  H
       atom_frac         1.37791101       -0.03715831        0.58709628  O
       atom_frac         1.36076960        0.02507772        0.51695368  H
       atom_frac         1.30916515       -0.09576641        0.54217017  H
       atom_frac         1.24609637        3.73591616        0.55340020  O
       atom_frac         1.27720523        3.65427419        0.52158947  H
       atom_frac         1.17399632        3.74154319        0.50403554  H
       atom_frac        -0.32809980        0.39226194        0.74112667  O
       atom_frac        -0.34539039        0.49214469        0.74555119  H
       atom_frac        -0.25888635        0.36989400        0.80596765  H
       atom_frac        -0.54172762        1.14297758        1.35436160  O
       atom_frac        -0.50821076        1.18483986        1.28411386  H
       atom_frac        -0.51512339        1.17469720        1.44089968  H
       atom_frac         1.27268959        0.48989488        1.17587867  O
       atom_frac         1.18025414        0.51766356        1.18189619  H
       atom_frac         1.26879472        0.44813472        1.09139315  H
       atom_frac        -0.36943042       -0.13934504        0.28619646  O
       atom_frac        -0.37438160       -0.04136847        0.27032664  H
       atom_frac        -0.28316868       -0.16288144        0.24487485  H
       atom_frac        -1.40558558        1.22002381        3.11076535  O
       atom_frac        -1.43650419        1.26534041        3.04252011  H
       atom_frac        -1.41454677        1.11499263        3.08971906  H
       atom_frac         1.18775350       -1.05705026        0.04920456  O
       atom_frac         1.20930042       -1.01575868       -0.03374995  H
       atom_frac         1.26116520       -1.10445947        0.06835207  H
       atom_frac         0.35482618        1.51653415       -0.55268230  O
       atom_frac         0.34001668        1.48973067       -0.65292550  H
       atom_frac         0.43731921        1.56269180       -0.53676442  H
       atom_frac         0.19806138        0.06201926       -0.71559478  O
       atom_frac         0.26575493        0.13800437       -0.71478176  H
       atom_frac         0.17349269        0.02782656       -0.81785750  H
       atom_frac         3.02540874       -1.15025667        1.42166566  O
       atom_frac         3.01866031       -1.09264471        1.50282703  H
       atom_frac         3.06492810       -1.10219664        1.35804620  H
       atom_frac         1.72467412        0.05278743       -0.28193914  O
       atom_frac         1.67921734       -0.01050122       -0.35697486  H
       atom_frac         1.73517724        0.15212200       -0.30184601  H

 
  Finished reading input file 'geometry.in'.
 

 
  Consistency checks for stacksize environment parameter are next.
 
  | Maximum stacksize for task 0: unlimited
  | Maximum stacksize for task 1: unlimited
  | Maximum stacksize for task 2: unlimited
  | Maximum stacksize for task 3: unlimited
  | Maximum stacksize for task 4: unlimited
  | Maximum stacksize for task 5: unlimited
  | Maximum stacksize for task 6: unlimited
  | Maximum stacksize for task 7: unlimited
  | Maximum stacksize for task 8: unlimited
  | Maximum stacksize for task 9: unlimited
  | Maximum stacksize for task 10: unlimited
  | Maximum stacksize for task 11: unlimited
  | Maximum stacksize for task 12: unlimited
  | Maximum stacksize for task 13: unlimited
  | Maximum stacksize for task 14: unlimited
  | Maximum stacksize for task 15: unlimited
  | Maximum stacksize for task 16: unlimited
  | Maximum stacksize for task 17: unlimited
  | Current stacksize for task 0: unlimited
  | Current stacksize for task 1: unlimited
  | Current stacksize for task 2: unlimited
  | Current stacksize for task 3: unlimited
  | Current stacksize for task 4: unlimited
  | Current stacksize for task 5: unlimited
  | Current stacksize for task 6: unlimited
  | Current stacksize for task 7: unlimited
  | Current stacksize for task 8: unlimited
  | Current stacksize for task 9: unlimited
  | Current stacksize for task 10: unlimited
  | Current stacksize for task 11: unlimited
  | Current stacksize for task 12: unlimited
  | Current stacksize for task 13: unlimited
  | Current stacksize for task 14: unlimited
  | Current stacksize for task 15: unlimited
  | Current stacksize for task 16: unlimited
  | Current stacksize for task 17: unlimited
 
  Consistency checks for the contents of control.in are next.
 
  MPI_IN_PLACE appears to work with this MPI implementation.
  | Keeping use_mpi_in_place .true. (see manual).
  Explicit treatment of the Coulomb operator is needed, but the RI method is not specified.
  Coulomb operator: Defaulting to 'LVL fast' resolution of identity - RI_type = LVL_fast
  Species H: Using default value for prodbas_acc =   1.000000E-06.
  Species H: Using default value max_l_prodbas =     6.
  Species O: Using default value for prodbas_acc =   1.000000E-06.
  Species O: Using default value max_l_prodbas =     6.
  Target number of points in a grid batch is not set.  Since GPU acceleration is enabled, defaulting to  200
  Method for grid partitioning is not set. Defaulting to parallel hash+maxmin partitioning.
  Batch size limit is not set. Defaulting to    200
  By default, will store active basis functions for each batch.
  If in need of memory, prune_basis_once .false. can be used to disable this option.
  communication_type for Hartree potential was not specified.
  Defaulting to calc_hartree .
  Defaulting to Pulay charge density mixer.
  Pulay mixer: Number of relevant iterations not set.
  Defaulting to    8 iterations.
  Pulay mixer: Number of initial linear mixing iterations not set.
  Defaulting to    0 iterations.
  Work space size for distributed Hartree potential not set.
  Defaulting to   0.200000E+03 MB.
  Mixing parameter for charge density mixing has not been set.
  Using default: charge_mix_param =     0.0500.
  The mixing parameter will be adjusted in iteration number     2 of the first full s.c.f. cycle only.
  Algorithm-dependent basis array size parameters:
  | n_max_pulay                         :        8
  Maximum number of self-consistency iterations not provided.
  Presetting  1000 iterations.
  Presetting      1001 iterations before the initial mixing cycle
  is restarted anyway using the sc_init_iter criterion / keyword.
  Presetting a factor      1.000 between actual scf density residual
  and density convergence criterion sc_accuracy_rho below which sc_init_iter
  takes no effect.
  Calculation of forces was not defined in control.in. No forces will be calculated.
  Geometry relaxation not requested: no relaxation will be performed.
  No accuracy limit for integral partition fn. given. Defaulting to  0.1000E-14.
  No occupation type (smearing scheme) given. Defaulting to Gaussian broadening, width =  0.1000E-01 eV.
  The width will be adjusted in iteration number     2 of the first full s.c.f. cycle only.
  S.C.F. convergence parameters will be adjusted in iteration number     2 of the first full s.c.f. cycle only.
  No accuracy for occupation numbers given. Defaulting to  0.1000E-12.
  No threshold value for occupation numbers given. Defaulting to  0.0000E+00.
  No accuracy for fermi level given. Defaulting to  0.1000E-19.
  Maximum # of iterations to find E_F not set. Defaulting to  200.
  Preferred method for the eigenvalue solver ('KS_method') not specified in 'control.in'.
  Calling BLACS routine to test compilation state
  Since ScaLAPACK support is enabled, defaulting to ELPA (via ELSI).
  Will not use alltoall communication since running on < 1024 CPUs.
  Threshold for basis singularities not set.
  Default threshold for basis singularities:  0.1000E-04
  partition_type (choice of integration weights) for integrals was not specified.
  | Using a version of the partition function of Stratmann and coworkers ('stratmann_sparse').
  | At each grid point, the set of atoms used to build the partition table is smoothly restricted to
  | only those atoms whose free-atom density would be non-zero at that grid point.
  Partitioning for Hartree potential was not defined. Using partition_type for integrals.
  | Adjusted default value of keyword multip_moments_threshold to:       0.10000000E-11
  | This value may affect high angular momentum components of the Hartree potential in periodic systems.
  Angular momentum expansion for Kerker preconditioner not set explicitly.
  | Using default value of   0
  No explicit requirement for turning off preconditioner.
  | By default, it will be turned off when the charge convergence reaches
  | sc_accuracy_rho  =   0.100000E-05
  No special mixing parameter while Kerker preconditioner is on.
  Using default: charge_mix_param =     0.0500.
  Threshold for auxiliary basis singularities not set.
  Default threshold for auxiliary basis singularities:  0.1000E-04
  No q(lm)/r^(l+1) cutoff set for long-range Hartree potential.
  | Using default value of  0.100000E-09 .
  | Verify using the multipole_threshold keyword.
  Defaulting to new monopole extrapolation.
  Density update method: automatic selection selected.
  Using density matrix based charge density update.
  Using density matrix based charge density update.
  Using packed matrix style: index .
  Defaulting to use time-reversal symmetry for k-point grid.
  Charge integration errors on the 3D integration grid will be compensated
  by explicit normalization and distribution of residual charges.
  Use the "compensate_multipole_errors" flag to change this behaviour.
  Default to 1D ("use_logsbt") integrations for auxiliary 2-center integrals.
  Default onset of logarithmic r-grid for SBT is -38.000000000000
  Default onset of logarithmic k-grid for SBT is -25.000000000000
  Default range of logarithmic r- and k-grid for SBT is  45.000000000000
  Default number of logarithmic r- and k-grid for SBT is   4096
  Default of use_2d_corr is to use the efficient 2D distribution where possible
 
  Consistency checks for the contents of geometry.in are next.
 

  Range separation radius for Ewald summation (hartree_convergence_parameter):      3.02146332 bohr.
  Number of empty states per atom not set in control.in .
  | Since you are using a method that relies on the unoccupied spectrum
  | (MP2,GW,RPA et al.), will use the full Hamiltonian size (see below)
  | as the max. possible number of states (occupied plus empty).

  Structure-dependent array size parameters: 
  | Maximum number of distinct radial functions  :        9
  | Maximum number of basis functions            :      768
  | Number of Kohn-Sham states (occupied + empty):      768
------------------------------------------------------------

  Performing system and environment tests:
  | Environment variable OMP_NUM_THREADS correctly set to 1.
  | Checking for ScaLAPACK...
  | Testing pdtran()...
  | All pdtran() tests passed.
CUDA runtime version: 11060
CUDA driver version: 11060
  Initializing GPUs...

  Number of GPUs available to MPI task         0 :   1
  Number of GPUs available to MPI task         1 :   1
  Number of GPUs available to MPI task         2 :   1
  Number of GPUs available to MPI task         3 :   1
  Number of GPUs available to MPI task         4 :   1
  Number of GPUs available to MPI task         5 :   1
  Number of GPUs available to MPI task         6 :   1
  Number of GPUs available to MPI task         7 :   1
  Number of GPUs available to MPI task         8 :   1
  Number of GPUs available to MPI task         9 :   1
  Number of GPUs available to MPI task        10 :   1
  Number of GPUs available to MPI task        11 :   1
  Number of GPUs available to MPI task        12 :   1
  Number of GPUs available to MPI task        13 :   1
  Number of GPUs available to MPI task        14 :   1
  Number of GPUs available to MPI task        15 :   1
  Number of GPUs available to MPI task        16 :   1
  Number of GPUs available to MPI task        17 :   1

  | MPI task         0, GPU activated = T, Device Name = NVIDIA A100-SXM4-80GB
  | MPI task         1, GPU activated = T, Device Name = NVIDIA A100-SXM4-80GB
  | MPI task         2, GPU activated = T, Device Name = NVIDIA A100-SXM4-80GB
  | MPI task         3, GPU activated = T, Device Name = NVIDIA A100-SXM4-80GB
  | MPI task         4, GPU activated = T, Device Name = NVIDIA A100-SXM4-80GB
  | MPI task         5, GPU activated = T, Device Name = NVIDIA A100-SXM4-80GB
  | MPI task         6, GPU activated = T, Device Name = NVIDIA A100-SXM4-80GB
  | MPI task         7, GPU activated = T, Device Name = NVIDIA A100-SXM4-80GB
  | MPI task         8, GPU activated = T, Device Name = NVIDIA A100-SXM4-80GB
  | MPI task         9, GPU activated = T, Device Name = NVIDIA A100-SXM4-80GB
  | MPI task        10, GPU activated = T, Device Name = NVIDIA A100-SXM4-80GB
  | MPI task        11, GPU activated = T, Device Name = NVIDIA A100-SXM4-80GB
  | MPI task        12, GPU activated = T, Device Name = NVIDIA A100-SXM4-80GB
  | MPI task        13, GPU activated = T, Device Name = NVIDIA A100-SXM4-80GB
  | MPI task        14, GPU activated = T, Device Name = NVIDIA A100-SXM4-80GB
  | MPI task        15, GPU activated = T, Device Name = NVIDIA A100-SXM4-80GB
  | MPI task        16, GPU activated = T, Device Name = NVIDIA A100-SXM4-80GB
  | MPI task        17, GPU activated = T, Device Name = NVIDIA A100-SXM4-80GB

------------------------------------------------------------
          Preparing all fixed parts of the calculation.
------------------------------------------------------------
  Determining machine precision:
    2.225073858507201E-308
  Setting up grids for atomic and cluster calculations.

  Creating wave function, potential, and density for free atoms.
  Runtime choices for atomic solver:
  | atomic solver xc        : PW-LDA
  | compute density gradient: 0
  | compute kinetic density : F

  Species: H

  List of occupied orbitals and eigenvalues:
    n    l              occ      energy [Ha]    energy [eV]
    1    0           1.0000        -0.232375        -6.3233


  Species: O

  List of occupied orbitals and eigenvalues:
    n    l              occ      energy [Ha]    energy [eV]
    1    0           2.0000       -18.757744      -510.4242
    2    0           2.0000        -0.870917       -23.6989
    2    1           4.0000        -0.337950        -9.1961


  Adding cutoff potential to free-atom effective potential.
  Creating fixed part of basis set: Ionic, confined, hydrogenic.
 
  H                    hydrogenic:
 
  List of hydrogenic basis orbitals: 
    n    l      effective z      eigenvalue [eV]  inner max. [A]     outer max. [A]     outer radius [A]   
    2    0         2.100000       -14.9728           0.193243           1.317208           4.696947
    2    1         3.500000       -41.6669           0.602369           0.602369           3.862494
 
 
  O                    hydrogenic:
 
  List of hydrogenic basis orbitals: 
    n    l      effective z      eigenvalue [eV]  inner max. [A]     outer max. [A]     outer radius [A]   
    2    1         1.800000       -10.9749           1.164242           1.164242           4.691341
    3    2         7.600000       -87.3180           0.624125           0.624125           3.413946
    3    0         6.400000       -61.9207           0.061167           1.081902           4.151495
 
  Creating atomic-like basis functions for current effective potential.

  Species H                   :

  List of atomic basis orbitals and eigenvalues:
    n    l      energy [Ha]    energy [eV]    outer radius [A]
    1    0        -0.232375        -6.3233       4.696947


  Species O                   :

  List of atomic basis orbitals and eigenvalues:
    n    l      energy [Ha]    energy [eV]    outer radius [A]
    1    0       -18.757744      -510.4242       1.830144
    2    0        -0.870917       -23.6989       4.578029
    2    1        -0.337950        -9.1961       4.634338

  Assembling full basis from fixed parts.
  | Species H :   atomic orbital   1 s accepted.
  | Species H :    hydro orbital   2 s accepted.
  | Species H :    hydro orbital   2 p accepted.
  | Species O :   atomic orbital   1 s accepted.
  | Species O :    hydro orbital   3 s accepted.
  | Species O :   atomic orbital   2 s accepted.
  | Species O :   atomic orbital   2 p accepted.
  | Species O :    hydro orbital   2 p accepted.
  | Species O :    hydro orbital   3 d accepted.
 
  Basis size parameters after reduction:
  | Total number of radial functions:        9
  | Total number of basis functions :      768
 
  Per-task memory consumption for arrays in subroutine allocate_ext:
  |           2.268304MB.
  Testing on-site integration grid accuracy.
  |  Species  Function  <phi|h_atom|phi> (log., in eV)  <phi|h_atom|phi> (rad., in eV)
           1        1                 -6.3245358373                 -6.3232436907
           1        2                 14.1326137532                 14.1384481100
           1        3                 25.3627025200                 25.3628451197
           2        4               -510.4241781764               -510.4240769407
           2        5                 14.9072942213                 14.9072945271
           2        6                -21.2004736474                -21.2005650551
           2        7                 -9.1962086505                 -9.1963509834
           2        8                  8.1896755006                  8.1702200081
           2        9                 45.7920584937                 45.7920228520

  Preparing densities etc. for the partition functions (integrals / Hartree potential).

  Preparations completed.
  max(cpu_time)          :      0.073 s.
  Wall clock time (cpu1) :      0.069 s.
------------------------------------------------------------

  Initializing index lists of integration centers etc. from given atomic structure:
  Mapping all atomic coordinates to central unit cell.

  Initializing the k-points
  Using symmetry for reducing the k-points
  | k-points reduced from:        1 to        1
  | Number of k-points                             :         1
  | Consuming          0 KiB for k_phase_exx.
  The eigenvectors in the calculations are REAL.
  | Number of basis functions in the Hamiltonian integrals :      4527
  | Number of basis functions in a single unit cell        :       768
  | Number of centers in hartree potential         :      2584
  | Number of centers in hartree multipole         :      1850
  | Number of centers in electron density summation:      1453
  | Number of centers in basis integrals           :      1508
  | Number of centers in integrals                 :       703
  | Number of centers in hamiltonian               :      1453
  | Consuming          0 KiB for k_phase.
  | Number of super-cells (origin) [n_cells]                     :         125
  | Number of super-cells (after PM_index) [n_cells]             :          28
  | Number of super-cells in hamiltonian [n_cells_in_hamiltonian]:          28
  | Size of matrix packed + index [n_hamiltonian_matrix_size] :      762669
  | Size of matrix packed + index (no_symmetry):     1524569

------------------------------------------------------------
          Begin self-consistency loop: Initialization.

          Date     :  20230221, Time     :  134454.511
------------------------------------------------------------
  | Estimated reciprocal-space cutoff momentum G_max:         3.12691487 bohr^-1 .
  | Reciprocal lattice points for long-range Hartree potential:    3430
  Using simple linear distribution as default method for k-point parallelism.
  * Using 18 tasks for Scalapack Eigenvalue solver.
  Detailed listing of tasks and assigned k-points:
   Task     0 k-point     1 on adag040
   Task     1 k-point     1 on adag040
   Task     2 k-point     1 on adag040
   Task     3 k-point     1 on adag040
   Task     4 k-point     1 on adag040
   Task     5 k-point     1 on adag040
   Task     6 k-point     1 on adag040
   Task     7 k-point     1 on adag040
   Task     8 k-point     1 on adag040
   Task     9 k-point     1 on adag040
   Task    10 k-point     1 on adag040
   Task    11 k-point     1 on adag040
   Task    12 k-point     1 on adag040
   Task    13 k-point     1 on adag040
   Task    14 k-point     1 on adag040
   Task    15 k-point     1 on adag040
   Task    16 k-point     1 on adag040
   Task    17 k-point     1 on adag040
  K-point:     1 Tasks:    18 split into      6 X      3 BLACS grid
  Calculating block size based on n_basis =          768  max_nprow =            6  max_npcol =            3
  ScaLAPACK block size set to:           16
  Allocating        0.250 MB for ovlp
  Allocating        0.250 MB for ham
  Allocating        0.250 MB for eigenvec
  Required Scalapack workspace - INTEGER:            1  REAL:             1
  Partitioning the integration grid into batches with parallel hashing+maxmin method.
  | Number of batches:     3845
  | Maximal batch size:     200
  | Minimal batch size:      99
  | Average batch size:     132.527
  | Standard deviation of batch sizes:      25.985

  Integration load balanced across    18 MPI tasks.
  Work distribution over tasks is as follows:
  Task     0 has      28283 integration points.
  Task     1 has      28383 integration points.
  Task     2 has      28224 integration points.
  Task     3 has      28240 integration points.
  Task     4 has      28295 integration points.
  Task     5 has      28359 integration points.
  Task     6 has      28280 integration points.
  Task     7 has      28320 integration points.
  Task     8 has      28240 integration points.
  Task     9 has      28330 integration points.
  Task    10 has      28294 integration points.
  Task    11 has      28407 integration points.
  Task    12 has      28309 integration points.
  Task    13 has      28331 integration points.
  Task    14 has      28323 integration points.
  Task    15 has      28310 integration points.
  Task    16 has      28316 integration points.
  Task    17 has      28324 integration points.
  Initializing partition tables, free-atom densities, potentials, etc. across the integration grid (initialize_grid_storage).
  | initialize_grid_storage: Actual outermost partition radius vs. multipole_radius_free
  | (-- VB: in principle, multipole_radius_free should be larger, hence this output)
  | Species        1: Confinement radius =              4.999999999999999 AA, multipole_radius_free =              5.054417573612229 AA.
  | Species        1: outer_partition_radius set to              5.054417573612229 AA .
  | Species        2: Confinement radius =              4.999999999999999 AA, multipole_radius_free =              5.048384829883283 AA.
  | Species        2: outer_partition_radius set to              5.048384829883283 AA .
  | The sparse table of interatomic distances needs       4825.72 kbyte instead of     18192.51 kbyte of memory.
  | Net number of integration points:   509568
  | of which are non-zero points    :   408287
  | Numerical average free-atom electrostatic potential    :     -5.23092636 eV
  Renormalizing the initial density to the exact electron count on the 3D integration grid.
  | Initial density: Formal number of electrons (from input files) :     320.0000000000
  | Integrated number of electrons on 3D grid     :     320.0018993843
  | Charge integration error                      :       0.0018993843
  | Normalization factor for density and gradient :       0.9999940645
  Renormalizing the free-atom superposition density to the exact electron count on the 3D integration grid.
  | Formal number of electrons (from input files) :     320.0000000000
  | Integrated number of electrons on 3D grid     :     320.0018993843
  | Charge integration error                      :       0.0018993843
  | Normalization factor for density and gradient :       0.9999940645
  Obtaining max. number of non-zero basis functions in each batch (get_n_compute_maxes).
  | Maximal number of non-zero basis functions:      431 in task     0
  | Maximal number of non-zero basis functions:      427 in task     1
  | Maximal number of non-zero basis functions:      429 in task     2
  | Maximal number of non-zero basis functions:      416 in task     3
  | Maximal number of non-zero basis functions:      415 in task     4
  | Maximal number of non-zero basis functions:      421 in task     5
  | Maximal number of non-zero basis functions:      405 in task     6
  | Maximal number of non-zero basis functions:      425 in task     7
  | Maximal number of non-zero basis functions:      444 in task     8
  | Maximal number of non-zero basis functions:      414 in task     9
  | Maximal number of non-zero basis functions:      414 in task    10
  | Maximal number of non-zero basis functions:      415 in task    11
  | Maximal number of non-zero basis functions:      424 in task    12
  | Maximal number of non-zero basis functions:      411 in task    13
  | Maximal number of non-zero basis functions:      422 in task    14
  | Maximal number of non-zero basis functions:      426 in task    15
  | Maximal number of non-zero basis functions:      425 in task    16
  | Maximal number of non-zero basis functions:      417 in task    17
  Integrating Hamiltonian matrix: batch-based integration.
  GPU acceleration will be used when integrating the Hamiltonian matrix.
  Reporting GPU memory usage by myid 0.  Note that it is likely not the only MPI task binding to its GPU!
  Allocating        1.486 MB on GPU for hamiltonian_shell
  Allocating        0.690 MB on GPU for wave
  Allocating        0.002 MB on GPU for partition
  Allocating        0.690 MB on GPU for h_times_psi
  Time summed over all CPUs for integration: real work       11.388 s, elapsed       12.077 s
  Deallocating memory used on GPU for Hamiltonian integration.
  Integrating overlap matrix.
  Time summed over all CPUs for integration: real work        9.351 s, elapsed        9.569 s
  Deallocating overlap matrix.

  Updating Kohn-Sham eigenvalues and eigenvectors using ELSI and the ELPA eigensolver.
  Singularity check in k-point 1 (analysis for other k-points may follow below):
  Overlap matrix is not singular
  | Lowest and highest eigenvalues :  0.2310E-02,  0.7213E+01
  Finished singularity check of overlap matrix
  | Time :     0.135 s
  Starting ELPA eigensolver (GPU)
  Finished Cholesky decomposition
  | Time :     0.006 s
  Finished transformation to standard eigenproblem
  | Time :     0.027 s
  Finished solving standard eigenproblem
  | Time :     0.191 s
  Finished back-transformation of eigenvectors
  | Time :     0.017 s

  Obtaining occupation numbers and electronic chemical potential using ELSI.
  | Note that, for insulating systems, the printed 'chemical potential' value is not uniquely defined.
  | It can be anywhere in the energy gap, as long as it correctly separates occupied and unoccupied states.
  | In systems with a gap, the physically relevant chemical potential is the VBM or HOMO.

  | Chemical potential (Fermi level):    -9.51092179 eV
  Writing Kohn-Sham eigenvalues.

  State    Occupation    Eigenvalue [Ha]    Eigenvalue [eV]
      1       2.00000         -18.915403         -514.71430
      2       2.00000         -18.908080         -514.51504
      3       2.00000         -18.900374         -514.30535
      4       2.00000         -18.899241         -514.27451
      5       2.00000         -18.898895         -514.26510
      6       2.00000         -18.895795         -514.18075
      7       2.00000         -18.888869         -513.99227
      8       2.00000         -18.888548         -513.98356
      9       2.00000         -18.882846         -513.82839
     10       2.00000         -18.882007         -513.80555
     11       2.00000         -18.879710         -513.74305
     12       2.00000         -18.879381         -513.73409
     13       2.00000         -18.878376         -513.70674
     14       2.00000         -18.877706         -513.68852
     15       2.00000         -18.875702         -513.63397
     16       2.00000         -18.873981         -513.58717
     17       2.00000         -18.873451         -513.57272
     18       2.00000         -18.870086         -513.48116
     19       2.00000         -18.868395         -513.43515
     20       2.00000         -18.866654         -513.38778
     21       2.00000         -18.864530         -513.32998
     22       2.00000         -18.863693         -513.30720
     23       2.00000         -18.859254         -513.18641
     24       2.00000         -18.857067         -513.12691
     25       2.00000         -18.856291         -513.10578
     26       2.00000         -18.855436         -513.08252
     27       2.00000         -18.854406         -513.05448
     28       2.00000         -18.850987         -512.96145
     29       2.00000         -18.845647         -512.81614
     30       2.00000         -18.844393         -512.78201
     31       2.00000         -18.844266         -512.77858
     32       2.00000         -18.839900         -512.65975
     33       2.00000          -1.170822          -31.85968
     34       2.00000          -1.168007          -31.78308
     35       2.00000          -1.149174          -31.27062
     36       2.00000          -1.148732          -31.25859
     37       2.00000          -1.147727          -31.23125
     38       2.00000          -1.135927          -30.91014
     39       2.00000          -1.135505          -30.89865
     40       2.00000          -1.130042          -30.75001
     41       2.00000          -1.127755          -30.68779
     42       2.00000          -1.121332          -30.51301
     43       2.00000          -1.117190          -30.40030
     44       2.00000          -1.116774          -30.38896
     45       2.00000          -1.115091          -30.34318
     46       2.00000          -1.113952          -30.31218
     47       2.00000          -1.112319          -30.26774
     48       2.00000          -1.109345          -30.18682
     49       2.00000          -1.104374          -30.05155
     50       2.00000          -1.099729          -29.92515
     51       2.00000          -1.091424          -29.69915
     52       2.00000          -1.090376          -29.67063
     53       2.00000          -1.084446          -29.50928
     54       2.00000          -1.079612          -29.37775
     55       2.00000          -1.077672          -29.32493
     56       2.00000          -1.077159          -29.31099
     57       2.00000          -1.075530          -29.26667
     58       2.00000          -1.067215          -29.04041
     59       2.00000          -1.066034          -29.00825
     60       2.00000          -1.062056          -28.90001
     61       2.00000          -1.053769          -28.67451
     62       2.00000          -1.045057          -28.43744
     63       2.00000          -1.043855          -28.40473
     64       2.00000          -1.041711          -28.34641
     65       2.00000          -0.708013          -19.26602
     66       2.00000          -0.700606          -19.06447
     67       2.00000          -0.689673          -18.76694
     68       2.00000          -0.686315          -18.67558
     69       2.00000          -0.682722          -18.57780
     70       2.00000          -0.680531          -18.51818
     71       2.00000          -0.679263          -18.48369
     72       2.00000          -0.675485          -18.38089
     73       2.00000          -0.671887          -18.28296
     74       2.00000          -0.662419          -18.02533
     75       2.00000          -0.656144          -17.85459
     76       2.00000          -0.653906          -17.79368
     77       2.00000          -0.652179          -17.74671
     78       2.00000          -0.650985          -17.71419
     79       2.00000          -0.644911          -17.54893
     80       2.00000          -0.642501          -17.48333
     81       2.00000          -0.641883          -17.46654
     82       2.00000          -0.639117          -17.39126
     83       2.00000          -0.635517          -17.29331
     84       2.00000          -0.632660          -17.21556
     85       2.00000          -0.631278          -17.17794
     86       2.00000          -0.628102          -17.09151
     87       2.00000          -0.626720          -17.05391
     88       2.00000          -0.624436          -16.99176
     89       2.00000          -0.624128          -16.98339
     90       2.00000          -0.621088          -16.90067
     91       2.00000          -0.617624          -16.80642
     92       2.00000          -0.617143          -16.79332
     93       2.00000          -0.615522          -16.74920
     94       2.00000          -0.613154          -16.68476
     95       2.00000          -0.610802          -16.62077
     96       2.00000          -0.608284          -16.55225
     97       2.00000          -0.576845          -15.69676
     98       2.00000          -0.573209          -15.59781
     99       2.00000          -0.568074          -15.45808
    100       2.00000          -0.562816          -15.31499
    101       2.00000          -0.557681          -15.17527
    102       2.00000          -0.555075          -15.10436
    103       2.00000          -0.551154          -14.99767
    104       2.00000          -0.549723          -14.95872
    105       2.00000          -0.548592          -14.92794
    106       2.00000          -0.547492          -14.89800
    107       2.00000          -0.544721          -14.82262
    108       2.00000          -0.541401          -14.73228
    109       2.00000          -0.538774          -14.66078
    110       2.00000          -0.537357          -14.62224
    111       2.00000          -0.533933          -14.52907
    112       2.00000          -0.526216          -14.31906
    113       2.00000          -0.525697          -14.30493
    114       2.00000          -0.524851          -14.28193
    115       2.00000          -0.521890          -14.20135
    116       2.00000          -0.519838          -14.14550
    117       2.00000          -0.518616          -14.11225
    118       2.00000          -0.512501          -13.94587
    119       2.00000          -0.511589          -13.92106
    120       2.00000          -0.506666          -13.78708
    121       2.00000          -0.501883          -13.65693
    122       2.00000          -0.500238          -13.61218
    123       2.00000          -0.498787          -13.57268
    124       2.00000          -0.496528          -13.51120
    125       2.00000          -0.494452          -13.45471
    126       2.00000          -0.488714          -13.29859
    127       2.00000          -0.485805          -13.21944
    128       2.00000          -0.484700          -13.18935
    129       2.00000          -0.482775          -13.13697
    130       2.00000          -0.476333          -12.96169
    131       2.00000          -0.475927          -12.95065
    132       2.00000          -0.474888          -12.92237
    133       2.00000          -0.472351          -12.85332
    134       2.00000          -0.471507          -12.83036
    135       2.00000          -0.470218          -12.79528
    136       2.00000          -0.467553          -12.72275
    137       2.00000          -0.465002          -12.65335
    138       2.00000          -0.463943          -12.62453
    139       2.00000          -0.463087          -12.60124
    140       2.00000          -0.462606          -12.58814
    141       2.00000          -0.461672          -12.56274
    142       2.00000          -0.460909          -12.54197
    143       2.00000          -0.459148          -12.49405
    144       2.00000          -0.458775          -12.48390
    145       2.00000          -0.457777          -12.45675
    146       2.00000          -0.457600          -12.45192
    147       2.00000          -0.456040          -12.40948
    148       2.00000          -0.452980          -12.32620
    149       2.00000          -0.450800          -12.26688
    150       2.00000          -0.448538          -12.20534
    151       2.00000          -0.446815          -12.15846
    152       2.00000          -0.446747          -12.15661
    153       2.00000          -0.444076          -12.08392
    154       2.00000          -0.441620          -12.01709
    155       2.00000          -0.438673          -11.93690
    156       2.00000          -0.437178          -11.89623
    157       2.00000          -0.435921          -11.86202
    158       2.00000          -0.434949          -11.83556
    159       2.00000          -0.429347          -11.68311
    160       2.00000          -0.424247          -11.54436
    161       0.00000          -0.173533           -4.72207
    162       0.00000          -0.120695           -3.28429
    163       0.00000          -0.116120           -3.15977
    164       0.00000          -0.111523           -3.03469
    165       0.00000          -0.107677           -2.93004
    166       0.00000          -0.098592           -2.68282
    167       0.00000          -0.089380           -2.43214
    168       0.00000          -0.079258           -2.15671
    169       0.00000          -0.072906           -1.98389
    170       0.00000          -0.063810           -1.73635
    171       0.00000          -0.060478           -1.64570
    172       0.00000          -0.057932           -1.57641
    173       0.00000          -0.054103           -1.47223
    174       0.00000          -0.051082           -1.39000
    175       0.00000          -0.048962           -1.33232
    176       0.00000          -0.044706           -1.21651
    177       0.00000          -0.041133           -1.11929
    178       0.00000          -0.029849           -0.81224
    179       0.00000          -0.026420           -0.71892
    180       0.00000          -0.013906           -0.37840
    181       0.00000          -0.011013           -0.29969
    182       0.00000          -0.000434           -0.01181
    183       0.00000           0.004048            0.11016
    184       0.00000           0.006611            0.17990
    185       0.00000           0.009979            0.27155
    186       0.00000           0.014085            0.38327
    187       0.00000           0.021558            0.58663
    188       0.00000           0.024464            0.66570
    189       0.00000           0.026593            0.72363
    190       0.00000           0.031098            0.84621
    191       0.00000           0.036130            0.98313
    192       0.00000           0.037834            1.02950
    193       0.00000           0.039536            1.07582
    194       0.00000           0.043749            1.19048
    195       0.00000           0.047684            1.29755
    196       0.00000           0.051596            1.40400
    197       0.00000           0.053702            1.46131
    198       0.00000           0.057149            1.55510
    199       0.00000           0.058905            1.60288
    200       0.00000           0.059581            1.62129
    201       0.00000           0.061852            1.68309
    202       0.00000           0.065829            1.79130
    203       0.00000           0.066456            1.80836
    204       0.00000           0.069177            1.88239
    205       0.00000           0.071590            1.94807
    206       0.00000           0.074099            2.01632
    207       0.00000           0.076270            2.07540
    208       0.00000           0.079744            2.16995
    209       0.00000           0.083569            2.27402
    210       0.00000           0.084868            2.30939
    211       0.00000           0.087514            2.38138
    212       0.00000           0.089137            2.42553
    213       0.00000           0.093001            2.53067
    214       0.00000           0.095782            2.60637
    215       0.00000           0.097582            2.65534
    216       0.00000           0.100506            2.73491
    217       0.00000           0.105351            2.86674
    218       0.00000           0.107801            2.93340
    219       0.00000           0.111081            3.02268
    220       0.00000           0.115992            3.15629
    221       0.00000           0.117398            3.19457
    222       0.00000           0.125873            3.42519
    223       0.00000           0.134865            3.66986
    224       0.00000           0.137617            3.74475
    225       0.00000           0.141630            3.85395
    226       0.00000           0.148594            4.04346
    227       0.00000           0.151521            4.12311
    228       0.00000           0.156518            4.25908
    229       0.00000           0.160597            4.37007
    230       0.00000           0.164251            4.46949
    231       0.00000           0.172526            4.69468
    232       0.00000           0.179259            4.87790
    233       0.00000           0.180302            4.90627
    234       0.00000           0.184692            5.02572
    235       0.00000           0.195035            5.30718
    236       0.00000           0.199580            5.43084
    237       0.00000           0.205586            5.59427
    238       0.00000           0.211737            5.76165
    239       0.00000           0.219363            5.96918
    240       0.00000           0.228322            6.21295
    241       0.00000           0.231516            6.29988
    242       0.00000           0.234235            6.37386
    243       0.00000           0.240800            6.55250
    244       0.00000           0.253802            6.90631
    245       0.00000           0.258760            7.04122
    246       0.00000           0.266470            7.25101
    247       0.00000           0.271459            7.38679
    248       0.00000           0.274069            7.45779
    249       0.00000           0.277047            7.53885
    250       0.00000           0.286566            7.79787
    251       0.00000           0.292120            7.94898
    252       0.00000           0.293487            7.98618
    253       0.00000           0.302511            8.23175
    254       0.00000           0.303651            8.26275
    255       0.00000           0.308479            8.39413
    256       0.00000           0.317362            8.63586
    257       0.00000           0.320005            8.70777
    258       0.00000           0.326536            8.88549
    259       0.00000           0.336350            9.15255
    260       0.00000           0.342517            9.32037
[...]
  |    H      0     4.527807 A      4.527807 A        1.268855E-16 a.u.
  |    H      0     4.527807 A      4.583499 A       -4.900954E-17 a.u.
  |    H      0     4.527807 A      4.583499 A        4.713786E-16 a.u.
  |    H      2     3.678162 A  2.180220E+05 A            0.556529 a.u.
  |    H      1     3.958095 A  1.721251E+08 A            0.841931 a.u.
  |    H      0     4.527807 A  3.866455E+16 A            0.581436 a.u.
  |    O      0     2.043000 A      2.043000 A       -1.436841E-16 a.u.
  |    O      3     3.498446 A      3.498446 A        3.043453E-17 a.u.
  |    O      3     3.498446 A      3.498446 A        1.541443E-16 a.u.
  |    O      0     3.905335 A      3.905335 A        2.173090E-16 a.u.
  |    O      0     3.905335 A      3.905335 A        7.213445E-17 a.u.
  |    O      0     4.101052 A      4.101052 A        2.361718E-16 a.u.
  |    O      1     4.101052 A      4.101052 A        3.235185E-17 a.u.
  |    O      0     4.359549 A      4.359549 A       -5.329475E-17 a.u.
  |    O      1     4.413171 A      4.413171 A        3.261883E-17 a.u.
  |    O      1     4.522403 A      4.522403 A        6.417997E-16 a.u.
  |    O      1     4.522403 A      4.522403 A        4.224783E-16 a.u.
  |    O      2     4.522403 A      4.522403 A       -4.387647E-16 a.u.
  |    O      0     4.522403 A      4.578029 A        2.602039E-16 a.u.
  |    O      0     4.578029 A      4.578029 A        1.226235E-16 a.u.
  |    O      1     4.578029 A      4.578029 A       -6.107316E-16 a.u.
  |    O      1     4.578029 A      4.578029 A       -2.224438E-16 a.u.
  |    O      2     4.578029 A      4.578029 A       -7.020279E-16 a.u.
  |    O      2     4.522403 A      4.578029 A        1.323470E-15 a.u.
  |    O      2     4.578029 A      4.578029 A        7.923696E-16 a.u.
  |    O      2     4.522403 A      4.578029 A       -9.951815E-16 a.u.
  |    O      0     4.578029 A      4.634338 A       -8.813582E-18 a.u.
  |    O      1     4.578029 A      4.634338 A       -3.325386E-17 a.u.
  |    O      1     4.634338 A      4.634338 A        9.588032E-16 a.u.
  |    O      2     4.578029 A      4.634338 A        1.064715E-17 a.u.
  |    O      2     4.578029 A      4.634338 A       -3.770343E-15 a.u.
  |    O      4     3.251020 A  1.511584E+03 A            1.513372 a.u.
  |    O      3     3.541477 A  1.434166E+04 A            4.293220 a.u.
  |    O      2     4.634338 A  5.584435E+05 A            9.352428 a.u.
  |    O      1     4.634338 A  2.821283E+08 A            2.261940 a.u.
  |    O      0     4.578029 A  4.264100E+16 A            0.641234 a.u.

  | Shrink_full_auxil_basis : there are       38  radial auxiliary wave functions
                            accepted and       5 rejected.
  | Shrink_full_auxil_basis : there are totally                4544 partial auxiliary wave functions.
 
  | Maximal number of product basis functions per thread :   256   256
 
  | Minimal total memory requirement for three-center overlap :      10.450 Gbs
  | Number of local auxiliary basis functions on task:      0   256
  | Number of local auxiliary basis functions on task:      1   256
  | Number of local auxiliary basis functions on task:      2   256
  | Number of local auxiliary basis functions on task:      3   256
  | Number of local auxiliary basis functions on task:      4   256
  | Number of local auxiliary basis functions on task:      5   256
  | Number of local auxiliary basis functions on task:      6   256
  | Number of local auxiliary basis functions on task:      7   256
  | Number of local auxiliary basis functions on task:      8   256
  | Number of local auxiliary basis functions on task:      9   256
  | Number of local auxiliary basis functions on task:     10   256
  | Number of local auxiliary basis functions on task:     11   256
  | Number of local auxiliary basis functions on task:     12   256
  | Number of local auxiliary basis functions on task:     13   256
  | Number of local auxiliary basis functions on task:     14   240
  | Number of local auxiliary basis functions on task:     15   240
  | Number of local auxiliary basis functions on task:     16   240
  | Number of local auxiliary basis functions on task:     17   240
  | 2D aux task distribution:      3 X      6
  | 2D block size (nb_aux_2d):     64
 
  Basis pair condensation :    295296  -->     210614
 
 --------------------------------------------
  Constructing auxiliary basis (full product) ...
 
  Product basis:
  | charge radius: extent of product basis function
  | field radius: extent of its Coulomb potential
  | Species   l  charge radius    field radius  multipol momen
  |    H      1     3.910002 A      3.910002 A       -2.487223E-16 a.u.
  |    H      1     3.958095 A      3.958095 A       -2.441841E-16 a.u.
  |    H      0     4.527807 A      4.527807 A        1.268855E-16 a.u.
  |    H      0     4.527807 A      4.583499 A       -4.900954E-17 a.u.
  |    H      0     4.527807 A      4.583499 A        4.713786E-16 a.u.
  |    H      2     3.678162 A  2.180220E+05 A            0.556529 a.u.
  |    H      1     3.958095 A  1.721251E+08 A            0.841931 a.u.
  |    H      0     4.527807 A  3.866455E+16 A            0.581436 a.u.
  |    O      0     2.043000 A      2.043000 A       -1.436841E-16 a.u.
  |    O      3     3.498446 A      3.498446 A        3.043453E-17 a.u.
  |    O      3     3.498446 A      3.498446 A        1.541443E-16 a.u.
  |    O      0     3.905335 A      3.905335 A        2.173090E-16 a.u.
  |    O      0     3.905335 A      3.905335 A        7.213445E-17 a.u.
  |    O      0     4.101052 A      4.101052 A        2.361718E-16 a.u.
  |    O      1     4.101052 A      4.101052 A        3.235185E-17 a.u.
  |    O      0     4.359549 A      4.359549 A       -5.329475E-17 a.u.
  |    O      1     4.413171 A      4.413171 A        3.261883E-17 a.u.
  |    O      1     4.522403 A      4.522403 A        6.417997E-16 a.u.
  |    O      1     4.522403 A      4.522403 A        4.224783E-16 a.u.
  |    O      2     4.522403 A      4.522403 A       -4.387647E-16 a.u.
  |    O      0     4.522403 A      4.578029 A        2.602039E-16 a.u.
  |    O      0     4.578029 A      4.578029 A        1.226235E-16 a.u.
  |    O      1     4.578029 A      4.578029 A       -6.107316E-16 a.u.
  |    O      1     4.578029 A      4.578029 A       -2.224438E-16 a.u.
  |    O      2     4.578029 A      4.578029 A       -7.020279E-16 a.u.
  |    O      2     4.522403 A      4.578029 A        1.323470E-15 a.u.
  |    O      2     4.578029 A      4.578029 A        7.923696E-16 a.u.
  |    O      2     4.522403 A      4.578029 A       -9.951815E-16 a.u.
  |    O      0     4.578029 A      4.634338 A       -8.813582E-18 a.u.
  |    O      1     4.578029 A      4.634338 A       -3.325386E-17 a.u.
  |    O      1     4.634338 A      4.634338 A        9.588032E-16 a.u.
  |    O      2     4.578029 A      4.634338 A        1.064715E-17 a.u.
  |    O      2     4.578029 A      4.634338 A       -3.770343E-15 a.u.
  |    O      4     3.251020 A  1.511584E+03 A            1.513372 a.u.
  |    O      3     3.541477 A  1.434166E+04 A            4.293220 a.u.
  |    O      2     4.634338 A  5.584435E+05 A            9.352428 a.u.
  |    O      1     4.634338 A  2.821283E+08 A            2.261940 a.u.
  |    O      0     4.578029 A  4.264100E+16 A            0.641234 a.u.

  | Shrink_full_auxil_basis : there are       38  radial auxiliary wave functions
                            accepted and       5 rejected.
  | Shrink_full_auxil_basis : there are totally                4544 partial auxiliary wave functions.
 
  | Maximal number of product basis functions per thread :   256   256
 
  | Minimal total memory requirement for three-center overlap :      10.450 Gbs
  | Number of local auxiliary basis functions on task:      0   256
  | Number of local auxiliary basis functions on task:      1   256
  | Number of local auxiliary basis functions on task:      2   256
  | Number of local auxiliary basis functions on task:      3   256
  | Number of local auxiliary basis functions on task:      4   256
  | Number of local auxiliary basis functions on task:      5   256
  | Number of local auxiliary basis functions on task:      6   256
  | Number of local auxiliary basis functions on task:      7   256
  | Number of local auxiliary basis functions on task:      8   256
  | Number of local auxiliary basis functions on task:      9   256
  | Number of local auxiliary basis functions on task:     10   256
  | Number of local auxiliary basis functions on task:     11   256
  | Number of local auxiliary basis functions on task:     12   256
  | Number of local auxiliary basis functions on task:     13   256
  | Number of local auxiliary basis functions on task:     14   240
  | Number of local auxiliary basis functions on task:     15   240
  | Number of local auxiliary basis functions on task:     16   240
  | Number of local auxiliary basis functions on task:     17   240
  | 2D aux task distribution:      3 X      6
  | 2D block size (nb_aux_2d):     64
 
  Basis pair condensation :    295296  -->     210614
dP_dE (Bohr^3) at every cycle:--->
 (343.016299749658,0.000000000000000E+000) (-5.97750024216257,0.000000000000000E+000) (5.18169842744949,0.000000000000000E+000)
 (-5.97020133221149,0.000000000000000E+000) (351.568159547746,0.000000000000000E+000) (16.2068276457940,0.000000000000000E+000)
 (5.18938093830092,0.000000000000000E+000) (16.2139269588626,0.000000000000000E+000) (363.408071981224,0.000000000000000E+000)
DFPT polarizability (Bohr^3)        xx        yy        zz        xy        xz        yz
  | Polarizability:--->                       343.016299750                  351.568159548                  363.408071981                   -5.977500242                    5.181698427                   16.206827646

DFPT for dielectric_constant:--->  # PARSE DFPT_dielectric_tensor
               1.641145113924419            -0.011172778309782             0.009685314170241
              -0.011159135633164             1.657129727858254             0.030292812221750
               0.009699673850229             0.030306081824068             1.679260168923467

                                               :  max(cpu_time)    wall_clock(cpu1)
  | Time for  dielectric calculation            :        0.000 s           0.000 s
===========================================================================

------------------------------------------------------------------------------
  Final output of selected total energy values:

  The following output summarizes some interesting total energy values
  at the end of a run (AFTER all relaxation, molecular dynamics, etc.).

  | Total energy of the DFT / Hartree-Fock s.c.f. calculation      :         -66110.012233872 eV
  | Final zero-broadening corrected energy (caution - metals only) :         -66110.012233872 eV
  | For reference only, the value of 1 Hartree used in FHI-aims is :             27.211384500 eV
  | For reference only, the overall average (free atom contribution
  | + realspace contribution) of the electrostatic potential after
  | s.c.f. convergence is                                          :             -4.810767436 eV

  Before relying on these values, please be sure to understand exactly which
  total energy value is referred to by a given number. Different objects may
  all carry the same name 'total energy'. Definitions:

  Total energy of the DFT / Hartree-Fock s.c.f. calculation:
  | Note that this energy does not include ANY quantities calculated after the
  | s.c.f. cycle, in particular not ANY RPA, MP2, etc. many-body perturbation terms.

  Final zero-broadening corrected energy:
  | For metallic systems only, a broadening of the occupation numbers at the Fermi
  | level can be extrapolated back to zero broadening by an electron-gas inspired
  | formula. For all systems that are not real metals, this value can be
  | meaningless and should be avoided.

------------------------------------------------------------------------------
  Methods described in the following list of references were used in this FHI-aims run.
  If you publish the results, please make sure to cite these reference if they apply.
  FHI-aims is an academic code, and for our developers (often, Ph.D. students
  and postdocs), scientific credit in the community is essential.
  Thank you for helping us!

  For any use of FHI-aims, please cite:

    Volker Blum, Ralf Gehrke, Felix Hanke, Paula Havu, Ville Havu,
    Xinguo Ren, Karsten Reuter, and Matthias Scheffler
    'Ab initio molecular simulations with numeric atom-centered orbitals'
    Computer Physics Communications 180, 2175-2196 (2009)
    http://doi.org/10.1016/j.cpc.2009.06.022


  For Hartree-Fock, hybrid functionals, or many-body perturbation theory used in your run, please cite:

    Xinguo Ren, Patrick Rinke, Volker Blum, Juergen Wieferink, Alex Tkatchenko,
    Andrea Sanfilippo, Karsten Reuter, and Matthias Scheffler,
    'Resolution-of-identity approach to Hartree-Fock, hybrid density functionals,
    RPA, MP2, and GW with numeric atom-centered orbital basis functions'
    New Journal of Physics 14, 053020 (2012).
    http://doi.org/10.1088/1367-2630/14/5/053020


  The provided symmetry information was generated with SPGlib:

    Atsushi Togo, Yusuke Seto, Dimitar Pashov
    SPGlib 1.7.3 obtained from http://spglib.sourceforge.net
    Copyright (C) 2008 Atsushi Togo


  The DFPT (perturbation by an electric field) part of the code was used.
  Here is the corresponding reference:

    Honghui Shang, Nathaniel Raimbault, Mariana Rossi,
    Christian Carbogno, Patrick Rinke and Matthias Scheffler,
    'All-Electron, Real-Space Perturbation Theory for Homogeneous
    Electric Fields: Theory, Implementation, and Application within dft'
    New Journal of Physics, 20(7):073040, 2018


  The ELSI infrastructure was used in your run to solve the Kohn-Sham electronic structure.
  Please check out http://elsi-interchange.org to learn more.
  If scalability is important for your project, please acknowledge ELSI by citing:

    V. W-z. Yu, F. Corsetti, A. Garcia, W. P. Huhn, M. Jacquelin, W. Jia,
    B. Lange, L. Lin, J. Lu, W. Mi, A. Seifitokaldani, A. Vazquez-Mayagoitia,
    C. Yang, H. Yang, and V. Blum
    'ELSI: A unified software interface for Kohn-Sham electronic structure solvers'
    Computer Physics Communications 222, 267-285 (2018).
    http://doi.org/10.1016/j.cpc.2017.09.007


  For the real-space grid partitioning and parallelization used in this calculation, please cite:

    Ville Havu, Volker Blum, Paula Havu, and Matthias Scheffler,
    'Efficient O(N) integration for all-electron electronic structure calculation'
    'using numerically tabulated basis functions'
    Journal of Computational Physics 228, 8367-8379 (2009).
    http://doi.org/10.1016/j.jcp.2009.08.008


  The high-level electronic structure method used in your calculation
  employed our efficient localized resolution of identity for the Coulomb operator.
  Some calculations, especially large-scale hybrid density functional theory,
  are only possible thanks to this development. For this feature, please cite:

    Arvid Ihrig, Juergen Wieferink, Igor Ying Zhang, Matti Ropo, Xinguo Ren,
    Patrick Rinke, Matthias Scheffler, and Volker Blum,
    'Accurate localized resolution of identity approach for linear-scaling
    hybrid density functionals and for many-body perturbation theory'
    New Journal of Physics 117, 093020 (2015).
    http://doi.org/10.1088/1367-2630/17/9/093020

  Of course, there are many other important community references, e.g., those cited in the
  above references. Our list is limited to references that describe implementations in the
  FHI-aims code. The reason is purely practical (length of this list) - please credit others as well.

------------------------------------------------------------
          Leaving FHI-aims.
          Date     :  20230221, Time     :  135259.520

          Computational steps:
          | Number of self-consistency cycles          :           45
          | Number of SCF (re)initializations          :            1
          | Number of coupled perturbed self-consistency cycles          :            0
          | Number of CPSCF (re)initializations          :            0

          Detailed time accounting                     :  max(cpu_time)    wall_clock(cpu1)
          | Total time                                  :      480.343 s         498.880 s
          | GPU initialization                          :        2.247 s          12.422 s
          | Preparation time                            :        0.073 s           0.069 s
          | Boundary condition initalization            :        1.285 s           1.286 s
          | Grid partitioning                           :        0.439 s           0.439 s
          | Preloading free-atom quantities on grid     :        2.361 s           2.361 s
          | Free-atom superposition energy              :        0.271 s           0.271 s
          | Total time for integrations                 :       12.132 s          12.562 s
          | Product basis setup: Total time             :        0.000 s           0.000 s
          | Product basis: | 2-center integrations     :(       0.000 s)  (       0.000 s)
          | Product basis: | LVL 3-center & coefficient:(       0.000 s)  (       0.000 s)
          | Total time for solution of K.-S. equations  :        3.190 s           9.567 s
          | Total time for density update               :        8.838 s           9.545 s
          | Total time for mixing & preconditioning     :        7.995 s           8.000 s
          | Total time for Hartree multipole update     :        0.106 s           0.106 s
          | Total time for Hartree multipole sum        :       35.867 s          35.882 s
          | Total time for total energy evaluation      :        0.012 s           0.006 s
          | Total time for DFPT                         :      405.042 s         405.207 s
          | Total time first_order_DM                   :        0.283 s           0.283 s
          | Total time first_order_density              :       75.576 s          75.590 s
          | Total time first_order_potential            :       51.690 s          51.707 s
          | Total time first_order_H                    :      147.824 s         147.875 s
          | Total time solving of Sternheimer equations :        0.173 s           0.175 s
          | Total time for dielectric constant          :        0.000 s           0.000 s
          | Total time momentum matrix                  :        0.000 s           0.000 s

          GPU acceleration has been used for charge density update.
          GPU acceleration has been used for real-space Hamiltonian integration.
          Due to GPU usage, wall_clock(cpu1) will give a more reliable estimate for timings.

          Partial memory accounting:
          | Residual value for overall tracked memory usage across tasks:     0.000000 MB (should be 0.000000 MB)
          | Peak values for overall tracked memory usage:
          |   Minimum:      114.217 MB (on task  0 after allocating DFPT_pulay_mixing::pulay_mix::alphas)
          |   Maximum:      114.217 MB (on task  0 after allocating DFPT_pulay_mixing::pulay_mix::alphas)
          |   Average:      114.217 MB
          | Largest tracked array allocation:
          |   Minimum:       40.731 MB (DFPT_pulay_mixing::initialize_pulay_mixing::X_in_diffs on task  0)
          |   Maximum:       40.731 MB (DFPT_pulay_mixing::initialize_pulay_mixing::X_in_diffs on task  0)
          |   Average:       40.731 MB
          Note:  These values currently only include a subset of arrays which are explicitly tracked.
          The "true" memory usage will be greater.

          Have a nice day.
------------------------------------------------------------
