------------------------------------------------------------
          Invoking FHI-aims ...

          When using FHI-aims, please cite the following reference:

            Volker Blum, Ralf Gehrke, Felix Hanke, Paula Havu,
            Ville Havu, Xinguo Ren, Karsten Reuter, and Matthias Scheffler,
            'Ab Initio Molecular Simulations with Numeric Atom-Centered Orbitals',
            Computer Physics Communications 180, 2175-2196 (2009)

          In addition, many other developments in FHI-aims are likely important for
          your particular application. A partial list of references is given at the end of
          this file. Thank you for giving credit to the authors of these developments.

          For any questions about FHI-aims, please visit our slack channel at

            https://fhi-aims.slack.com

          and our main development and support site at

            https://aims-git.rz-berlin.mpg.de .

          The latter site, in particular, has a wiki to collect information, as well
          as an issue tracker to log discussions, suggest improvements, and report issues
          or bugs. https://aims-git.rz-berlin.mpg.de is also the main development site
          of the project and all new and updated code versions can be obtained there.
          Please send an email to aims-coordinators@fhi-berlin.mpg.de and we will add
          you to these sites. They are for you and everyone is welcome there.

------------------------------------------------------------



  Date     :  20230221, Time     :  151652.446
  Time zero on CPU 1             :   0.335185000000000E+00  s.
  Internal wall clock time zero  :           446224612.446  s.

  FHI-aims created a unique identifier for this run for later identification
  aims_uuid : 54C0A8DE-D3A5-4B2B-A1F4-612A8AF7DFDD

  Build configuration of the current instance of FHI-aims
  -------------------------------------------------------
  FHI-aims version      : 221103
  Commit number         : 42523251a
  CMake host system     : Linux-5.3.18-150300.59.68-default
  CMake version         : 3.17.0
  Fortran compiler      : /mpcdf/soft/SLE_15/packages/x86_64/intel_oneapi/2021.3/mpi/2021.3.0/bin/mpiifort (Intel) version 20.2.3.20210609
  Fortran compiler flags: -O3 -ip -fp-model precise
  C compiler            : /mpcdf/soft/SLE_15/packages/x86_64/intel/2021.3.0/bin/icc (Intel) version 20.2.3.20210609
  C compiler flags      : -O3 -ip -fp-model precise -std=gnu99
  CUDA compiler         : /mpcdf/soft/SLE_15/packages/x86_64/cuda/11.6.2/bin/nvcc
  CUDA compiler flags   : -O3 -DAdd_ -lcublas
  HIP compiler          :
  HIP compiler flags    :
  HIP GPU arch          :
  ELPA2 kernel          : AVX512
  Using MPI
  Using ScaLAPACK
  Using LibXC
  Using CUDA
  Using i-PI
  Using RLSY
  Linking against: /mpcdf/soft/SLE_15/packages/x86_64/cuda/11.6.2/lib64/libcublas.so
                   /mpcdf/soft/SLE_15/packages/x86_64/cuda/11.6.2/lib64/libcudart.so
                   /mpcdf/soft/SLE_15/packages/x86_64/intel_oneapi/2021.3/mkl/latest/lib/intel64/libmkl_intel_lp64.so
                   /mpcdf/soft/SLE_15/packages/x86_64/intel_oneapi/2021.3/mkl/latest/lib/intel64/libmkl_sequential.so
                   /mpcdf/soft/SLE_15/packages/x86_64/intel_oneapi/2021.3/mkl/latest/lib/intel64/libmkl_core.so
                   /mpcdf/soft/SLE_15/packages/x86_64/intel_oneapi/2021.3/mkl/latest/lib/intel64/libmkl_blacs_intelmpi_lp64.so
                   /mpcdf/soft/SLE_15/packages/x86_64/intel_oneapi/2021.3/mkl/latest/lib/intel64/libmkl_scalapack_lp64.so

  Using       18 parallel tasks.
  Task        0 on host adag038 reporting.
  Task        1 on host adag038 reporting.
  Task        2 on host adag038 reporting.
  Task        3 on host adag038 reporting.
  Task        4 on host adag038 reporting.
  Task        5 on host adag038 reporting.
  Task        6 on host adag038 reporting.
  Task        7 on host adag038 reporting.
  Task        8 on host adag038 reporting.
  Task        9 on host adag038 reporting.
  Task       10 on host adag038 reporting.
  Task       11 on host adag038 reporting.
  Task       12 on host adag038 reporting.
  Task       13 on host adag038 reporting.
  Task       14 on host adag038 reporting.
  Task       15 on host adag038 reporting.
  Task       16 on host adag038 reporting.
  Task       17 on host adag038 reporting.

  Obtaining array dimensions for all initial allocations:
  
  -----------------------------------------------------------------------
  Parsing control.in (first pass over file, find array dimensions only).
  The contents of control.in will be repeated verbatim below
  unless switched off by setting 'verbatim_writeout .false.' .
  in the first line of control.in .
  -----------------------------------------------------------------------
  
  #########################################################################################
  #
  #  Volker Blum, 2017 : Test run input file control.in for simple H2O
  #
  #########################################################################################
  #
  #  Physical model
  #
    xc                 pw-lda
    spin               none
    relativistic       none
    charge             0.
  
    use_gpu
  
    DFPT dielectric
    ri_density_restart write
    ri_rho1 write
  #  ri_density_restart read 0
  #  ri_rho1 read
    ri_full_output .true.
    sc_accuracy_rho    1d-6
  #  use_calculate_fock_matrix_old .false.
  #  wave_threshold 1e-8
    k_grid 1 1 1
  #  output cube eigenstate 160
  #  output cube eigenstate 161
    wave_threshold 1e-8
    default_prodbas_acc 1e-6
    default_max_l_prodbas 6
  #
  #  Relaxation
  #
  #  relax_geometry   bfgs 1.e-2
  #
  
  ################################################################################
  
  
  ################################################################################
  #
  #  FHI-aims code project
  #  VB, Fritz-Haber Institut, 2009
  #
  #  Suggested "light" defaults for H atom (to be pasted into control.in file)
  #  Be sure to double-check any results obtained with these settings for post-processing,
  #  e.g., with the "tight" defaults and larger basis sets.
  #
  ################################################################################
    species        H
  #     global species definitions
      nucleus             1
      mass                1.00794
  #
      l_hartree           4
  #
      cut_pot             3.5  1.5  1.0
      basis_dep_cutoff    1e-4
  #
      radial_base         24 5.0
      radial_multiplier   1
      angular_grids       specified
        division   0.2421   50
        division   0.3822  110
        division   0.4799  194
        division   0.5341  302
  #      division   0.5626  434
  #      division   0.5922  590
  #      division   0.6542  770
  #      division   0.6868 1202
  #      outer_grid  770
        outer_grid  302
  ################################################################################
  #
  #  Definition of "minimal" basis
  #
  ################################################################################
  #     valence basis states
      valence      1  s   1.
  #     ion occupancy
      ion_occ      1  s   0.5
  ################################################################################
  #
  #  Suggested additional basis functions. For production calculations,
  #  uncomment them one after another (the most important basis functions are
  #  listed first).
  #
  #  Basis constructed for dimers: 0.5 A, 0.7 A, 1.0 A, 1.5 A, 2.5 A
  #
  ################################################################################
  #  "First tier" - improvements: -1014.90 meV to -62.69 meV
       hydro 2 s 2.1
       hydro 2 p 3.5
  #  "Second tier" - improvements: -12.89 meV to -1.83 meV
  #     hydro 1 s 0.85
  #     hydro 2 p 3.7
  #     hydro 2 s 1.2
  #     hydro 3 d 7
  #  "Third tier" - improvements: -0.25 meV to -0.12 meV
  #     hydro 4 f 11.2
  #     hydro 3 p 4.8
  #     hydro 4 d 9
  #     hydro 3 s 3.2
  ################################################################################
  #
  #  FHI-aims code project
  #  VB, Fritz-Haber Institut, 2009
  #
  #  Suggested "light" defaults for O atom (to be pasted into control.in file)
  #  Be sure to double-check any results obtained with these settings for post-processing,
  #  e.g., with the "tight" defaults and larger basis sets.
  #
  ################################################################################
    species        O
  #     global species definitions
      nucleus             8
      mass                15.9994
  #
      l_hartree           4
  #
      cut_pot             3.5  1.5  1.0
      basis_dep_cutoff    1e-4
  #
      radial_base         36 5.0
      radial_multiplier   1
       angular_grids specified
        division   0.2659   50
        division   0.4451  110
        division   0.6052  194
        division   0.7543  302
  #      division   0.8014  434
  #      division   0.8507  590
  #      division   0.8762  770
  #      division   0.9023  974
  #      division   1.2339 1202
  #      outer_grid 974
        outer_grid 302
  ################################################################################
  #
  #  Definition of "minimal" basis
  #
  ################################################################################
  #     valence basis states
      valence      2  s   2.
      valence      2  p   4.
  #     ion occupancy
      ion_occ      2  s   1.
      ion_occ      2  p   3.
  ################################################################################
  #
  #  Suggested additional basis functions. For production calculations,
  #  uncomment them one after another (the most important basis functions are
  #  listed first).
  #
  #  Constructed for dimers: 1.0 A, 1.208 A, 1.5 A, 2.0 A, 3.0 A
  #
  ################################################################################
  #  "First tier" - improvements: -699.05 meV to -159.38 meV
       hydro 2 p 1.8
       hydro 3 d 7.6
       hydro 3 s 6.4
  #  "Second tier" - improvements: -49.91 meV to -5.39 meV
  #     hydro 4 f 11.6
  #     hydro 3 p 6.2
  #     hydro 3 d 5.6
  #     hydro 5 g 17.6
  #     hydro 1 s 0.75
  #  "Third tier" - improvements: -2.83 meV to -0.50 meV
  #     ionic 2 p auto
  #     hydro 4 f 10.8
  #     hydro 4 d 4.7
  #     hydro 2 s 6.8
  #  "Fourth tier" - improvements: -0.40 meV to -0.12 meV
  #     hydro 3 p 5
  #     hydro 3 s 3.3
  #     hydro 5 g 15.6
  #     hydro 4 f 17.6
  #     hydro 4 d 14
  # Further basis functions - -0.08 meV and below
  #     hydro 3 s 2.1
  #     hydro 4 d 11.6
  #     hydro 3 p 16
  #     hydro 2 s 17.2
  
  -----------------------------------------------------------------------
  Completed first pass over input file control.in .
  -----------------------------------------------------------------------
  
  
  -----------------------------------------------------------------------
  Parsing geometry.in (first pass over file, find array dimensions only).
  The contents of geometry.in will be repeated verbatim below
  unless switched off by setting 'verbatim_writeout .false.' .
  in the first line of geometry.in .
  -----------------------------------------------------------------------
  
  #=======================================================
  # FHI-aims file: /ada/ptmp/mpsd/alewis/bulk_water/qmdata/data/geoms/26.in
  # Created using the Atomic Simulation Environment (ASE)
  # Tue Feb 21 11:23:37 2023
  #=======================================================
  lattice_vector 9.8726900000000004 0.0000000000000000 0.0000000000000000
  lattice_vector 0.0000000000000000 9.8726900000000004 0.0000000000000000
  lattice_vector 0.0000000000000000 0.0000000000000000 9.8726900000000004
  atom 3.8851800000000001 14.1204999999999998 0.1723380000000000 O
  atom 4.5812299999999997 13.6353000000000009 0.2222900000000000 H
  atom 3.8750200000000001 14.5716000000000001 -0.5280690000000000 H
  atom 0.6909300000000000 10.1394000000000002 3.3578299999999999 O
  atom 0.3863660000000000 10.8632000000000009 3.6285799999999999 H
  atom -0.1212710000000000 9.5535499999999995 3.0953900000000001 H
  atom -7.1860999999999997 -2.1805400000000001 5.7326899999999998 O
  atom -6.2998300000000000 -1.7199400000000000 5.6561700000000004 H
  atom -7.5687699999999998 -1.3718600000000001 5.9941199999999997 H
  atom 5.0452300000000001 4.6575100000000003 4.0140700000000002 O
  atom 5.5600699999999996 4.5981199999999998 4.8390300000000002 H
  atom 4.6527700000000003 3.6878500000000001 3.8935200000000001 H
  atom -10.4604999999999997 2.7019299999999999 4.4954900000000002 O
  atom -9.6104599999999998 3.2075700000000000 4.1823899999999998 H
  atom -11.1074999999999999 3.0805400000000001 3.7543400000000000 H
  atom -7.3897800000000000 1.7186500000000000 19.4923999999999999 O
  atom -7.7356499999999997 2.5545700000000000 19.8906999999999989 H
  atom -7.7231899999999998 1.9841299999999999 18.6296999999999997 H
  atom 6.8081899999999997 2.0321799999999999 1.4033599999999999 O
  atom 7.6317700000000004 1.7702400000000000 1.0689000000000000 H
  atom 6.8630000000000004 2.8526899999999999 1.7776400000000001 H
  atom -3.7570700000000001 -0.3701430000000000 -2.2987099999999998 O
  atom -4.0994099999999998 0.4434710000000000 -1.8911400000000000 H
  atom -4.1524700000000001 -1.0123800000000001 -1.7208100000000000 H
  atom 15.1068999999999996 1.8423600000000000 -0.8190760000000000 O
  atom 15.6268999999999991 1.8155699999999999 -0.0177700000000000 H
  atom 14.1417000000000002 1.5790200000000001 -0.6626320000000000 H
  atom 11.3185000000000002 -5.9622599999999997 10.7398000000000007 O
  atom 12.2883999999999993 -5.7022599999999999 10.4014000000000006 H
  atom 10.6968999999999994 -5.5169899999999998 10.1425000000000001 H
  atom 4.5011200000000002 6.0936100000000000 -2.3765100000000001 O
  atom 3.6601800000000000 6.4002800000000004 -2.8385899999999999 H
  atom 4.7495300000000000 6.6165599999999998 -1.5769299999999999 H
  atom 3.8636599999999999 2.1578400000000002 3.9451499999999999 O
  atom 3.6896700000000000 1.5426000000000000 3.3203999999999998 H
  atom 4.2687999999999997 1.8026500000000001 4.7024499999999998 H
  atom 1.2970400000000000 6.7963600000000000 -6.6104799999999999 O
  atom 1.6868200000000000 7.2060899999999997 -5.9658100000000003 H
  atom 1.5657300000000001 5.9003100000000002 -6.4029400000000001 H
  atom -1.2342800000000000 -1.3396800000000000 2.5759900000000000 O
  atom -1.3386700000000000 -2.1225499999999999 3.2673100000000002 H
  atom -2.0579499999999999 -0.7389540000000000 2.9982300000000000 H
  atom -2.6969099999999999 10.6064000000000007 3.7959999999999998 O
  atom -2.2155200000000002 11.2013999999999996 4.2921300000000002 H
  atom -3.1597400000000002 10.8890999999999991 2.9861900000000001 H
  atom -2.3834800000000000 14.1225000000000005 12.7729999999999997 O
  atom -2.0086900000000001 14.7448999999999995 11.9708000000000006 H
  atom -3.3363700000000001 14.2805999999999997 12.9664000000000001 H
  atom 5.6616900000000001 -2.2561000000000000 9.8142399999999999 O
  atom 6.3934499999999996 -2.8843899999999998 9.8535400000000006 H
  atom 5.1406499999999999 -2.5063399999999998 10.6463999999999999 H
  atom -1.1822600000000001 6.6786700000000003 14.5391999999999992 O
  atom -1.1591499999999999 5.9270699999999996 14.0922000000000001 H
  atom -0.3078670000000000 7.0273599999999998 14.5289000000000001 H
  atom 8.9251500000000004 9.0197699999999994 -2.3310300000000002 O
  atom 9.4288600000000002 9.2023499999999991 -1.3787700000000001 H
  atom 8.0333900000000007 9.1119599999999998 -1.9965500000000000 H
  atom -0.6850590000000000 1.3484400000000001 0.5358150000000000 O
  atom -0.0338540000000000 2.0635300000000001 0.6540640000000000 H
  atom -0.4211460000000000 0.5818640000000000 -0.0628270000000000 H
  atom 11.5068000000000001 3.8273999999999999 3.5866899999999999 O
  atom 11.4216999999999995 3.6525599999999998 2.7166899999999998 H
  atom 12.3910999999999998 3.5410200000000001 3.7572700000000001 H
  atom 3.0574400000000002 10.1780000000000008 2.0745300000000002 O
  atom 2.2750100000000000 9.9114500000000003 2.3221500000000002 H
  atom 2.9053800000000001 10.6595999999999993 1.1370899999999999 H
  atom 9.6780700000000000 5.7214600000000004 9.3057300000000005 O
  atom 9.8891200000000001 6.6636400000000000 9.3523099999999992 H
  atom 9.3369599999999995 5.5818000000000003 8.3440799999999999 H
  atom 1.3316800000000000 10.0510000000000002 5.9722400000000002 O
  atom 0.7203070000000000 9.5922300000000007 6.4590500000000004 H
  atom 0.9406560000000000 9.7678999999999991 5.1347199999999997 H
  atom 2.5920600000000000 -1.9840300000000000 0.2940700000000000 O
  atom 2.7261099999999998 -1.1599200000000001 0.6054670000000000 H
  atom 2.9133399999999998 -2.5188700000000002 1.1938100000000000 H
  atom 3.0865900000000002 2.4326300000000001 7.0415599999999996 O
  atom 2.4907900000000001 3.1023900000000002 6.6797199999999997 H
  atom 2.7702399999999998 1.6424300000000001 6.7458099999999996 H
  atom 4.9093400000000003 9.3754200000000001 5.0679900000000000 O
  atom 5.5900900000000000 9.7971500000000002 5.1076400000000000 H
  atom 5.1493200000000003 9.2478700000000007 6.0060599999999997 H
  atom 8.6812900000000006 4.8625800000000003 6.8845700000000001 O
  atom 7.8985399999999997 4.3528200000000004 6.4549500000000002 H
  atom 8.6183599999999991 5.6207000000000003 6.5090800000000000 H
  atom 7.7047699999999999 6.3108700000000004 11.0594999999999999 O
  atom 8.2813400000000001 5.9642700000000000 10.3633000000000006 H
  atom 7.9650100000000004 7.2110399999999997 11.3729999999999993 H
  atom -0.0987440000000000 -1.2278000000000000 0.1528030000000000 O
  atom -0.4266390000000000 -1.3872800000000001 1.0737699999999999 H
  atom 0.7357380000000000 -1.6774899999999999 0.0543260000000000 H
  atom 6.0508600000000001 4.0416200000000000 6.5832100000000002 O
  atom 5.3196500000000002 4.8090000000000002 6.5880099999999997 H
  atom 5.6516500000000001 3.4081500000000000 7.1840000000000002 H
  atom 4.2434500000000002 7.5294200000000000 2.4987499999999998 O
  atom 4.0042000000000000 6.9566699999999999 3.1533799999999998 H
  atom 4.6717300000000002 8.2438599999999997 3.0350100000000002 H
  
  -----------------------------------------------------------------------
  Completed first pass over input file geometry.in .
  -----------------------------------------------------------------------
  

  Basic array size parameters:
  | Number of species                 :        2
  | Number of atoms                   :       96
  | Number of lattice vectors         :        3
  | Max. basis fn. angular momentum   :        2
  | Max. atomic/ionic basis occupied n:        2
  | Max. number of basis fn. types    :        2
  | Max. radial fns per species/type  :        3
  | Max. logarithmic grid size        :     1301
  | Max. radial integration grid size :       36
  | Max. angular integration grid size:      302
  | Max. angular grid division number :        8
  | Radial grid for Hartree potential :     1301
  | Number of spin channels           :        1

------------------------------------------------------------
          Reading file control.in.
------------------------------------------------------------
  XC: Using Perdew-Wang parametrisation of Ceperley-Alder LDA.
  Spin treatment: No spin polarisation.
  Non-relativistic treatment of kinetic energy.
  Charge =   0.000000E+00: Neutral system requested explicitly.
  DFPT calculation will begin after the DFT/HF calculation.
  Convergence accuracy of self-consistent charge density:  0.1000E-05
  Found k-point grid:         1         1         1
  Threshold value for wave function integration:  0.1000E-07
 
  Reading configuration options for species H                   .
  | Found nuclear charge :   1.0000
  | Found atomic mass :    1.00794000000000      amu
  | Found l_max for Hartree potential  :   4
  | Found cutoff potl. onset [A], width [A], scale factor :    3.50000    1.50000    1.00000
  | Threshold for basis-dependent cutoff potential is   0.100000E-03
  | Found data for basic radial integration grid :    24 points, outermost radius =    5.000 A
  | Found multiplier for basic radial grid :   1
  | Found angular grid specification: user-specified.
  | Specified grid contains     5 separate shells.
  | Check grid settings after all constraints further below.
  | Found free-atom valence shell :  1 s   1.000
  | No ionic wave fns used. Skipping ion_occ.
  | Found hydrogenic basis function :  2 s   2.100
  | Found hydrogenic basis function :  2 p   3.500
  Species H                   : Missing cutoff potential type.
  Defaulting to exp(1/x)/(1-x)^2 type cutoff potential.
  Species H : No 'logarithmic' tag. Using default grid for free atom:
  | Default logarithmic grid data [bohr] : 0.1000E-03 0.1000E+03 0.1012E+01
  Species H : On-site basis accuracy parameter (for Gram-Schmidt orthonormalisation) not specified.
  Using default value basis_acc =  0.1000000E-03.
  Species H                   : Using default innermost maximum threshold i_radial=  2 for radial functions.
  Species H                   : Default cutoff onset for free atom density etc. : 0.35000000E+01 AA.
  Species H                   : Basic radial grid will be enhanced according to radial_multiplier =   1, to contain    24 grid points.
 
  Reading configuration options for species O                   .
  | Found nuclear charge :   8.0000
  | Found atomic mass :    15.9994000000000      amu
  | Found l_max for Hartree potential  :   4
  | Found cutoff potl. onset [A], width [A], scale factor :    3.50000    1.50000    1.00000
  | Threshold for basis-dependent cutoff potential is   0.100000E-03
  | Found data for basic radial integration grid :    36 points, outermost radius =    5.000 A
  | Found multiplier for basic radial grid :   1
  | Found angular grid specification: user-specified.
  | Specified grid contains     5 separate shells.
  | Check grid settings after all constraints further below.
  | Found free-atom valence shell :  2 s   2.000
  | Found free-atom valence shell :  2 p   4.000
  | No ionic wave fns used. Skipping ion_occ.
  | No ionic wave fns used. Skipping ion_occ.
  | Found hydrogenic basis function :  2 p   1.800
  | Found hydrogenic basis function :  3 d   7.600
  | Found hydrogenic basis function :  3 s   6.400
  Species O                   : Missing cutoff potential type.
  Defaulting to exp(1/x)/(1-x)^2 type cutoff potential.
  Species O : No 'logarithmic' tag. Using default grid for free atom:
  | Default logarithmic grid data [bohr] : 0.1000E-03 0.1000E+03 0.1012E+01
  Species O : On-site basis accuracy parameter (for Gram-Schmidt orthonormalisation) not specified.
  Using default value basis_acc =  0.1000000E-03.
  Species O                   : Using default innermost maximum threshold i_radial=  2 for radial functions.
  Species O                   : Default cutoff onset for free atom density etc. : 0.35000000E+01 AA.
  Species O                   : Basic radial grid will be enhanced according to radial_multiplier =   1, to contain    36 grid points.
 
  Finished reading input file 'control.in'.
 
------------------------------------------------------------


------------------------------------------------------------
          Reading geometry description geometry.in.
------------------------------------------------------------
  | The smallest distance between any two atoms is         0.80177857 AA.
  | The first atom of this pair is atom number                     80 .
  | The second atom of this pair is atom number                    79 .
  | Wigner-Seitz cell of the first atom image           1     0     0 .
  | (The Wigner-Seitz cell of the second atom is 0 0 0  by definition.)

  Symmetry information by spglib:
  | Precision set to  0.1E-04
  | Number of Operations  : 1
  | Space group           : 1
  | International         : P1
  | Schoenflies           : C1^1
  Input structure read successfully.
  The structure contains       96 atoms,  and a total of        320.000 electrons.

  Input geometry:
  | Unit cell:
  |        9.87269000        0.00000000        0.00000000
  |        0.00000000        9.87269000        0.00000000
  |        0.00000000        0.00000000        9.87269000
  | Atomic structure:
  |       Atom                x [A]            y [A]            z [A]
  |    1: Species O             3.88518000       14.12050000        0.17233800
  |    2: Species H             4.58123000       13.63530000        0.22229000
  |    3: Species H             3.87502000       14.57160000       -0.52806900
  |    4: Species O             0.69093000       10.13940000        3.35783000
  |    5: Species H             0.38636600       10.86320000        3.62858000
  |    6: Species H            -0.12127100        9.55355000        3.09539000
  |    7: Species O            -7.18610000       -2.18054000        5.73269000
  |    8: Species H            -6.29983000       -1.71994000        5.65617000
  |    9: Species H            -7.56877000       -1.37186000        5.99412000
  |   10: Species O             5.04523000        4.65751000        4.01407000
  |   11: Species H             5.56007000        4.59812000        4.83903000
  |   12: Species H             4.65277000        3.68785000        3.89352000
  |   13: Species O           -10.46050000        2.70193000        4.49549000
  |   14: Species H            -9.61046000        3.20757000        4.18239000
  |   15: Species H           -11.10750000        3.08054000        3.75434000
  |   16: Species O            -7.38978000        1.71865000       19.49240000
  |   17: Species H            -7.73565000        2.55457000       19.89070000
  |   18: Species H            -7.72319000        1.98413000       18.62970000
  |   19: Species O             6.80819000        2.03218000        1.40336000
  |   20: Species H             7.63177000        1.77024000        1.06890000
  |   21: Species H             6.86300000        2.85269000        1.77764000
  |   22: Species O            -3.75707000       -0.37014300       -2.29871000
  |   23: Species H            -4.09941000        0.44347100       -1.89114000
  |   24: Species H            -4.15247000       -1.01238000       -1.72081000
  |   25: Species O            15.10690000        1.84236000       -0.81907600
  |   26: Species H            15.62690000        1.81557000       -0.01777000
  |   27: Species H            14.14170000        1.57902000       -0.66263200
  |   28: Species O            11.31850000       -5.96226000       10.73980000
  |   29: Species H            12.28840000       -5.70226000       10.40140000
  |   30: Species H            10.69690000       -5.51699000       10.14250000
  |   31: Species O             4.50112000        6.09361000       -2.37651000
  |   32: Species H             3.66018000        6.40028000       -2.83859000
  |   33: Species H             4.74953000        6.61656000       -1.57693000
  |   34: Species O             3.86366000        2.15784000        3.94515000
  |   35: Species H             3.68967000        1.54260000        3.32040000
  |   36: Species H             4.26880000        1.80265000        4.70245000
  |   37: Species O             1.29704000        6.79636000       -6.61048000
  |   38: Species H             1.68682000        7.20609000       -5.96581000
  |   39: Species H             1.56573000        5.90031000       -6.40294000
  |   40: Species O            -1.23428000       -1.33968000        2.57599000
  |   41: Species H            -1.33867000       -2.12255000        3.26731000
  |   42: Species H            -2.05795000       -0.73895400        2.99823000
  |   43: Species O            -2.69691000       10.60640000        3.79600000
  |   44: Species H            -2.21552000       11.20140000        4.29213000
  |   45: Species H            -3.15974000       10.88910000        2.98619000
  |   46: Species O            -2.38348000       14.12250000       12.77300000
  |   47: Species H            -2.00869000       14.74490000       11.97080000
  |   48: Species H            -3.33637000       14.28060000       12.96640000
  |   49: Species O             5.66169000       -2.25610000        9.81424000
  |   50: Species H             6.39345000       -2.88439000        9.85354000
  |   51: Species H             5.14065000       -2.50634000       10.64640000
  |   52: Species O            -1.18226000        6.67867000       14.53920000
  |   53: Species H            -1.15915000        5.92707000       14.09220000
  |   54: Species H            -0.30786700        7.02736000       14.52890000
  |   55: Species O             8.92515000        9.01977000       -2.33103000
  |   56: Species H             9.42886000        9.20235000       -1.37877000
  |   57: Species H             8.03339000        9.11196000       -1.99655000
  |   58: Species O            -0.68505900        1.34844000        0.53581500
  |   59: Species H            -0.03385400        2.06353000        0.65406400
  |   60: Species H            -0.42114600        0.58186400       -0.06282700
  |   61: Species O            11.50680000        3.82740000        3.58669000
  |   62: Species H            11.42170000        3.65256000        2.71669000
  |   63: Species H            12.39110000        3.54102000        3.75727000
  |   64: Species O             3.05744000       10.17800000        2.07453000
  |   65: Species H             2.27501000        9.91145000        2.32215000
  |   66: Species H             2.90538000       10.65960000        1.13709000
  |   67: Species O             9.67807000        5.72146000        9.30573000
  |   68: Species H             9.88912000        6.66364000        9.35231000
  |   69: Species H             9.33696000        5.58180000        8.34408000
  |   70: Species O             1.33168000       10.05100000        5.97224000
  |   71: Species H             0.72030700        9.59223000        6.45905000
  |   72: Species H             0.94065600        9.76790000        5.13472000
  |   73: Species O             2.59206000       -1.98403000        0.29407000
  |   74: Species H             2.72611000       -1.15992000        0.60546700
  |   75: Species H             2.91334000       -2.51887000        1.19381000
  |   76: Species O             3.08659000        2.43263000        7.04156000
  |   77: Species H             2.49079000        3.10239000        6.67972000
  |   78: Species H             2.77024000        1.64243000        6.74581000
  |   79: Species O             4.90934000        9.37542000        5.06799000
  |   80: Species H             5.59009000        9.79715000        5.10764000
  |   81: Species H             5.14932000        9.24787000        6.00606000
  |   82: Species O             8.68129000        4.86258000        6.88457000
  |   83: Species H             7.89854000        4.35282000        6.45495000
  |   84: Species H             8.61836000        5.62070000        6.50908000
  |   85: Species O             7.70477000        6.31087000       11.05950000
  |   86: Species H             8.28134000        5.96427000       10.36330000
  |   87: Species H             7.96501000        7.21104000       11.37300000
  |   88: Species O            -0.09874400       -1.22780000        0.15280300
  |   89: Species H            -0.42663900       -1.38728000        1.07377000
  |   90: Species H             0.73573800       -1.67749000        0.05432600
  |   91: Species O             6.05086000        4.04162000        6.58321000
  |   92: Species H             5.31965000        4.80900000        6.58801000
  |   93: Species H             5.65165000        3.40815000        7.18400000
  |   94: Species O             4.24345000        7.52942000        2.49875000
  |   95: Species H             4.00420000        6.95667000        3.15338000
  |   96: Species H             4.67173000        8.24386000        3.03501000

  Lattice parameters for 3D lattice (in Angstroms) :     9.872690    9.872690    9.872690
  Angle(s) between unit vectors (in degrees)       :    90.000000   90.000000   90.000000


  Quantities derived from the lattice vectors (in Angstrom^-1):
  | Reciprocal lattice vector 1:  0.636421  0.000000  0.000000
  | Reciprocal lattice vector 2:  0.000000  0.636421  0.000000
  | Reciprocal lattice vector 3:  0.000000  0.000000  0.636421
  | Unit cell volume                               :   0.962291E+03  Angstrom^3

  Fractional coordinates:
                         L1                L2                L3
       atom_frac         0.39352801        1.43025862        0.01745603  O
       atom_frac         0.46403057        1.38111295        0.02251565  H
       atom_frac         0.39249890        1.47595032       -0.05348785  H
       atom_frac         0.06998397        1.02701493        0.34011298  O
       atom_frac         0.03913483        1.10032828        0.36753712  H
       atom_frac        -0.01228348        0.96767446        0.31353056  H
       atom_frac        -0.72787660       -0.22086584        0.58066140  O
       atom_frac        -0.63810674       -0.17421189        0.57291073  H
       atom_frac        -0.76663706       -0.13895504        0.60714152  H
       atom_frac         0.51102891        0.47175694        0.40658321  O
       atom_frac         0.56317680        0.46574135        0.49014301  H
       atom_frac         0.47127683        0.37354054        0.39437276  H
       atom_frac        -1.05953899        0.27367718        0.45534601  O
       atom_frac        -0.97343885        0.32489322        0.42363226  H
       atom_frac        -1.12507331        0.31202641        0.38027528  H
       atom_frac        -0.74850725        0.17408123        1.97437578  O
       atom_frac        -0.78354025        0.25875116        2.01471939  H
       atom_frac        -0.78227818        0.20097157        1.88699331  H
       atom_frac         0.68959828        0.20583853        0.14214566  O
       atom_frac         0.77301830        0.17930675        0.10826836  H
       atom_frac         0.69514995        0.28894759        0.18005630  H
       atom_frac        -0.38055181       -0.03749161       -0.23283523  O
       atom_frac        -0.41522726        0.04491896       -0.19155266  H
       atom_frac        -0.42060168       -0.10254348       -0.17430001  H
       atom_frac         1.53017060        0.18661175       -0.08296381  O
       atom_frac         1.58284115        0.18389821       -0.00179991  H
       atom_frac         1.43240596        0.15993817       -0.06711768  H
       atom_frac         1.14644540       -0.60391443        1.08782915  O
       atom_frac         1.24468610       -0.57757916        1.05355278  H
       atom_frac         1.08348383       -0.55881325        1.02732892  H
       atom_frac         0.45591627        0.61721881       -0.24071555  O
       atom_frac         0.37073786        0.64828127       -0.28751941  H
       atom_frac         0.48107760        0.67018817       -0.15972648  H
       atom_frac         0.39134825        0.21856657        0.39960234  O
       atom_frac         0.37372489        0.15624921        0.33632171  H
       atom_frac         0.43238469        0.18258955        0.47630889  H
       atom_frac         0.13137655        0.68840002       -0.66957233  O
       atom_frac         0.17085718        0.72990137       -0.60427401  H
       atom_frac         0.15859204        0.59763955       -0.64855070  H
       atom_frac        -0.12501962       -0.13569554        0.26092078  O
       atom_frac        -0.13559324       -0.21499206        0.33094425  H
       atom_frac        -0.20844876       -0.07484829        0.30368927  H
       atom_frac        -0.27316871        1.07431713        0.38449501  O
       atom_frac        -0.22440895        1.13458439        0.43474777  H
       atom_frac        -0.32004854        1.10295168        0.30246974  H
       atom_frac        -0.24142154        1.43046120        1.29377100  O
       atom_frac        -0.20345924        1.49350380        1.21251655  H
       atom_frac        -0.33793931        1.44647507        1.31336039  H
       atom_frac         0.57346984       -0.22851928        0.99407963  O
       atom_frac         0.64758946       -0.29215847        0.99806031  H
       atom_frac         0.52069395       -0.25386597        1.07836871  H
       atom_frac        -0.11975054        0.67647926        1.47266854  O
       atom_frac        -0.11740974        0.60035006        1.42739213  H
       atom_frac        -0.03118370        0.71179790        1.47162526  H
       atom_frac         0.90402413        0.91360815       -0.23610890  O
       atom_frac         0.95504467        0.93210159       -0.13965495  H
       atom_frac         0.81369819        0.92294603       -0.20222958  H
       atom_frac        -0.06938930        0.13658284        0.05427244  O
       atom_frac        -0.00342906        0.20901396        0.06624983  H
       atom_frac        -0.04265767        0.05893672       -0.00636372  H
       atom_frac         1.16551821        0.38767550        0.36329410  O
       atom_frac         1.15689847        0.36996604        0.27517222  H
       atom_frac         1.25508853        0.35866820        0.38057206  H
       atom_frac         0.30968662        1.03092470        0.21012814  O
       atom_frac         0.23043466        1.00392598        0.23520945  H
       atom_frac         0.29428454        1.07970573        0.11517530  H
       atom_frac         0.98028703        0.57952392        0.94257290  O
       atom_frac         1.00166419        0.67495688        0.94729096  H
       atom_frac         0.94573617        0.56537783        0.84516783  H
       atom_frac         0.13488522        1.01806093        0.60492530  O
       atom_frac         0.07295955        0.97159234        0.65423405  H
       atom_frac         0.09527859        0.98938587        0.52009331  H
       atom_frac         0.26254851       -0.20096144        0.02978621  O
       atom_frac         0.27612636       -0.11748774        0.06132746  H
       atom_frac         0.29509080       -0.25513513        0.12092044  H
       atom_frac         0.31263921        0.24639992        0.71323621  O
       atom_frac         0.25229092        0.31423958        0.67658561  H
       atom_frac         0.28059627        0.16636094        0.68327984  H
       atom_frac         0.49726468        0.94963176        0.51333426  O
       atom_frac         0.56621752        0.99234859        0.51735039  H
       atom_frac         0.52157213        0.93671228        0.60835092  H
       atom_frac         0.87932367        0.49252838        0.69733477  O
       atom_frac         0.80003930        0.44089503        0.65381877  H
       atom_frac         0.87294952        0.56931799        0.65930157  H
       atom_frac         0.78041243        0.63922497        1.12021141  O
       atom_frac         0.83881293        0.60411803        1.04969365  H
       atom_frac         0.80677201        0.73040276        1.15196568  H
       atom_frac        -0.01000173       -0.12436327        0.01547734  O
       atom_frac        -0.04321406       -0.14051692        0.10876164  H
       atom_frac         0.07452255       -0.16991215        0.00550265  H
       atom_frac         0.61288869        0.40937374        0.66681016  O
       atom_frac         0.53882478        0.48710129        0.66729635  H
       atom_frac         0.57245290        0.34520987        0.72766389  H
       atom_frac         0.42981700        0.76265131        0.25309718  O
       atom_frac         0.40558348        0.70463774        0.31940434  H
       atom_frac         0.47319727        0.83501660        0.30741470  H

 
  Finished reading input file 'geometry.in'.
 

 
  Consistency checks for stacksize environment parameter are next.
 
  | Maximum stacksize for task 0: unlimited
  | Maximum stacksize for task 1: unlimited
  | Maximum stacksize for task 2: unlimited
  | Maximum stacksize for task 3: unlimited
  | Maximum stacksize for task 4: unlimited
  | Maximum stacksize for task 5: unlimited
  | Maximum stacksize for task 6: unlimited
  | Maximum stacksize for task 7: unlimited
  | Maximum stacksize for task 8: unlimited
  | Maximum stacksize for task 9: unlimited
  | Maximum stacksize for task 10: unlimited
  | Maximum stacksize for task 11: unlimited
  | Maximum stacksize for task 12: unlimited
  | Maximum stacksize for task 13: unlimited
  | Maximum stacksize for task 14: unlimited
  | Maximum stacksize for task 15: unlimited
  | Maximum stacksize for task 16: unlimited
  | Maximum stacksize for task 17: unlimited
  | Current stacksize for task 0: unlimited
  | Current stacksize for task 1: unlimited
  | Current stacksize for task 2: unlimited
  | Current stacksize for task 3: unlimited
  | Current stacksize for task 4: unlimited
  | Current stacksize for task 5: unlimited
  | Current stacksize for task 6: unlimited
  | Current stacksize for task 7: unlimited
  | Current stacksize for task 8: unlimited
  | Current stacksize for task 9: unlimited
  | Current stacksize for task 10: unlimited
  | Current stacksize for task 11: unlimited
  | Current stacksize for task 12: unlimited
  | Current stacksize for task 13: unlimited
  | Current stacksize for task 14: unlimited
  | Current stacksize for task 15: unlimited
  | Current stacksize for task 16: unlimited
  | Current stacksize for task 17: unlimited
 
  Consistency checks for the contents of control.in are next.
 
  MPI_IN_PLACE appears to work with this MPI implementation.
  | Keeping use_mpi_in_place .true. (see manual).
  Explicit treatment of the Coulomb operator is needed, but the RI method is not specified.
  Coulomb operator: Defaulting to 'LVL fast' resolution of identity - RI_type = LVL_fast
  Species H: Using default value for prodbas_acc =   1.000000E-06.
  Species H: Using default value max_l_prodbas =     6.
  Species O: Using default value for prodbas_acc =   1.000000E-06.
  Species O: Using default value max_l_prodbas =     6.
  Target number of points in a grid batch is not set.  Since GPU acceleration is enabled, defaulting to  200
  Method for grid partitioning is not set. Defaulting to parallel hash+maxmin partitioning.
  Batch size limit is not set. Defaulting to    200
  By default, will store active basis functions for each batch.
  If in need of memory, prune_basis_once .false. can be used to disable this option.
  communication_type for Hartree potential was not specified.
  Defaulting to calc_hartree .
  Defaulting to Pulay charge density mixer.
  Pulay mixer: Number of relevant iterations not set.
  Defaulting to    8 iterations.
  Pulay mixer: Number of initial linear mixing iterations not set.
  Defaulting to    0 iterations.
  Work space size for distributed Hartree potential not set.
  Defaulting to   0.200000E+03 MB.
  Mixing parameter for charge density mixing has not been set.
  Using default: charge_mix_param =     0.0500.
  The mixing parameter will be adjusted in iteration number     2 of the first full s.c.f. cycle only.
  Algorithm-dependent basis array size parameters:
  | n_max_pulay                         :        8
  Maximum number of self-consistency iterations not provided.
  Presetting  1000 iterations.
  Presetting      1001 iterations before the initial mixing cycle
  is restarted anyway using the sc_init_iter criterion / keyword.
  Presetting a factor      1.000 between actual scf density residual
  and density convergence criterion sc_accuracy_rho below which sc_init_iter
  takes no effect.
  Calculation of forces was not defined in control.in. No forces will be calculated.
  Geometry relaxation not requested: no relaxation will be performed.
  No accuracy limit for integral partition fn. given. Defaulting to  0.1000E-14.
  No occupation type (smearing scheme) given. Defaulting to Gaussian broadening, width =  0.1000E-01 eV.
  The width will be adjusted in iteration number     2 of the first full s.c.f. cycle only.
  S.C.F. convergence parameters will be adjusted in iteration number     2 of the first full s.c.f. cycle only.
  No accuracy for occupation numbers given. Defaulting to  0.1000E-12.
  No threshold value for occupation numbers given. Defaulting to  0.0000E+00.
  No accuracy for fermi level given. Defaulting to  0.1000E-19.
  Maximum # of iterations to find E_F not set. Defaulting to  200.
  Preferred method for the eigenvalue solver ('KS_method') not specified in 'control.in'.
  Calling BLACS routine to test compilation state
  Since ScaLAPACK support is enabled, defaulting to ELPA (via ELSI).
  Will not use alltoall communication since running on < 1024 CPUs.
  Threshold for basis singularities not set.
  Default threshold for basis singularities:  0.1000E-04
  partition_type (choice of integration weights) for integrals was not specified.
  | Using a version of the partition function of Stratmann and coworkers ('stratmann_sparse').
  | At each grid point, the set of atoms used to build the partition table is smoothly restricted to
  | only those atoms whose free-atom density would be non-zero at that grid point.
  Partitioning for Hartree potential was not defined. Using partition_type for integrals.
  | Adjusted default value of keyword multip_moments_threshold to:       0.10000000E-11
  | This value may affect high angular momentum components of the Hartree potential in periodic systems.
  Angular momentum expansion for Kerker preconditioner not set explicitly.
  | Using default value of   0
  No explicit requirement for turning off preconditioner.
  | By default, it will be turned off when the charge convergence reaches
  | sc_accuracy_rho  =   0.100000E-05
  No special mixing parameter while Kerker preconditioner is on.
  Using default: charge_mix_param =     0.0500.
  Threshold for auxiliary basis singularities not set.
  Default threshold for auxiliary basis singularities:  0.1000E-04
  No q(lm)/r^(l+1) cutoff set for long-range Hartree potential.
  | Using default value of  0.100000E-09 .
  | Verify using the multipole_threshold keyword.
  Defaulting to new monopole extrapolation.
  Density update method: automatic selection selected.
  Using density matrix based charge density update.
  Using density matrix based charge density update.
  Using packed matrix style: index .
  Defaulting to use time-reversal symmetry for k-point grid.
  Charge integration errors on the 3D integration grid will be compensated
  by explicit normalization and distribution of residual charges.
  Use the "compensate_multipole_errors" flag to change this behaviour.
  Default to 1D ("use_logsbt") integrations for auxiliary 2-center integrals.
  Default onset of logarithmic r-grid for SBT is -38.000000000000
  Default onset of logarithmic k-grid for SBT is -25.000000000000
  Default range of logarithmic r- and k-grid for SBT is  45.000000000000
  Default number of logarithmic r- and k-grid for SBT is   4096
  Default of use_2d_corr is to use the efficient 2D distribution where possible
 
  Consistency checks for the contents of geometry.in are next.
 

  Range separation radius for Ewald summation (hartree_convergence_parameter):      2.97904031 bohr.
  Number of empty states per atom not set in control.in .
  | Since you are using a method that relies on the unoccupied spectrum
  | (MP2,GW,RPA et al.), will use the full Hamiltonian size (see below)
  | as the max. possible number of states (occupied plus empty).

  Structure-dependent array size parameters: 
  | Maximum number of distinct radial functions  :        9
  | Maximum number of basis functions            :      768
  | Number of Kohn-Sham states (occupied + empty):      768
------------------------------------------------------------

  Performing system and environment tests:
  | Environment variable OMP_NUM_THREADS correctly set to 1.
  | Checking for ScaLAPACK...
  | Testing pdtran()...
  | All pdtran() tests passed.
CUDA runtime version: 11060
CUDA driver version: 11060
  Initializing GPUs...

  Number of GPUs available to MPI task         0 :   1
  Number of GPUs available to MPI task         1 :   1
  Number of GPUs available to MPI task         2 :   1
  Number of GPUs available to MPI task         3 :   1
  Number of GPUs available to MPI task         4 :   1
  Number of GPUs available to MPI task         5 :   1
  Number of GPUs available to MPI task         6 :   1
  Number of GPUs available to MPI task         7 :   1
  Number of GPUs available to MPI task         8 :   1
  Number of GPUs available to MPI task         9 :   1
  Number of GPUs available to MPI task        10 :   1
  Number of GPUs available to MPI task        11 :   1
  Number of GPUs available to MPI task        12 :   1
  Number of GPUs available to MPI task        13 :   1
  Number of GPUs available to MPI task        14 :   1
  Number of GPUs available to MPI task        15 :   1
  Number of GPUs available to MPI task        16 :   1
  Number of GPUs available to MPI task        17 :   1

  | MPI task         0, GPU activated = T, Device Name = NVIDIA A100-SXM4-80GB
  | MPI task         1, GPU activated = T, Device Name = NVIDIA A100-SXM4-80GB
  | MPI task         2, GPU activated = T, Device Name = NVIDIA A100-SXM4-80GB
  | MPI task         3, GPU activated = T, Device Name = NVIDIA A100-SXM4-80GB
  | MPI task         4, GPU activated = T, Device Name = NVIDIA A100-SXM4-80GB
  | MPI task         5, GPU activated = T, Device Name = NVIDIA A100-SXM4-80GB
  | MPI task         6, GPU activated = T, Device Name = NVIDIA A100-SXM4-80GB
  | MPI task         7, GPU activated = T, Device Name = NVIDIA A100-SXM4-80GB
  | MPI task         8, GPU activated = T, Device Name = NVIDIA A100-SXM4-80GB
  | MPI task         9, GPU activated = T, Device Name = NVIDIA A100-SXM4-80GB
  | MPI task        10, GPU activated = T, Device Name = NVIDIA A100-SXM4-80GB
  | MPI task        11, GPU activated = T, Device Name = NVIDIA A100-SXM4-80GB
  | MPI task        12, GPU activated = T, Device Name = NVIDIA A100-SXM4-80GB
  | MPI task        13, GPU activated = T, Device Name = NVIDIA A100-SXM4-80GB
  | MPI task        14, GPU activated = T, Device Name = NVIDIA A100-SXM4-80GB
  | MPI task        15, GPU activated = T, Device Name = NVIDIA A100-SXM4-80GB
  | MPI task        16, GPU activated = T, Device Name = NVIDIA A100-SXM4-80GB
  | MPI task        17, GPU activated = T, Device Name = NVIDIA A100-SXM4-80GB

------------------------------------------------------------
          Preparing all fixed parts of the calculation.
------------------------------------------------------------
  Determining machine precision:
    2.225073858507201E-308
  Setting up grids for atomic and cluster calculations.

  Creating wave function, potential, and density for free atoms.
  Runtime choices for atomic solver:
  | atomic solver xc        : PW-LDA
  | compute density gradient: 0
  | compute kinetic density : F

  Species: H

  List of occupied orbitals and eigenvalues:
    n    l              occ      energy [Ha]    energy [eV]
    1    0           1.0000        -0.232375        -6.3233


  Species: O

  List of occupied orbitals and eigenvalues:
    n    l              occ      energy [Ha]    energy [eV]
    1    0           2.0000       -18.757744      -510.4242
    2    0           2.0000        -0.870917       -23.6989
    2    1           4.0000        -0.337950        -9.1961


  Adding cutoff potential to free-atom effective potential.
  Creating fixed part of basis set: Ionic, confined, hydrogenic.
 
  H                    hydrogenic:
 
  List of hydrogenic basis orbitals: 
    n    l      effective z      eigenvalue [eV]  inner max. [A]     outer max. [A]     outer radius [A]   
    2    0         2.100000       -14.9728           0.193243           1.317208           4.696947
    2    1         3.500000       -41.6669           0.602369           0.602369           3.862494
 
 
  O                    hydrogenic:
 
  List of hydrogenic basis orbitals: 
    n    l      effective z      eigenvalue [eV]  inner max. [A]     outer max. [A]     outer radius [A]   
    2    1         1.800000       -10.9749           1.164242           1.164242           4.691341
    3    2         7.600000       -87.3180           0.624125           0.624125           3.413946
    3    0         6.400000       -61.9207           0.061167           1.081902           4.151495
 
  Creating atomic-like basis functions for current effective potential.

  Species H                   :

  List of atomic basis orbitals and eigenvalues:
    n    l      energy [Ha]    energy [eV]    outer radius [A]
    1    0        -0.232375        -6.3233       4.696947


  Species O                   :

  List of atomic basis orbitals and eigenvalues:
    n    l      energy [Ha]    energy [eV]    outer radius [A]
    1    0       -18.757744      -510.4242       1.830144
    2    0        -0.870917       -23.6989       4.578029
    2    1        -0.337950        -9.1961       4.634338

  Assembling full basis from fixed parts.
  | Species H :   atomic orbital   1 s accepted.
  | Species H :    hydro orbital   2 s accepted.
  | Species H :    hydro orbital   2 p accepted.
  | Species O :   atomic orbital   1 s accepted.
  | Species O :    hydro orbital   3 s accepted.
  | Species O :   atomic orbital   2 s accepted.
  | Species O :   atomic orbital   2 p accepted.
  | Species O :    hydro orbital   2 p accepted.
  | Species O :    hydro orbital   3 d accepted.
 
  Basis size parameters after reduction:
  | Total number of radial functions:        9
  | Total number of basis functions :      768
 
  Per-task memory consumption for arrays in subroutine allocate_ext:
  |           2.268304MB.
  Testing on-site integration grid accuracy.
  |  Species  Function  <phi|h_atom|phi> (log., in eV)  <phi|h_atom|phi> (rad., in eV)
           1        1                 -6.3245358373                 -6.3232436907
           1        2                 14.1326137532                 14.1384481100
           1        3                 25.3627025200                 25.3628451197
           2        4               -510.4241781764               -510.4240769407
           2        5                 14.9072942213                 14.9072945271
           2        6                -21.2004736474                -21.2005650551
           2        7                 -9.1962086505                 -9.1963509834
           2        8                  8.1896755006                  8.1702200081
           2        9                 45.7920584937                 45.7920228520

  Preparing densities etc. for the partition functions (integrals / Hartree potential).

  Preparations completed.
  max(cpu_time)          :      0.070 s.
  Wall clock time (cpu1) :      0.067 s.
------------------------------------------------------------

  Initializing index lists of integration centers etc. from given atomic structure:
  Mapping all atomic coordinates to central unit cell.

  Initializing the k-points
  Using symmetry for reducing the k-points
  | k-points reduced from:        1 to        1
  | Number of k-points                             :         1
  | Consuming          0 KiB for k_phase_exx.
  The eigenvectors in the calculations are REAL.
  | Number of basis functions in the Hamiltonian integrals :      4355
  | Number of basis functions in a single unit cell        :       768
  | Number of centers in hartree potential         :      2563
  | Number of centers in hartree multipole         :      1885
  | Number of centers in electron density summation:      1479
  | Number of centers in basis integrals           :      1558
  | Number of centers in integrals                 :       696
  | Number of centers in hamiltonian               :      1480
  | Consuming          0 KiB for k_phase.
  | Number of super-cells (origin) [n_cells]                     :         125
  | Number of super-cells (after PM_index) [n_cells]             :          28
  | Number of super-cells in hamiltonian [n_cells_in_hamiltonian]:          28
  | Size of matrix packed + index [n_hamiltonian_matrix_size] :      787075
  | Size of matrix packed + index (no_symmetry):     1573381

------------------------------------------------------------
          Begin self-consistency loop: Initialization.

          Date     :  20230221, Time     :  151710.441
------------------------------------------------------------
  | Estimated reciprocal-space cutoff momentum G_max:         3.17354676 bohr^-1 .
  | Reciprocal lattice points for long-range Hartree potential:    3430
  Using simple linear distribution as default method for k-point parallelism.
  * Using 18 tasks for Scalapack Eigenvalue solver.
  Detailed listing of tasks and assigned k-points:
   Task     0 k-point     1 on adag038
   Task     1 k-point     1 on adag038
   Task     2 k-point     1 on adag038
   Task     3 k-point     1 on adag038
   Task     4 k-point     1 on adag038
   Task     5 k-point     1 on adag038
   Task     6 k-point     1 on adag038
   Task     7 k-point     1 on adag038
   Task     8 k-point     1 on adag038
   Task     9 k-point     1 on adag038
   Task    10 k-point     1 on adag038
   Task    11 k-point     1 on adag038
   Task    12 k-point     1 on adag038
   Task    13 k-point     1 on adag038
   Task    14 k-point     1 on adag038
   Task    15 k-point     1 on adag038
   Task    16 k-point     1 on adag038
   Task    17 k-point     1 on adag038
  K-point:     1 Tasks:    18 split into      6 X      3 BLACS grid
  Calculating block size based on n_basis =          768  max_nprow =            6  max_npcol =            3
  ScaLAPACK block size set to:           16
  Allocating        0.250 MB for ovlp
  Allocating        0.250 MB for ham
  Allocating        0.250 MB for eigenvec
  Required Scalapack workspace - INTEGER:            1  REAL:             1
  Partitioning the integration grid into batches with parallel hashing+maxmin method.
  | Number of batches:     3968
  | Maximal batch size:     192
  | Minimal batch size:     100
  | Average batch size:     128.419
  | Standard deviation of batch sizes:      23.640

  Integration load balanced across    18 MPI tasks.
  Work distribution over tasks is as follows:
  Task     0 has      28318 integration points.
  Task     1 has      28251 integration points.
  Task     2 has      28341 integration points.
  Task     3 has      28368 integration points.
  Task     4 has      28312 integration points.
  Task     5 has      28243 integration points.
  Task     6 has      28236 integration points.
  Task     7 has      28317 integration points.
  Task     8 has      28253 integration points.
  Task     9 has      28328 integration points.
  Task    10 has      28354 integration points.
  Task    11 has      28354 integration points.
  Task    12 has      28324 integration points.
  Task    13 has      28245 integration points.
  Task    14 has      28336 integration points.
  Task    15 has      28313 integration points.
  Task    16 has      28341 integration points.
  Task    17 has      28334 integration points.
  Initializing partition tables, free-atom densities, potentials, etc. across the integration grid (initialize_grid_storage).
  | initialize_grid_storage: Actual outermost partition radius vs. multipole_radius_free
  | (-- VB: in principle, multipole_radius_free should be larger, hence this output)
  | Species        1: Confinement radius =              4.999999999999999 AA, multipole_radius_free =              5.054417573612229 AA.
  | Species        1: outer_partition_radius set to              5.054417573612229 AA .
  | Species        2: Confinement radius =              4.999999999999999 AA, multipole_radius_free =              5.048384829883283 AA.
  | Species        2: outer_partition_radius set to              5.048384829883283 AA .
  | The sparse table of interatomic distances needs       5152.34 kbyte instead of     19418.91 kbyte of memory.
  | Net number of integration points:   509568
  | of which are non-zero points    :   406049
  | Numerical average free-atom electrostatic potential    :     -5.41551172 eV
  Renormalizing the initial density to the exact electron count on the 3D integration grid.
  | Initial density: Formal number of electrons (from input files) :     320.0000000000
  | Integrated number of electrons on 3D grid     :     319.9988613858
  | Charge integration error                      :      -0.0011386142
  | Normalization factor for density and gradient :       1.0000035582
  Renormalizing the free-atom superposition density to the exact electron count on the 3D integration grid.
  | Formal number of electrons (from input files) :     320.0000000000
  | Integrated number of electrons on 3D grid     :     319.9988613858
  | Charge integration error                      :      -0.0011386142
  | Normalization factor for density and gradient :       1.0000035582
  Obtaining max. number of non-zero basis functions in each batch (get_n_compute_maxes).
  | Maximal number of non-zero basis functions:      419 in task     0
  | Maximal number of non-zero basis functions:      414 in task     1
  | Maximal number of non-zero basis functions:      428 in task     2
  | Maximal number of non-zero basis functions:      419 in task     3
  | Maximal number of non-zero basis functions:      410 in task     4
  | Maximal number of non-zero basis functions:      432 in task     5
  | Maximal number of non-zero basis functions:      426 in task     6
  | Maximal number of non-zero basis functions:      413 in task     7
  | Maximal number of non-zero basis functions:      421 in task     8
  | Maximal number of non-zero basis functions:      409 in task     9
  | Maximal number of non-zero basis functions:      433 in task    10
  | Maximal number of non-zero basis functions:      411 in task    11
  | Maximal number of non-zero basis functions:      408 in task    12
  | Maximal number of non-zero basis functions:      425 in task    13
  | Maximal number of non-zero basis functions:      433 in task    14
  | Maximal number of non-zero basis functions:      432 in task    15
  | Maximal number of non-zero basis functions:      420 in task    16
  | Maximal number of non-zero basis functions:      419 in task    17
  Integrating Hamiltonian matrix: batch-based integration.
  GPU acceleration will be used when integrating the Hamiltonian matrix.
  Reporting GPU memory usage by myid 0.  Note that it is likely not the only MPI task binding to its GPU!
  Allocating        1.404 MB on GPU for hamiltonian_shell
  Allocating        0.644 MB on GPU for wave
  Allocating        0.002 MB on GPU for partition
  Allocating        0.644 MB on GPU for h_times_psi
  Time summed over all CPUs for integration: real work        9.509 s, elapsed       10.745 s
  Deallocating memory used on GPU for Hamiltonian integration.
  Integrating overlap matrix.
  Time summed over all CPUs for integration: real work        8.525 s, elapsed        9.378 s
  Deallocating overlap matrix.

  Updating Kohn-Sham eigenvalues and eigenvectors using ELSI and the ELPA eigensolver.
  Singularity check in k-point 1 (analysis for other k-points may follow below):
  Overlap matrix is not singular
  | Lowest and highest eigenvalues :  0.2124E-02,  0.7491E+01
  Finished singularity check of overlap matrix
  | Time :     0.330 s
  Starting ELPA eigensolver (GPU)
  Finished Cholesky decomposition
  | Time :     0.006 s
  Finished transformation to standard eigenproblem
  | Time :     0.029 s
  Finished solving standard eigenproblem
  | Time :     0.436 s
  Finished back-transformation of eigenvectors
  | Time :     0.014 s

  Obtaining occupation numbers and electronic chemical potential using ELSI.
  | Note that, for insulating systems, the printed 'chemical potential' value is not uniquely defined.
  | It can be anywhere in the energy gap, as long as it correctly separates occupied and unoccupied states.
  | In systems with a gap, the physically relevant chemical potential is the VBM or HOMO.

  | Chemical potential (Fermi level):    -4.93062175 eV
  Writing Kohn-Sham eigenvalues.

  State    Occupation    Eigenvalue [Ha]    Eigenvalue [eV]
      1       2.00000         -18.947119         -515.57734
      2       2.00000         -18.920463         -514.85199
      3       2.00000         -18.903892         -514.40106
      4       2.00000         -18.902730         -514.36946
      5       2.00000         -18.902452         -514.36188
      6       2.00000         -18.900925         -514.32033
      7       2.00000         -18.900752         -514.31564
      8       2.00000         -18.900523         -514.30939
      9       2.00000         -18.894524         -514.14615
     10       2.00000         -18.888778         -513.98979
     11       2.00000         -18.888303         -513.97689
     12       2.00000         -18.885966         -513.91329
     13       2.00000         -18.885672         -513.90528
     14       2.00000         -18.884266         -513.86701
     15       2.00000         -18.877767         -513.69018
     16       2.00000         -18.877547         -513.68420
     17       2.00000         -18.874478         -513.60068
     18       2.00000         -18.874058         -513.58924
     19       2.00000         -18.872906         -513.55790
     20       2.00000         -18.870538         -513.49348
     21       2.00000         -18.867963         -513.42340
     22       2.00000         -18.865874         -513.36656
     23       2.00000         -18.864853         -513.33877
     24       2.00000         -18.864812         -513.33765
     25       2.00000         -18.862619         -513.27798
     26       2.00000         -18.861261         -513.24101
     27       2.00000         -18.860399         -513.21757
     28       2.00000         -18.857721         -513.14469
     29       2.00000         -18.853454         -513.02857
     30       2.00000         -18.852844         -513.01198
     31       2.00000         -18.846974         -512.85226
     32       2.00000         -18.844353         -512.78094
     33       2.00000          -1.210022          -32.92637
     34       2.00000          -1.207790          -32.86563
     35       2.00000          -1.160138          -31.56896
     36       2.00000          -1.154444          -31.41403
     37       2.00000          -1.153176          -31.37953
     38       2.00000          -1.151426          -31.33190
     39       2.00000          -1.146891          -31.20848
     40       2.00000          -1.143947          -31.12838
     41       2.00000          -1.141176          -31.05297
     42       2.00000          -1.139443          -31.00582
     43       2.00000          -1.129741          -30.74183
     44       2.00000          -1.127598          -30.68349
     45       2.00000          -1.123495          -30.57186
     46       2.00000          -1.115645          -30.35825
     47       2.00000          -1.115449          -30.35290
     48       2.00000          -1.114584          -30.32936
     49       2.00000          -1.114121          -30.31678
     50       2.00000          -1.113711          -30.30561
     51       2.00000          -1.105474          -30.08147
     52       2.00000          -1.101712          -29.97912
     53       2.00000          -1.090878          -29.68431
     54       2.00000          -1.089932          -29.65856
     55       2.00000          -1.088418          -29.61736
     56       2.00000          -1.086170          -29.55618
     57       2.00000          -1.082173          -29.44742
     58       2.00000          -1.079632          -29.37827
     59       2.00000          -1.078310          -29.34231
     60       2.00000          -1.074088          -29.22743
     61       2.00000          -1.072276          -29.17812
     62       2.00000          -1.063399          -28.93655
     63       2.00000          -1.057721          -28.78206
     64       2.00000          -1.054356          -28.69049
     65       2.00000          -0.763452          -20.77460
     66       2.00000          -0.706277          -19.21878
     67       2.00000          -0.701760          -19.09586
     68       2.00000          -0.694809          -18.90671
     69       2.00000          -0.692915          -18.85518
     70       2.00000          -0.686029          -18.66779
     71       2.00000          -0.683503          -18.59908
     72       2.00000          -0.675267          -18.37495
     73       2.00000          -0.671361          -18.26865
     74       2.00000          -0.669025          -18.20511
     75       2.00000          -0.665209          -18.10125
     76       2.00000          -0.664120          -18.07163
     77       2.00000          -0.662427          -18.02554
     78       2.00000          -0.661778          -18.00789
     79       2.00000          -0.660564          -17.97485
     80       2.00000          -0.655148          -17.82750
     81       2.00000          -0.654390          -17.80685
     82       2.00000          -0.653758          -17.78965
     83       2.00000          -0.648590          -17.64903
     84       2.00000          -0.646669          -17.59677
     85       2.00000          -0.642626          -17.48675
     86       2.00000          -0.635703          -17.29837
     87       2.00000          -0.634602          -17.26841
     88       2.00000          -0.631093          -17.17291
     89       2.00000          -0.626557          -17.04949
     90       2.00000          -0.619089          -16.84626
     91       2.00000          -0.618281          -16.82429
     92       2.00000          -0.616632          -16.77941
     93       2.00000          -0.610917          -16.62390
     94       2.00000          -0.607533          -16.53182
     95       2.00000          -0.606362          -16.49994
     96       2.00000          -0.599670          -16.31786
     97       2.00000          -0.590292          -16.06266
     98       2.00000          -0.579203          -15.76092
     99       2.00000          -0.571324          -15.54652
    100       2.00000          -0.567193          -15.43412
    101       2.00000          -0.562893          -15.31709
    102       2.00000          -0.562093          -15.29534
    103       2.00000          -0.560279          -15.24597
    104       2.00000          -0.556262          -15.13666
    105       2.00000          -0.554959          -15.10121
    106       2.00000          -0.553917          -15.07286
    107       2.00000          -0.551597          -15.00971
    108       2.00000          -0.548373          -14.92200
    109       2.00000          -0.545812          -14.85231
    110       2.00000          -0.544085          -14.80532
    111       2.00000          -0.541520          -14.73551
    112       2.00000          -0.539062          -14.66863
    113       2.00000          -0.536061          -14.58696
    114       2.00000          -0.535032          -14.55897
    115       2.00000          -0.531024          -14.44989
    116       2.00000          -0.527663          -14.35843
    117       2.00000          -0.524171          -14.26342
    118       2.00000          -0.522573          -14.21993
    119       2.00000          -0.517363          -14.07816
    120       2.00000          -0.516885          -14.06516
    121       2.00000          -0.514023          -13.98728
    122       2.00000          -0.512839          -13.95505
    123       2.00000          -0.510475          -13.89074
    124       2.00000          -0.507872          -13.81991
    125       2.00000          -0.504645          -13.73209
    126       2.00000          -0.499944          -13.60416
    127       2.00000          -0.496432          -13.50860
    128       2.00000          -0.494836          -13.46516
    129       2.00000          -0.490286          -13.34135
    130       2.00000          -0.488248          -13.28592
    131       2.00000          -0.484102          -13.17309
    132       2.00000          -0.482758          -13.13652
    133       2.00000          -0.480879          -13.08539
    134       2.00000          -0.478700          -13.02609
    135       2.00000          -0.478254          -13.01397
    136       2.00000          -0.475565          -12.94077
    137       2.00000          -0.471629          -12.83368
    138       2.00000          -0.470440          -12.80133
    139       2.00000          -0.470002          -12.78941
    140       2.00000          -0.468361          -12.74475
    141       2.00000          -0.467262          -12.71484
    142       2.00000          -0.466490          -12.69385
    143       2.00000          -0.464711          -12.64542
    144       2.00000          -0.461069          -12.54633
    145       2.00000          -0.460146          -12.52120
    146       2.00000          -0.458556          -12.47793
    147       2.00000          -0.457528          -12.44998
    148       2.00000          -0.454319          -12.36266
    149       2.00000          -0.453316          -12.33535
    150       2.00000          -0.452706          -12.31876
    151       2.00000          -0.450964          -12.27135
    152       2.00000          -0.450103          -12.24793
    153       2.00000          -0.449381          -12.22827
    154       2.00000          -0.447102          -12.16628
    155       2.00000          -0.446080          -12.13847
    156       2.00000          -0.445808          -12.13105
    157       2.00000          -0.443629          -12.07177
    158       2.00000          -0.442405          -12.03846
    159       2.00000          -0.435027          -11.83770
    160       2.00000          -0.432571          -11.77085
    161       0.00000          -0.170212           -4.63169
    162       0.00000          -0.112758           -3.06829
    163       0.00000          -0.107432           -2.92338
    164       0.00000          -0.106449           -2.89663
    165       0.00000          -0.101202           -2.75386
    166       0.00000          -0.097642           -2.65698
    167       0.00000          -0.096063           -2.61401
    168       0.00000          -0.064958           -1.76759
    169       0.00000          -0.062672           -1.70540
    170       0.00000          -0.059235           -1.61186
    171       0.00000          -0.055964           -1.52286
    172       0.00000          -0.051543           -1.40255
    173       0.00000          -0.048477           -1.31912
    174       0.00000          -0.046103           -1.25452
    175       0.00000          -0.043349           -1.17959
    176       0.00000          -0.040772           -1.10945
    177       0.00000          -0.035941           -0.97801
    178       0.00000          -0.030822           -0.83871
    179       0.00000          -0.025470           -0.69308
    180       0.00000          -0.009191           -0.25009
    181       0.00000          -0.006390           -0.17388
    182       0.00000          -0.004272           -0.11626
    183       0.00000           0.007035            0.19144
    184       0.00000           0.010370            0.28219
    185       0.00000           0.013421            0.36520
    186       0.00000           0.024703            0.67219
    187       0.00000           0.028158            0.76623
    188       0.00000           0.031009            0.84381
    189       0.00000           0.031783            0.86486
    190       0.00000           0.034052            0.92661
    191       0.00000           0.040154            1.09264
    192       0.00000           0.041986            1.14250
    193       0.00000           0.047117            1.28213
    194       0.00000           0.049541            1.34807
    195       0.00000           0.052846            1.43801
    196       0.00000           0.055821            1.51896
    197       0.00000           0.057425            1.56262
    198       0.00000           0.062076            1.68916
    199       0.00000           0.064957            1.76757
    200       0.00000           0.070227            1.91097
    201       0.00000           0.072735            1.97922
    202       0.00000           0.074581            2.02947
    203       0.00000           0.075842            2.06378
    204       0.00000           0.078788            2.14393
    205       0.00000           0.080581            2.19271
    206       0.00000           0.083783            2.27985
    207       0.00000           0.087203            2.37292
    208       0.00000           0.090256            2.45598
    209       0.00000           0.091000            2.47623
    210       0.00000           0.093854            2.55389
    211       0.00000           0.096275            2.61978
    212       0.00000           0.097267            2.64676
    213       0.00000           0.099340            2.70318
    214       0.00000           0.103407            2.81385
    215       0.00000           0.106340            2.89366
    216       0.00000           0.108189            2.94398
    217       0.00000           0.110915            3.01816
    218       0.00000           0.114587            3.11808
    219       0.00000           0.119405            3.24916
    220       0.00000           0.121623            3.30952
    221       0.00000           0.124792            3.39577
    222       0.00000           0.126747            3.44895
    223       0.00000           0.130807            3.55944
    224       0.00000           0.137097            3.73061
    225       0.00000           0.143648            3.90885
    226       0.00000           0.145951            3.97154
    227       0.00000           0.147770            4.02103
    228       0.00000           0.153891            4.18759
    229       0.00000           0.163862            4.45890
    230       0.00000           0.164248            4.46941
    231       0.00000           0.168695            4.59042
    232       0.00000           0.177015            4.81683
    233       0.00000           0.183642            4.99716
    234       0.00000           0.192401            5.23551
    235       0.00000           0.194448            5.29120
    236       0.00000           0.201707            5.48872
    237       0.00000           0.211859            5.76498
    238       0.00000           0.218636            5.94938
    239       0.00000           0.221790            6.03523
    240       0.00000           0.225516            6.13659
    241       0.00000           0.230288            6.26646
    242       0.00000           0.233619            6.35709
    243       0.00000           0.237153            6.45327
    244       0.00000           0.249424            6.78717
    245       0.00000           0.253117            6.88768
    246       0.00000           0.255903            6.96348
    247       0.00000           0.259924            7.07289
    248       0.00000           0.267811            7.28751
    249       0.00000           0.272185            7.40653
    250       0.00000           0.278491            7.57812
    251       0.00000           0.279473            7.60484
    252       0.00000           0.294253            8.00703
    253       0.00000           0.301629            8.20775
    254       0.00000           0.303096            8.24767
    255       0.00000           0.310180            8.44043
    256       0.00000           0.319954            8.70639
    257       0.00000           0.331998            9.03414
    258       0.00000           0.333312            9.06989
    259       0.00000           0.338842            9.22036
    260       0.00000           0.346908            9.43984
    261       0.00000           0.353640            9.62302
[...]
  |    H      0     4.527807 A      4.527807 A        1.268855E-16 a.u.
  |    H      0     4.527807 A      4.583499 A       -4.900954E-17 a.u.
  |    H      0     4.527807 A      4.583499 A        4.713786E-16 a.u.
  |    H      2     3.678162 A  2.180220E+05 A            0.556529 a.u.
  |    H      1     3.958095 A  1.721251E+08 A            0.841931 a.u.
  |    H      0     4.527807 A  3.866455E+16 A            0.581436 a.u.
  |    O      0     2.043000 A      2.043000 A       -1.436841E-16 a.u.
  |    O      3     3.498446 A      3.498446 A        3.043453E-17 a.u.
  |    O      3     3.498446 A      3.498446 A        1.541443E-16 a.u.
  |    O      0     3.905335 A      3.905335 A        2.173090E-16 a.u.
  |    O      0     3.905335 A      3.905335 A        7.213445E-17 a.u.
  |    O      0     4.101052 A      4.101052 A        2.361718E-16 a.u.
  |    O      1     4.101052 A      4.101052 A        3.235185E-17 a.u.
  |    O      0     4.359549 A      4.359549 A       -5.329475E-17 a.u.
  |    O      1     4.413171 A      4.413171 A        3.261883E-17 a.u.
  |    O      1     4.522403 A      4.522403 A        6.417997E-16 a.u.
  |    O      1     4.522403 A      4.522403 A        4.224783E-16 a.u.
  |    O      2     4.522403 A      4.522403 A       -4.387647E-16 a.u.
  |    O      0     4.522403 A      4.578029 A        2.602039E-16 a.u.
  |    O      0     4.578029 A      4.578029 A        1.226235E-16 a.u.
  |    O      1     4.578029 A      4.578029 A       -6.107316E-16 a.u.
  |    O      1     4.578029 A      4.578029 A       -2.224438E-16 a.u.
  |    O      2     4.578029 A      4.578029 A       -7.020279E-16 a.u.
  |    O      2     4.522403 A      4.578029 A        1.323470E-15 a.u.
  |    O      2     4.578029 A      4.578029 A        7.923696E-16 a.u.
  |    O      2     4.522403 A      4.578029 A       -9.951815E-16 a.u.
  |    O      0     4.578029 A      4.634338 A       -8.813582E-18 a.u.
  |    O      1     4.578029 A      4.634338 A       -3.325386E-17 a.u.
  |    O      1     4.634338 A      4.634338 A        9.588032E-16 a.u.
  |    O      2     4.578029 A      4.634338 A        1.064715E-17 a.u.
  |    O      2     4.578029 A      4.634338 A       -3.770343E-15 a.u.
  |    O      4     3.251020 A  1.511584E+03 A            1.513372 a.u.
  |    O      3     3.541477 A  1.434166E+04 A            4.293220 a.u.
  |    O      2     4.634338 A  5.584435E+05 A            9.352428 a.u.
  |    O      1     4.634338 A  2.821283E+08 A            2.261940 a.u.
  |    O      0     4.578029 A  4.264100E+16 A            0.641234 a.u.

  | Shrink_full_auxil_basis : there are       38  radial auxiliary wave functions
                            accepted and       5 rejected.
  | Shrink_full_auxil_basis : there are totally                4544 partial auxiliary wave functions.
 
  | Maximal number of product basis functions per thread :   256   256
 
  | Minimal total memory requirement for three-center overlap :      10.450 Gbs
  | Number of local auxiliary basis functions on task:      0   256
  | Number of local auxiliary basis functions on task:      1   256
  | Number of local auxiliary basis functions on task:      2   256
  | Number of local auxiliary basis functions on task:      3   256
  | Number of local auxiliary basis functions on task:      4   256
  | Number of local auxiliary basis functions on task:      5   256
  | Number of local auxiliary basis functions on task:      6   256
  | Number of local auxiliary basis functions on task:      7   256
  | Number of local auxiliary basis functions on task:      8   256
  | Number of local auxiliary basis functions on task:      9   256
  | Number of local auxiliary basis functions on task:     10   256
  | Number of local auxiliary basis functions on task:     11   256
  | Number of local auxiliary basis functions on task:     12   256
  | Number of local auxiliary basis functions on task:     13   256
  | Number of local auxiliary basis functions on task:     14   240
  | Number of local auxiliary basis functions on task:     15   240
  | Number of local auxiliary basis functions on task:     16   240
  | Number of local auxiliary basis functions on task:     17   240
  | 2D aux task distribution:      3 X      6
  | 2D block size (nb_aux_2d):     64
 
  Basis pair condensation :    295296  -->     227251
 
 --------------------------------------------
  Constructing auxiliary basis (full product) ...
 
  Product basis:
  | charge radius: extent of product basis function
  | field radius: extent of its Coulomb potential
  | Species   l  charge radius    field radius  multipol momen
  |    H      1     3.910002 A      3.910002 A       -2.487223E-16 a.u.
  |    H      1     3.958095 A      3.958095 A       -2.441841E-16 a.u.
  |    H      0     4.527807 A      4.527807 A        1.268855E-16 a.u.
  |    H      0     4.527807 A      4.583499 A       -4.900954E-17 a.u.
  |    H      0     4.527807 A      4.583499 A        4.713786E-16 a.u.
  |    H      2     3.678162 A  2.180220E+05 A            0.556529 a.u.
  |    H      1     3.958095 A  1.721251E+08 A            0.841931 a.u.
  |    H      0     4.527807 A  3.866455E+16 A            0.581436 a.u.
  |    O      0     2.043000 A      2.043000 A       -1.436841E-16 a.u.
  |    O      3     3.498446 A      3.498446 A        3.043453E-17 a.u.
  |    O      3     3.498446 A      3.498446 A        1.541443E-16 a.u.
  |    O      0     3.905335 A      3.905335 A        2.173090E-16 a.u.
  |    O      0     3.905335 A      3.905335 A        7.213445E-17 a.u.
  |    O      0     4.101052 A      4.101052 A        2.361718E-16 a.u.
  |    O      1     4.101052 A      4.101052 A        3.235185E-17 a.u.
  |    O      0     4.359549 A      4.359549 A       -5.329475E-17 a.u.
  |    O      1     4.413171 A      4.413171 A        3.261883E-17 a.u.
  |    O      1     4.522403 A      4.522403 A        6.417997E-16 a.u.
  |    O      1     4.522403 A      4.522403 A        4.224783E-16 a.u.
  |    O      2     4.522403 A      4.522403 A       -4.387647E-16 a.u.
  |    O      0     4.522403 A      4.578029 A        2.602039E-16 a.u.
  |    O      0     4.578029 A      4.578029 A        1.226235E-16 a.u.
  |    O      1     4.578029 A      4.578029 A       -6.107316E-16 a.u.
  |    O      1     4.578029 A      4.578029 A       -2.224438E-16 a.u.
  |    O      2     4.578029 A      4.578029 A       -7.020279E-16 a.u.
  |    O      2     4.522403 A      4.578029 A        1.323470E-15 a.u.
  |    O      2     4.578029 A      4.578029 A        7.923696E-16 a.u.
  |    O      2     4.522403 A      4.578029 A       -9.951815E-16 a.u.
  |    O      0     4.578029 A      4.634338 A       -8.813582E-18 a.u.
  |    O      1     4.578029 A      4.634338 A       -3.325386E-17 a.u.
  |    O      1     4.634338 A      4.634338 A        9.588032E-16 a.u.
  |    O      2     4.578029 A      4.634338 A        1.064715E-17 a.u.
  |    O      2     4.578029 A      4.634338 A       -3.770343E-15 a.u.
  |    O      4     3.251020 A  1.511584E+03 A            1.513372 a.u.
  |    O      3     3.541477 A  1.434166E+04 A            4.293220 a.u.
  |    O      2     4.634338 A  5.584435E+05 A            9.352428 a.u.
  |    O      1     4.634338 A  2.821283E+08 A            2.261940 a.u.
  |    O      0     4.578029 A  4.264100E+16 A            0.641234 a.u.

  | Shrink_full_auxil_basis : there are       38  radial auxiliary wave functions
                            accepted and       5 rejected.
  | Shrink_full_auxil_basis : there are totally                4544 partial auxiliary wave functions.
 
  | Maximal number of product basis functions per thread :   256   256
 
  | Minimal total memory requirement for three-center overlap :      10.450 Gbs
  | Number of local auxiliary basis functions on task:      0   256
  | Number of local auxiliary basis functions on task:      1   256
  | Number of local auxiliary basis functions on task:      2   256
  | Number of local auxiliary basis functions on task:      3   256
  | Number of local auxiliary basis functions on task:      4   256
  | Number of local auxiliary basis functions on task:      5   256
  | Number of local auxiliary basis functions on task:      6   256
  | Number of local auxiliary basis functions on task:      7   256
  | Number of local auxiliary basis functions on task:      8   256
  | Number of local auxiliary basis functions on task:      9   256
  | Number of local auxiliary basis functions on task:     10   256
  | Number of local auxiliary basis functions on task:     11   256
  | Number of local auxiliary basis functions on task:     12   256
  | Number of local auxiliary basis functions on task:     13   256
  | Number of local auxiliary basis functions on task:     14   240
  | Number of local auxiliary basis functions on task:     15   240
  | Number of local auxiliary basis functions on task:     16   240
  | Number of local auxiliary basis functions on task:     17   240
  | 2D aux task distribution:      3 X      6
  | 2D block size (nb_aux_2d):     64
 
  Basis pair condensation :    295296  -->     227251
dP_dE (Bohr^3) at every cycle:--->
 (336.632339007612,0.000000000000000E+000) (-4.47993288172145,0.000000000000000E+000) (7.97643207111742,0.000000000000000E+000)
 (-4.47038514191600,0.000000000000000E+000) (336.514881515679,0.000000000000000E+000) (2.36887967828903,0.000000000000000E+000)
 (7.97876099565821,0.000000000000000E+000) (2.37717535646984,0.000000000000000E+000) (349.349266999658,0.000000000000000E+000)
DFPT polarizability (Bohr^3)        xx        yy        zz        xy        xz        yz
  | Polarizability:--->                       336.632339008                  336.514881516                  349.349267000                   -4.479932882                    7.976432071                    2.368879678

DFPT for dielectric_constant:--->  # PARSE DFPT_dielectric_tensor
               1.651422258458153            -0.008669184915968             0.015435312630757
              -0.008650708942312             1.651194964714202             0.004584054385850
               0.015439819367360             0.004600107476387             1.676030975427087

                                               :  max(cpu_time)    wall_clock(cpu1)
  | Time for  dielectric calculation            :        0.000 s           0.000 s
===========================================================================

------------------------------------------------------------------------------
  Final output of selected total energy values:

  The following output summarizes some interesting total energy values
  at the end of a run (AFTER all relaxation, molecular dynamics, etc.).

  | Total energy of the DFT / Hartree-Fock s.c.f. calculation      :         -66108.397488975 eV
  | Final zero-broadening corrected energy (caution - metals only) :         -66108.397488975 eV
  | For reference only, the value of 1 Hartree used in FHI-aims is :             27.211384500 eV
  | For reference only, the overall average (free atom contribution
  | + realspace contribution) of the electrostatic potential after
  | s.c.f. convergence is                                          :             -4.972283678 eV

  Before relying on these values, please be sure to understand exactly which
  total energy value is referred to by a given number. Different objects may
  all carry the same name 'total energy'. Definitions:

  Total energy of the DFT / Hartree-Fock s.c.f. calculation:
  | Note that this energy does not include ANY quantities calculated after the
  | s.c.f. cycle, in particular not ANY RPA, MP2, etc. many-body perturbation terms.

  Final zero-broadening corrected energy:
  | For metallic systems only, a broadening of the occupation numbers at the Fermi
  | level can be extrapolated back to zero broadening by an electron-gas inspired
  | formula. For all systems that are not real metals, this value can be
  | meaningless and should be avoided.

------------------------------------------------------------------------------
  Methods described in the following list of references were used in this FHI-aims run.
  If you publish the results, please make sure to cite these reference if they apply.
  FHI-aims is an academic code, and for our developers (often, Ph.D. students
  and postdocs), scientific credit in the community is essential.
  Thank you for helping us!

  For any use of FHI-aims, please cite:

    Volker Blum, Ralf Gehrke, Felix Hanke, Paula Havu, Ville Havu,
    Xinguo Ren, Karsten Reuter, and Matthias Scheffler
    'Ab initio molecular simulations with numeric atom-centered orbitals'
    Computer Physics Communications 180, 2175-2196 (2009)
    http://doi.org/10.1016/j.cpc.2009.06.022


  For Hartree-Fock, hybrid functionals, or many-body perturbation theory used in your run, please cite:

    Xinguo Ren, Patrick Rinke, Volker Blum, Juergen Wieferink, Alex Tkatchenko,
    Andrea Sanfilippo, Karsten Reuter, and Matthias Scheffler,
    'Resolution-of-identity approach to Hartree-Fock, hybrid density functionals,
    RPA, MP2, and GW with numeric atom-centered orbital basis functions'
    New Journal of Physics 14, 053020 (2012).
    http://doi.org/10.1088/1367-2630/14/5/053020


  The provided symmetry information was generated with SPGlib:

    Atsushi Togo, Yusuke Seto, Dimitar Pashov
    SPGlib 1.7.3 obtained from http://spglib.sourceforge.net
    Copyright (C) 2008 Atsushi Togo


  The DFPT (perturbation by an electric field) part of the code was used.
  Here is the corresponding reference:

    Honghui Shang, Nathaniel Raimbault, Mariana Rossi,
    Christian Carbogno, Patrick Rinke and Matthias Scheffler,
    'All-Electron, Real-Space Perturbation Theory for Homogeneous
    Electric Fields: Theory, Implementation, and Application within dft'
    New Journal of Physics, 20(7):073040, 2018


  The ELSI infrastructure was used in your run to solve the Kohn-Sham electronic structure.
  Please check out http://elsi-interchange.org to learn more.
  If scalability is important for your project, please acknowledge ELSI by citing:

    V. W-z. Yu, F. Corsetti, A. Garcia, W. P. Huhn, M. Jacquelin, W. Jia,
    B. Lange, L. Lin, J. Lu, W. Mi, A. Seifitokaldani, A. Vazquez-Mayagoitia,
    C. Yang, H. Yang, and V. Blum
    'ELSI: A unified software interface for Kohn-Sham electronic structure solvers'
    Computer Physics Communications 222, 267-285 (2018).
    http://doi.org/10.1016/j.cpc.2017.09.007


  For the real-space grid partitioning and parallelization used in this calculation, please cite:

    Ville Havu, Volker Blum, Paula Havu, and Matthias Scheffler,
    'Efficient O(N) integration for all-electron electronic structure calculation'
    'using numerically tabulated basis functions'
    Journal of Computational Physics 228, 8367-8379 (2009).
    http://doi.org/10.1016/j.jcp.2009.08.008


  The high-level electronic structure method used in your calculation
  employed our efficient localized resolution of identity for the Coulomb operator.
  Some calculations, especially large-scale hybrid density functional theory,
  are only possible thanks to this development. For this feature, please cite:

    Arvid Ihrig, Juergen Wieferink, Igor Ying Zhang, Matti Ropo, Xinguo Ren,
    Patrick Rinke, Matthias Scheffler, and Volker Blum,
    'Accurate localized resolution of identity approach for linear-scaling
    hybrid density functionals and for many-body perturbation theory'
    New Journal of Physics 117, 093020 (2015).
    http://doi.org/10.1088/1367-2630/17/9/093020

  Of course, there are many other important community references, e.g., those cited in the
  above references. Our list is limited to references that describe implementations in the
  FHI-aims code. The reason is purely practical (length of this list) - please credit others as well.

------------------------------------------------------------
          Leaving FHI-aims.
          Date     :  20230221, Time     :  152548.733

          Computational steps:
          | Number of self-consistency cycles          :           45
          | Number of SCF (re)initializations          :            1
          | Number of coupled perturbed self-consistency cycles          :            0
          | Number of CPSCF (re)initializations          :            0

          Detailed time accounting                     :  max(cpu_time)    wall_clock(cpu1)
          | Total time                                  :      513.463 s         536.287 s
          | GPU initialization                          :        2.934 s          16.586 s
          | Preparation time                            :        0.070 s           0.067 s
          | Boundary condition initalization            :        1.254 s           1.254 s
          | Grid partitioning                           :        0.444 s           0.444 s
          | Preloading free-atom quantities on grid     :        2.325 s           2.326 s
          | Free-atom superposition energy              :        0.309 s           0.309 s
          | Total time for integrations                 :       12.209 s          12.817 s
          | Product basis setup: Total time             :        0.000 s           0.000 s
          | Product basis: | 2-center integrations     :(       0.000 s)  (       0.000 s)
          | Product basis: | LVL 3-center & coefficient:(       0.000 s)  (       0.000 s)
          | Total time for solution of K.-S. equations  :        3.537 s          10.726 s
          | Total time for density update               :        8.977 s          10.150 s
          | Total time for mixing & preconditioning     :        8.303 s           8.305 s
          | Total time for Hartree multipole update     :        0.109 s           0.113 s
          | Total time for Hartree multipole sum        :       36.966 s          36.974 s
          | Total time for total energy evaluation      :        0.006 s           0.008 s
          | Total time for DFPT                         :      434.883 s         435.060 s
          | Total time first_order_DM                   :        0.307 s           0.308 s
          | Total time first_order_density              :       88.843 s          88.864 s
          | Total time first_order_potential            :       50.897 s          50.920 s
          | Total time first_order_H                    :      176.111 s         176.176 s
          | Total time solving of Sternheimer equations :        0.186 s           0.184 s
          | Total time for dielectric constant          :        0.000 s           0.000 s
          | Total time momentum matrix                  :        0.000 s           0.000 s

          GPU acceleration has been used for charge density update.
          GPU acceleration has been used for real-space Hamiltonian integration.
          Due to GPU usage, wall_clock(cpu1) will give a more reliable estimate for timings.

          Partial memory accounting:
          | Residual value for overall tracked memory usage across tasks:     0.000000 MB (should be 0.000000 MB)
          | Peak values for overall tracked memory usage:
          |   Minimum:      117.848 MB (on task  0 after allocating DFPT_pulay_mixing::pulay_mix::alphas)
          |   Maximum:      117.848 MB (on task  0 after allocating DFPT_pulay_mixing::pulay_mix::alphas)
          |   Average:      117.848 MB
          | Largest tracked array allocation:
          |   Minimum:       42.034 MB (DFPT_pulay_mixing::initialize_pulay_mixing::X_in_diffs on task  0)
          |   Maximum:       42.034 MB (DFPT_pulay_mixing::initialize_pulay_mixing::X_in_diffs on task  0)
          |   Average:       42.034 MB
          Note:  These values currently only include a subset of arrays which are explicitly tracked.
          The "true" memory usage will be greater.

          Have a nice day.
------------------------------------------------------------
