------------------------------------------------------------
          Invoking FHI-aims ...

          When using FHI-aims, please cite the following reference:

            Volker Blum, Ralf Gehrke, Felix Hanke, Paula Havu,
            Ville Havu, Xinguo Ren, Karsten Reuter, and Matthias Scheffler,
            'Ab Initio Molecular Simulations with Numeric Atom-Centered Orbitals',
            Computer Physics Communications 180, 2175-2196 (2009)

          In addition, many other developments in FHI-aims are likely important for
          your particular application. A partial list of references is given at the end of
          this file. Thank you for giving credit to the authors of these developments.

          For any questions about FHI-aims, please visit our slack channel at

            https://fhi-aims.slack.com

          and our main development and support site at

            https://aims-git.rz-berlin.mpg.de .

          The latter site, in particular, has a wiki to collect information, as well
          as an issue tracker to log discussions, suggest improvements, and report issues
          or bugs. https://aims-git.rz-berlin.mpg.de is also the main development site
          of the project and all new and updated code versions can be obtained there.
          Please send an email to aims-coordinators@fhi-berlin.mpg.de and we will add
          you to these sites. They are for you and everyone is welcome there.

------------------------------------------------------------



  Date     :  20230221, Time     :  151947.718
  Time zero on CPU 1             :   0.404292000000000E+00  s.
  Internal wall clock time zero  :           446224787.718  s.

  FHI-aims created a unique identifier for this run for later identification
  aims_uuid : 58A15269-C1F7-4C0D-A940-4B28EE22ABEF

  Build configuration of the current instance of FHI-aims
  -------------------------------------------------------
  FHI-aims version      : 221103
  Commit number         : 42523251a
  CMake host system     : Linux-5.3.18-150300.59.68-default
  CMake version         : 3.17.0
  Fortran compiler      : /mpcdf/soft/SLE_15/packages/x86_64/intel_oneapi/2021.3/mpi/2021.3.0/bin/mpiifort (Intel) version 20.2.3.20210609
  Fortran compiler flags: -O3 -ip -fp-model precise
  C compiler            : /mpcdf/soft/SLE_15/packages/x86_64/intel/2021.3.0/bin/icc (Intel) version 20.2.3.20210609
  C compiler flags      : -O3 -ip -fp-model precise -std=gnu99
  CUDA compiler         : /mpcdf/soft/SLE_15/packages/x86_64/cuda/11.6.2/bin/nvcc
  CUDA compiler flags   : -O3 -DAdd_ -lcublas
  HIP compiler          :
  HIP compiler flags    :
  HIP GPU arch          :
  ELPA2 kernel          : AVX512
  Using MPI
  Using ScaLAPACK
  Using LibXC
  Using CUDA
  Using i-PI
  Using RLSY
  Linking against: /mpcdf/soft/SLE_15/packages/x86_64/cuda/11.6.2/lib64/libcublas.so
                   /mpcdf/soft/SLE_15/packages/x86_64/cuda/11.6.2/lib64/libcudart.so
                   /mpcdf/soft/SLE_15/packages/x86_64/intel_oneapi/2021.3/mkl/latest/lib/intel64/libmkl_intel_lp64.so
                   /mpcdf/soft/SLE_15/packages/x86_64/intel_oneapi/2021.3/mkl/latest/lib/intel64/libmkl_sequential.so
                   /mpcdf/soft/SLE_15/packages/x86_64/intel_oneapi/2021.3/mkl/latest/lib/intel64/libmkl_core.so
                   /mpcdf/soft/SLE_15/packages/x86_64/intel_oneapi/2021.3/mkl/latest/lib/intel64/libmkl_blacs_intelmpi_lp64.so
                   /mpcdf/soft/SLE_15/packages/x86_64/intel_oneapi/2021.3/mkl/latest/lib/intel64/libmkl_scalapack_lp64.so

  Using       18 parallel tasks.
  Task        0 on host adag038 reporting.
  Task        1 on host adag038 reporting.
  Task        2 on host adag038 reporting.
  Task        3 on host adag038 reporting.
  Task        4 on host adag038 reporting.
  Task        5 on host adag038 reporting.
  Task        6 on host adag038 reporting.
  Task        7 on host adag038 reporting.
  Task        8 on host adag038 reporting.
  Task        9 on host adag038 reporting.
  Task       10 on host adag038 reporting.
  Task       11 on host adag038 reporting.
  Task       12 on host adag038 reporting.
  Task       13 on host adag038 reporting.
  Task       14 on host adag038 reporting.
  Task       15 on host adag038 reporting.
  Task       16 on host adag038 reporting.
  Task       17 on host adag038 reporting.

  Obtaining array dimensions for all initial allocations:
  
  -----------------------------------------------------------------------
  Parsing control.in (first pass over file, find array dimensions only).
  The contents of control.in will be repeated verbatim below
  unless switched off by setting 'verbatim_writeout .false.' .
  in the first line of control.in .
  -----------------------------------------------------------------------
  
  #########################################################################################
  #
  #  Volker Blum, 2017 : Test run input file control.in for simple H2O
  #
  #########################################################################################
  #
  #  Physical model
  #
    xc                 pw-lda
    spin               none
    relativistic       none
    charge             0.
  
    use_gpu
  
    DFPT dielectric
    ri_density_restart write
    ri_rho1 write
  #  ri_density_restart read 0
  #  ri_rho1 read
    ri_full_output .true.
    sc_accuracy_rho    1d-6
  #  use_calculate_fock_matrix_old .false.
  #  wave_threshold 1e-8
    k_grid 1 1 1
  #  output cube eigenstate 160
  #  output cube eigenstate 161
    wave_threshold 1e-8
    default_prodbas_acc 1e-6
    default_max_l_prodbas 6
  #
  #  Relaxation
  #
  #  relax_geometry   bfgs 1.e-2
  #
  
  ################################################################################
  
  
  ################################################################################
  #
  #  FHI-aims code project
  #  VB, Fritz-Haber Institut, 2009
  #
  #  Suggested "light" defaults for H atom (to be pasted into control.in file)
  #  Be sure to double-check any results obtained with these settings for post-processing,
  #  e.g., with the "tight" defaults and larger basis sets.
  #
  ################################################################################
    species        H
  #     global species definitions
      nucleus             1
      mass                1.00794
  #
      l_hartree           4
  #
      cut_pot             3.5  1.5  1.0
      basis_dep_cutoff    1e-4
  #
      radial_base         24 5.0
      radial_multiplier   1
      angular_grids       specified
        division   0.2421   50
        division   0.3822  110
        division   0.4799  194
        division   0.5341  302
  #      division   0.5626  434
  #      division   0.5922  590
  #      division   0.6542  770
  #      division   0.6868 1202
  #      outer_grid  770
        outer_grid  302
  ################################################################################
  #
  #  Definition of "minimal" basis
  #
  ################################################################################
  #     valence basis states
      valence      1  s   1.
  #     ion occupancy
      ion_occ      1  s   0.5
  ################################################################################
  #
  #  Suggested additional basis functions. For production calculations,
  #  uncomment them one after another (the most important basis functions are
  #  listed first).
  #
  #  Basis constructed for dimers: 0.5 A, 0.7 A, 1.0 A, 1.5 A, 2.5 A
  #
  ################################################################################
  #  "First tier" - improvements: -1014.90 meV to -62.69 meV
       hydro 2 s 2.1
       hydro 2 p 3.5
  #  "Second tier" - improvements: -12.89 meV to -1.83 meV
  #     hydro 1 s 0.85
  #     hydro 2 p 3.7
  #     hydro 2 s 1.2
  #     hydro 3 d 7
  #  "Third tier" - improvements: -0.25 meV to -0.12 meV
  #     hydro 4 f 11.2
  #     hydro 3 p 4.8
  #     hydro 4 d 9
  #     hydro 3 s 3.2
  ################################################################################
  #
  #  FHI-aims code project
  #  VB, Fritz-Haber Institut, 2009
  #
  #  Suggested "light" defaults for O atom (to be pasted into control.in file)
  #  Be sure to double-check any results obtained with these settings for post-processing,
  #  e.g., with the "tight" defaults and larger basis sets.
  #
  ################################################################################
    species        O
  #     global species definitions
      nucleus             8
      mass                15.9994
  #
      l_hartree           4
  #
      cut_pot             3.5  1.5  1.0
      basis_dep_cutoff    1e-4
  #
      radial_base         36 5.0
      radial_multiplier   1
       angular_grids specified
        division   0.2659   50
        division   0.4451  110
        division   0.6052  194
        division   0.7543  302
  #      division   0.8014  434
  #      division   0.8507  590
  #      division   0.8762  770
  #      division   0.9023  974
  #      division   1.2339 1202
  #      outer_grid 974
        outer_grid 302
  ################################################################################
  #
  #  Definition of "minimal" basis
  #
  ################################################################################
  #     valence basis states
      valence      2  s   2.
      valence      2  p   4.
  #     ion occupancy
      ion_occ      2  s   1.
      ion_occ      2  p   3.
  ################################################################################
  #
  #  Suggested additional basis functions. For production calculations,
  #  uncomment them one after another (the most important basis functions are
  #  listed first).
  #
  #  Constructed for dimers: 1.0 A, 1.208 A, 1.5 A, 2.0 A, 3.0 A
  #
  ################################################################################
  #  "First tier" - improvements: -699.05 meV to -159.38 meV
       hydro 2 p 1.8
       hydro 3 d 7.6
       hydro 3 s 6.4
  #  "Second tier" - improvements: -49.91 meV to -5.39 meV
  #     hydro 4 f 11.6
  #     hydro 3 p 6.2
  #     hydro 3 d 5.6
  #     hydro 5 g 17.6
  #     hydro 1 s 0.75
  #  "Third tier" - improvements: -2.83 meV to -0.50 meV
  #     ionic 2 p auto
  #     hydro 4 f 10.8
  #     hydro 4 d 4.7
  #     hydro 2 s 6.8
  #  "Fourth tier" - improvements: -0.40 meV to -0.12 meV
  #     hydro 3 p 5
  #     hydro 3 s 3.3
  #     hydro 5 g 15.6
  #     hydro 4 f 17.6
  #     hydro 4 d 14
  # Further basis functions - -0.08 meV and below
  #     hydro 3 s 2.1
  #     hydro 4 d 11.6
  #     hydro 3 p 16
  #     hydro 2 s 17.2
  
  -----------------------------------------------------------------------
  Completed first pass over input file control.in .
  -----------------------------------------------------------------------
  
  
  -----------------------------------------------------------------------
  Parsing geometry.in (first pass over file, find array dimensions only).
  The contents of geometry.in will be repeated verbatim below
  unless switched off by setting 'verbatim_writeout .false.' .
  in the first line of geometry.in .
  -----------------------------------------------------------------------
  
  #=======================================================
  # FHI-aims file: /ada/ptmp/mpsd/alewis/bulk_water/qmdata/data/geoms/289.in
  # Created using the Atomic Simulation Environment (ASE)
  # Tue Feb 21 11:23:37 2023
  #=======================================================
  lattice_vector 9.9590499999999995 0.0000000000000000 0.0000000000000000
  lattice_vector 0.0000000000000000 9.9590499999999995 0.0000000000000000
  lattice_vector 0.0000000000000000 0.0000000000000000 9.9590499999999995
  atom 1.7134199999999999 2.0652400000000002 -19.2789999999999999 O
  atom 0.9536100000000000 2.0172500000000002 -18.6007999999999996 H
  atom 2.4526599999999998 2.6146699999999998 -18.8978999999999999 H
  atom 17.1491000000000007 21.3850000000000016 -5.2570100000000002 O
  atom 17.3850000000000016 20.5883000000000003 -5.7360899999999999 H
  atom 16.2771000000000008 21.5120000000000005 -5.5781200000000002 H
  atom 19.9085999999999999 -14.7863000000000007 15.5076000000000001 O
  atom 19.7624999999999993 -15.0210000000000008 16.5104000000000006 H
  atom 20.0112999999999985 -13.8261000000000003 15.5016999999999996 H
  atom 3.8592200000000001 -7.5730199999999996 -3.4072200000000001 O
  atom 3.0752299999999999 -7.4901099999999996 -2.9089800000000001 H
  atom 4.5716599999999996 -7.0295600000000000 -2.9435500000000001 H
  atom 0.0895240000000000 -1.8558600000000001 15.4309999999999992 O
  atom 1.0474399999999999 -1.3996599999999999 15.5917999999999992 H
  atom -0.3875920000000000 -1.6934800000000001 16.1505000000000010 H
  atom -6.2887899999999997 -3.9385800000000000 18.7056000000000004 O
  atom -6.0227599999999999 -3.0571000000000002 18.7846000000000011 H
  atom -6.4734600000000002 -4.0621799999999997 17.8029000000000011 H
  atom -5.2654699999999997 8.6097199999999994 9.1491900000000008 O
  atom -6.0967900000000004 8.9022400000000008 9.5838999999999999 H
  atom -5.3760199999999996 8.9343100000000000 8.2904999999999998 H
  atom 14.1059000000000001 -11.0137000000000000 13.8048000000000002 O
  atom 14.8297000000000008 -11.7250999999999994 13.6742000000000008 H
  atom 13.3613000000000000 -11.6361000000000008 13.8666000000000000 H
  atom -13.8829999999999991 -14.9954999999999998 -19.0731999999999999 O
  atom -13.3312000000000008 -14.4539000000000009 -18.6413000000000011 H
  atom -14.6915999999999993 -14.4553999999999991 -19.2838999999999992 H
  atom 8.1403099999999995 -1.1054600000000001 3.6718700000000002 O
  atom 8.4730799999999995 -0.7146439999999999 2.8623400000000001 H
  atom 9.0007999999999999 -1.2618499999999999 4.1143299999999998 H
  atom -0.3759300000000000 24.6378999999999984 -11.6410999999999998 O
  atom 0.4590320000000000 24.7216999999999985 -11.2339000000000002 H
  atom -1.0135099999999999 24.0088000000000008 -11.4649000000000001 H
  atom -26.9341000000000008 -4.1918400000000000 5.9614500000000001 O
  atom -28.0653000000000006 -4.4459400000000002 5.8119800000000001 H
  atom -26.6057999999999986 -4.4772499999999997 5.0837599999999998 H
  atom 14.8521000000000001 9.7000299999999999 6.4752000000000001 O
  atom 14.9417000000000009 9.4513300000000005 5.5628399999999996 H
  atom 14.5585000000000004 10.6862999999999992 6.4428000000000001 H
  atom 7.4322699999999999 -1.6483200000000000 6.8526999999999996 O
  atom 6.9757199999999999 -0.7783150000000000 6.8718100000000000 H
  atom 7.5692199999999996 -1.8664400000000001 7.7772500000000004 H
  atom -12.1344999999999992 -5.8686499999999997 -15.7573000000000008 O
  atom -12.3851999999999993 -6.8519899999999998 -15.5371000000000006 H
  atom -11.1498000000000008 -5.7369500000000002 -15.6105999999999998 H
  atom -0.6851090000000000 12.5747000000000000 11.9215999999999998 O
  atom -0.9173580000000000 11.7128999999999994 12.3844999999999992 H
  atom -1.2628800000000000 13.3923000000000005 12.3720999999999997 H
  atom -17.6639000000000017 9.4570399999999992 -0.0654470000000000 O
  atom -17.6611000000000011 10.4199000000000002 0.3673560000000000 H
  atom -17.9914999999999985 9.4732599999999998 -0.9647210000000001 H
  atom -2.2968999999999999 -11.7190999999999992 -0.2600380000000000 O
  atom -1.9468600000000000 -12.4594000000000005 0.3005870000000000 H
  atom -3.1365900000000000 -11.4921000000000006 -0.2341920000000000 H
  atom 32.0647000000000020 9.3978099999999998 16.8561000000000014 O
  atom 32.9866999999999990 9.4047000000000001 16.7647000000000013 H
  atom 31.7878000000000007 10.4723000000000006 17.0573000000000015 H
  atom -33.7685000000000031 17.0127999999999986 -6.8947099999999999 O
  atom -33.6227000000000018 16.6066000000000003 -6.1403299999999996 H
  atom -32.9821000000000026 17.6326999999999998 -6.8319400000000003 H
  atom -5.2355499999999999 1.8303900000000000 13.8731000000000009 O
  atom -5.1970900000000002 0.8315820000000000 13.8095999999999997 H
  atom -5.6153199999999996 2.2191600000000000 14.6509000000000000 H
  atom -0.8139710000000000 36.2541000000000011 11.4412000000000003 O
  atom -0.6218020000000000 37.0724999999999980 11.9643999999999995 H
  atom 0.0566360000000000 35.8781000000000034 11.2387999999999995 H
  atom 13.2497000000000007 15.6648999999999994 -6.9502499999999996 O
  atom 13.4189000000000007 14.8592999999999993 -7.2576700000000001 H
  atom 13.9850999999999992 16.1335000000000015 -6.7565700000000000 H
  atom 17.8469000000000015 2.8249900000000001 19.5644999999999989 O
  atom 17.3985999999999983 3.4285299999999999 19.9160000000000004 H
  atom 18.6616000000000000 2.6244499999999999 20.1661000000000001 H
  atom 1.4450300000000000 2.1504699999999999 -2.1399499999999998 O
  atom 0.5687040000000000 2.2397200000000002 -2.3898700000000002 H
  atom 1.4850800000000000 2.3442300000000000 -1.2491399999999999 H
  atom 11.4619000000000000 -11.7998999999999992 12.1971000000000007 O
  atom 11.9882000000000009 -11.6495999999999995 11.4936000000000007 H
  atom 11.7051999999999996 -12.7091999999999992 12.4754000000000005 H
  atom 11.3346000000000000 25.2106999999999992 20.4471999999999987 O
  atom 12.2210000000000001 25.5573000000000015 20.3566000000000003 H
  atom 11.4680999999999997 24.5465000000000018 21.0629999999999988 H
  atom 29.3126999999999995 9.8704900000000002 31.4424999999999990 O
  atom 29.0878000000000014 9.4427800000000008 30.6275000000000013 H
  atom 30.2129000000000012 9.5920900000000007 31.4416000000000011 H
  atom 6.4497799999999996 6.1539500000000000 5.5347000000000000 O
  atom 6.8702600000000000 5.5469200000000001 4.9867900000000001 H
  atom 6.8751300000000004 6.8334900000000003 5.9670100000000001 H
  atom -34.1576999999999984 4.3613900000000001 -12.1827000000000005 O
  atom -33.8248999999999995 4.9120999999999997 -12.7492000000000001 H
  atom -34.7361000000000004 4.7505600000000001 -11.5986999999999991 H
  atom 23.8281999999999989 13.3594000000000008 1.5543600000000000 O
  atom 24.8074000000000012 13.8028999999999993 1.2030900000000000 H
  atom 24.0222000000000016 12.7799999999999994 2.3142600000000000 H
  atom 18.6453999999999986 2.1511900000000002 7.1584899999999996 O
  atom 17.9269999999999996 2.1959599999999999 6.5721100000000003 H
  atom 18.2971000000000004 2.3028599999999999 8.0494500000000002 H
  
  -----------------------------------------------------------------------
  Completed first pass over input file geometry.in .
  -----------------------------------------------------------------------
  

  Basic array size parameters:
  | Number of species                 :        2
  | Number of atoms                   :       96
  | Number of lattice vectors         :        3
  | Max. basis fn. angular momentum   :        2
  | Max. atomic/ionic basis occupied n:        2
  | Max. number of basis fn. types    :        2
  | Max. radial fns per species/type  :        3
  | Max. logarithmic grid size        :     1301
  | Max. radial integration grid size :       36
  | Max. angular integration grid size:      302
  | Max. angular grid division number :        8
  | Radial grid for Hartree potential :     1301
  | Number of spin channels           :        1

------------------------------------------------------------
          Reading file control.in.
------------------------------------------------------------
  XC: Using Perdew-Wang parametrisation of Ceperley-Alder LDA.
  Spin treatment: No spin polarisation.
  Non-relativistic treatment of kinetic energy.
  Charge =   0.000000E+00: Neutral system requested explicitly.
  DFPT calculation will begin after the DFT/HF calculation.
  Convergence accuracy of self-consistent charge density:  0.1000E-05
  Found k-point grid:         1         1         1
  Threshold value for wave function integration:  0.1000E-07
 
  Reading configuration options for species H                   .
  | Found nuclear charge :   1.0000
  | Found atomic mass :    1.00794000000000      amu
  | Found l_max for Hartree potential  :   4
  | Found cutoff potl. onset [A], width [A], scale factor :    3.50000    1.50000    1.00000
  | Threshold for basis-dependent cutoff potential is   0.100000E-03
  | Found data for basic radial integration grid :    24 points, outermost radius =    5.000 A
  | Found multiplier for basic radial grid :   1
  | Found angular grid specification: user-specified.
  | Specified grid contains     5 separate shells.
  | Check grid settings after all constraints further below.
  | Found free-atom valence shell :  1 s   1.000
  | No ionic wave fns used. Skipping ion_occ.
  | Found hydrogenic basis function :  2 s   2.100
  | Found hydrogenic basis function :  2 p   3.500
  Species H                   : Missing cutoff potential type.
  Defaulting to exp(1/x)/(1-x)^2 type cutoff potential.
  Species H : No 'logarithmic' tag. Using default grid for free atom:
  | Default logarithmic grid data [bohr] : 0.1000E-03 0.1000E+03 0.1012E+01
  Species H : On-site basis accuracy parameter (for Gram-Schmidt orthonormalisation) not specified.
  Using default value basis_acc =  0.1000000E-03.
  Species H                   : Using default innermost maximum threshold i_radial=  2 for radial functions.
  Species H                   : Default cutoff onset for free atom density etc. : 0.35000000E+01 AA.
  Species H                   : Basic radial grid will be enhanced according to radial_multiplier =   1, to contain    24 grid points.
 
  Reading configuration options for species O                   .
  | Found nuclear charge :   8.0000
  | Found atomic mass :    15.9994000000000      amu
  | Found l_max for Hartree potential  :   4
  | Found cutoff potl. onset [A], width [A], scale factor :    3.50000    1.50000    1.00000
  | Threshold for basis-dependent cutoff potential is   0.100000E-03
  | Found data for basic radial integration grid :    36 points, outermost radius =    5.000 A
  | Found multiplier for basic radial grid :   1
  | Found angular grid specification: user-specified.
  | Specified grid contains     5 separate shells.
  | Check grid settings after all constraints further below.
  | Found free-atom valence shell :  2 s   2.000
  | Found free-atom valence shell :  2 p   4.000
  | No ionic wave fns used. Skipping ion_occ.
  | No ionic wave fns used. Skipping ion_occ.
  | Found hydrogenic basis function :  2 p   1.800
  | Found hydrogenic basis function :  3 d   7.600
  | Found hydrogenic basis function :  3 s   6.400
  Species O                   : Missing cutoff potential type.
  Defaulting to exp(1/x)/(1-x)^2 type cutoff potential.
  Species O : No 'logarithmic' tag. Using default grid for free atom:
  | Default logarithmic grid data [bohr] : 0.1000E-03 0.1000E+03 0.1012E+01
  Species O : On-site basis accuracy parameter (for Gram-Schmidt orthonormalisation) not specified.
  Using default value basis_acc =  0.1000000E-03.
  Species O                   : Using default innermost maximum threshold i_radial=  2 for radial functions.
  Species O                   : Default cutoff onset for free atom density etc. : 0.35000000E+01 AA.
  Species O                   : Basic radial grid will be enhanced according to radial_multiplier =   1, to contain    36 grid points.
 
  Finished reading input file 'control.in'.
 
------------------------------------------------------------


------------------------------------------------------------
          Reading geometry description geometry.in.
------------------------------------------------------------
  | The smallest distance between any two atoms is         0.82993112 AA.
  | The first atom of this pair is atom number                     70 .
  | The second atom of this pair is atom number                    71 .
  | Wigner-Seitz cell of the first atom image           0     0     0 .
  | (The Wigner-Seitz cell of the second atom is 0 0 0  by definition.)

  Symmetry information by spglib:
  | Precision set to  0.1E-04
  | Number of Operations  : 1
  | Space group           : 1
  | International         : P1       vN
  | Schoenflies           : C1^1
  Input structure read successfully.
  The structure contains       96 atoms,  and a total of        320.000 electrons.

  Input geometry:
  | Unit cell:
  |        9.95905000        0.00000000        0.00000000
  |        0.00000000        9.95905000        0.00000000
  |        0.00000000        0.00000000        9.95905000
  | Atomic structure:
  |       Atom                x [A]            y [A]            z [A]
  |    1: Species O             1.71342000        2.06524000      -19.27900000
  |    2: Species H             0.95361000        2.01725000      -18.60080000
  |    3: Species H             2.45266000        2.61467000      -18.89790000
  |    4: Species O            17.14910000       21.38500000       -5.25701000
  |    5: Species H            17.38500000       20.58830000       -5.73609000
  |    6: Species H            16.27710000       21.51200000       -5.57812000
  |    7: Species O            19.90860000      -14.78630000       15.50760000
  |    8: Species H            19.76250000      -15.02100000       16.51040000
  |    9: Species H            20.01130000      -13.82610000       15.50170000
  |   10: Species O             3.85922000       -7.57302000       -3.40722000
  |   11: Species H             3.07523000       -7.49011000       -2.90898000
  |   12: Species H             4.57166000       -7.02956000       -2.94355000
  |   13: Species O             0.08952400       -1.85586000       15.43100000
  |   14: Species H             1.04744000       -1.39966000       15.59180000
  |   15: Species H            -0.38759200       -1.69348000       16.15050000
  |   16: Species O            -6.28879000       -3.93858000       18.70560000
  |   17: Species H            -6.02276000       -3.05710000       18.78460000
  |   18: Species H            -6.47346000       -4.06218000       17.80290000
  |   19: Species O            -5.26547000        8.60972000        9.14919000
  |   20: Species H            -6.09679000        8.90224000        9.58390000
  |   21: Species H            -5.37602000        8.93431000        8.29050000
  |   22: Species O            14.10590000      -11.01370000       13.80480000
  |   23: Species H            14.82970000      -11.72510000       13.67420000
  |   24: Species H            13.36130000      -11.63610000       13.86660000
  |   25: Species O           -13.88300000      -14.99550000      -19.07320000
  |   26: Species H           -13.33120000      -14.45390000      -18.64130000
  |   27: Species H           -14.69160000      -14.45540000      -19.28390000
  |   28: Species O             8.14031000       -1.10546000        3.67187000
  |   29: Species H             8.47308000       -0.71464400        2.86234000
  |   30: Species H             9.00080000       -1.26185000        4.11433000
  |   31: Species O            -0.37593000       24.63790000      -11.64110000
  |   32: Species H             0.45903200       24.72170000      -11.23390000
  |   33: Species H            -1.01351000       24.00880000      -11.46490000
  |   34: Species O           -26.93410000       -4.19184000        5.96145000
  |   35: Species H           -28.06530000       -4.44594000        5.81198000
  |   36: Species H           -26.60580000       -4.47725000        5.08376000
  |   37: Species O            14.85210000        9.70003000        6.47520000
  |   38: Species H            14.94170000        9.45133000        5.56284000
  |   39: Species H            14.55850000       10.68630000        6.44280000
  |   40: Species O             7.43227000       -1.64832000        6.85270000
  |   41: Species H             6.97572000       -0.77831500        6.87181000
  |   42: Species H             7.56922000       -1.86644000        7.77725000
  |   43: Species O           -12.13450000       -5.86865000      -15.75730000
  |   44: Species H           -12.38520000       -6.85199000      -15.53710000
  |   45: Species H           -11.14980000       -5.73695000      -15.61060000
  |   46: Species O            -0.68510900       12.57470000       11.92160000
  |   47: Species H            -0.91735800       11.71290000       12.38450000
  |   48: Species H            -1.26288000       13.39230000       12.37210000
  |   49: Species O           -17.66390000        9.45704000       -0.06544700
  |   50: Species H           -17.66110000       10.41990000        0.36735600
  |   51: Species H           -17.99150000        9.47326000       -0.96472100
  |   52: Species O            -2.29690000      -11.71910000       -0.26003800
  |   53: Species H            -1.94686000      -12.45940000        0.30058700
  |   54: Species H            -3.13659000      -11.49210000       -0.23419200
  |   55: Species O            32.06470000        9.39781000       16.85610000
  |   56: Species H            32.98670000        9.40470000       16.76470000
  |   57: Species H            31.78780000       10.47230000       17.05730000
  |   58: Species O           -33.76850000       17.01280000       -6.89471000
  |   59: Species H           -33.62270000       16.60660000       -6.14033000
  |   60: Species H           -32.98210000       17.63270000       -6.83194000
  |   61: Species O            -5.23555000        1.83039000       13.87310000
  |   62: Species H            -5.19709000        0.83158200       13.80960000
  |   63: Species H            -5.61532000        2.21916000       14.65090000
  |   64: Species O            -0.81397100       36.25410000       11.44120000
  |   65: Species H            -0.62180200       37.07250000       11.96440000
  |   66: Species H             0.05663600       35.87810000       11.23880000
  |   67: Species O            13.24970000       15.66490000       -6.95025000
  |   68: Species H            13.41890000       14.85930000       -7.25767000
  |   69: Species H            13.98510000       16.13350000       -6.75657000
  |   70: Species O            17.84690000        2.82499000       19.56450000
  |   71: Species H            17.39860000        3.42853000       19.91600000
  |   72: Species H            18.66160000        2.62445000       20.16610000
  |   73: Species O             1.44503000        2.15047000       -2.13995000
  |   74: Species H             0.56870400        2.23972000       -2.38987000
  |   75: Species H             1.48508000        2.34423000       -1.24914000
  |   76: Species O            11.46190000      -11.79990000       12.19710000
  |   77: Species H            11.98820000      -11.64960000       11.49360000
  |   78: Species H            11.70520000      -12.70920000       12.47540000
  |   79: Species O            11.33460000       25.21070000       20.44720000
  |   80: Species H            12.22100000       25.55730000       20.35660000
  |   81: Species H            11.46810000       24.54650000       21.06300000
  |   82: Species O            29.31270000        9.87049000       31.44250000
  |   83: Species H            29.08780000        9.44278000       30.62750000
  |   84: Species H            30.21290000        9.59209000       31.44160000
  |   85: Species O             6.44978000        6.15395000        5.53470000
  |   86: Species H             6.87026000        5.54692000        4.98679000
  |   87: Species H             6.87513000        6.83349000        5.96701000
  |   88: Species O           -34.15770000        4.36139000      -12.18270000
  |   89: Species H           -33.82490000        4.91210000      -12.74920000
  |   90: Species H           -34.73610000        4.75056000      -11.59870000
  |   91: Species O            23.82820000       13.35940000        1.55436000
  |   92: Species H            24.80740000       13.80290000        1.20309000
  |   93: Species H            24.02220000       12.78000000        2.31426000
  |   94: Species O            18.64540000        2.15119000        7.15849000
  |   95: Species H            17.92700000        2.19596000        6.57211000
  |   96: Species H            18.29710000        2.30286000        8.04945000

  Lattice parameters for 3D lattice (in Angstroms) :     9.959050    9.959050    9.959050
  Angle(s) between unit vectors (in degrees)       :    90.000000   90.000000   90.000000


  Quantities derived from the lattice vectors (in Angstrom^-1):
  | Reciprocal lattice vector 1:  0.630902  0.000000  0.000000
  | Reciprocal lattice vector 2:  0.000000  0.630902  0.000000
  | Reciprocal lattice vector 3:  0.000000  0.000000  0.630902
  | Unit cell volume                               :   0.987765E+03  Angstrom^3

  Fractional coordinates:
                         L1                L2                L3
       atom_frac         0.17204653        0.20737319       -1.93582721  O
       atom_frac         0.09575311        0.20255446       -1.86772835  H
       atom_frac         0.24627449        0.26254211       -1.89756051  H
       atom_frac         1.72196143        2.14729317       -0.52786260  O
       atom_frac         1.74564843        2.06729558       -0.57596759  H
       atom_frac         1.63440288        2.16004539       -0.56010563  H
       atom_frac         1.99904609       -1.48470989        1.55713647  O
       atom_frac         1.98437602       -1.50827639        1.65782881  H
       atom_frac         2.00935832       -1.38829507        1.55654405  H
       atom_frac         0.38750885       -0.76041590       -0.34212299  O
       atom_frac         0.30878748       -0.75209081       -0.29209413  H
       atom_frac         0.45904579       -0.70584644       -0.29556534  H
       atom_frac         0.00898921       -0.18634910        1.54944498  O
       atom_frac         0.10517469       -0.14054152        1.56559110  H
       atom_frac        -0.03891857       -0.17004433        1.62169082  H
       atom_frac        -0.63146485       -0.39547748        1.87825144  O
       atom_frac        -0.60475246       -0.30696703        1.88618392  H
       atom_frac        -0.65000778       -0.40788830        1.78761026  H
       atom_frac        -0.52871208        0.86451218        0.91868100  O
       atom_frac        -0.61218590        0.89388446        0.96233074  H
       atom_frac        -0.53981253        0.89710464        0.83245892  H
       atom_frac         1.41639012       -1.10589865        1.38615631  O
       atom_frac         1.48906773       -1.17733117        1.37304261  H
       atom_frac         1.34162395       -1.16839458        1.39236172  H
       atom_frac        -1.39400846       -1.50571591       -1.91516259  O
       atom_frac        -1.33860157       -1.45133321       -1.87179500  H
       atom_frac        -1.47520095       -1.45148383       -1.93631923  H
       atom_frac         0.81737816       -0.11100055        0.36869681  O
       atom_frac         0.85079199       -0.07175825        0.28741095  H
       atom_frac         0.90378098       -0.12670385        0.41312475  H
       atom_frac        -0.03774758        2.47392071       -1.16889663  O
       atom_frac         0.04609195        2.48233516       -1.12800920  H
       atom_frac        -0.10176774        2.41075203       -1.15120418  H
       atom_frac        -2.70448487       -0.42090762        0.59859625  O
       atom_frac        -2.81807000       -0.44642210        0.58358779  H
       atom_frac        -2.67151987       -0.44956597        0.51046636  H
       atom_frac         1.49131694        0.97399150        0.65018250  O
       atom_frac         1.50031378        0.94901923        0.55857135  H
       atom_frac         1.46183622        1.07302403        0.64692917  H
       atom_frac         0.74628303       -0.16550976        0.68808772  O
       atom_frac         0.70044030       -0.07815153        0.69000658  H
       atom_frac         0.76003434       -0.18741145        0.78092288  H
       atom_frac        -1.21843951       -0.58927809       -1.58220915  O
       atom_frac        -1.24361259       -0.68801643       -1.56009860  H
       atom_frac        -1.11956462       -0.57605394       -1.56747883  H
       atom_frac        -0.06879261        1.26264051        1.19706197  O
       atom_frac        -0.09211300        1.17610615        1.24354231  H
       atom_frac        -0.12680728        1.34473670        1.24229721  H
       atom_frac        -1.77365311        0.94959258       -0.00657161  O
       atom_frac        -1.77337196        1.04627449        0.03688665  H
       atom_frac        -1.80654781        0.95122125       -0.09686878  H
       atom_frac        -0.23063445       -1.17672870       -0.02611072  O
       atom_frac        -0.19548652       -1.25106310        0.03018230  H
       atom_frac        -0.31494871       -1.15393537       -0.02351550  H
       atom_frac         3.21965449        0.94364523        1.69254096  O
       atom_frac         3.31223360        0.94433706        1.68336337  H
       atom_frac         3.19185063        1.05153604        1.71274369  H
       atom_frac        -3.39073506        1.70827539       -0.69230599  O
       atom_frac        -3.37609511        1.66748836       -0.61655780  H
       atom_frac        -3.31177171        1.77052028       -0.68600318  H
       atom_frac        -0.52570777        0.18379163        1.39301439  O
       atom_frac        -0.52184596        0.08350013        1.38663828  H
       atom_frac        -0.56384093        0.22282848        1.47111421  H
       atom_frac        -0.08173179        3.64031710        1.14882444  O
       atom_frac        -0.06243587        3.72249361        1.20135957  H
       atom_frac         0.00568689        3.60256249        1.12850121  H
       atom_frac         1.33041806        1.57293115       -0.69788283  O
       atom_frac         1.34740763        1.49203990       -0.72875124  H
       atom_frac         1.40426045        1.61998383       -0.67843519  H
       atom_frac         1.79202836        0.28366059        1.96449461  O
       atom_frac         1.74701402        0.34426276        1.99978914  H
       atom_frac         1.87383335        0.26352413        2.02490197  H
       atom_frac         0.14509717        0.21593124       -0.21487491  O
       atom_frac         0.05710424        0.22489294       -0.23996968  H
       atom_frac         0.14911864        0.23538691       -0.12542763  H
       atom_frac         1.15090295       -1.18484193        1.22472525  O
       atom_frac         1.20374935       -1.16975013        1.15408598  H
       atom_frac         1.17533299       -1.27614582        1.25266968  H
       atom_frac         1.13812060        2.53143623        2.05312756  O
       atom_frac         1.22712508        2.56623875        2.04403030  H
       atom_frac         1.15152550        2.46474312        2.11496076  H
       atom_frac         2.94332291        0.99110759        3.15717865  O
       atom_frac         2.92074043        0.94816072        3.07534353  H
       atom_frac         3.03371305        0.96315311        3.15708828  H
       atom_frac         0.64763005        0.61792540        0.55574578  O
       atom_frac         0.68985094        0.55697280        0.50072949  H
       atom_frac         0.69033994        0.68615882        0.59915454  H
       atom_frac        -3.42981509        0.43793233       -1.22327933  O
       atom_frac        -3.39639825        0.49322978       -1.28016226  H
       atom_frac        -3.48789292        0.47700935       -1.16463920  H
       atom_frac         2.39261777        1.34143317        0.15607513  O
       atom_frac         2.49094040        1.38596553        0.12080369  H
       atom_frac         2.41209754        1.28325493        0.23237759  H
       atom_frac         1.87220669        0.21600353        0.71879246  O
       atom_frac         1.80007129        0.22049894        0.65991335  H
       atom_frac         1.83723347        0.23123290        0.80825480  H

 
  Finished reading input file 'geometry.in'.
 

 
  Consistency checks for stacksize environment parameter are next.
 
  | Maximum stacksize for task 0: unlimited
  | Maximum stacksize for task 1: unlimited
  | Maximum stacksize for task 2: unlimited
  | Maximum stacksize for task 3: unlimited
  | Maximum stacksize for task 4: unlimited
  | Maximum stacksize for task 5: unlimited
  | Maximum stacksize for task 6: unlimited
  | Maximum stacksize for task 7: unlimited
  | Maximum stacksize for task 8: unlimited
  | Maximum stacksize for task 9: unlimited
  | Maximum stacksize for task 10: unlimited
  | Maximum stacksize for task 11: unlimited
  | Maximum stacksize for task 12: unlimited
  | Maximum stacksize for task 13: unlimited
  | Maximum stacksize for task 14: unlimited
  | Maximum stacksize for task 15: unlimited
  | Maximum stacksize for task 16: unlimited
  | Maximum stacksize for task 17: unlimited
  | Current stacksize for task 0: unlimited
  | Current stacksize for task 1: unlimited
  | Current stacksize for task 2: unlimited
  | Current stacksize for task 3: unlimited
  | Current stacksize for task 4: unlimited
  | Current stacksize for task 5: unlimited
  | Current stacksize for task 6: unlimited
  | Current stacksize for task 7: unlimited
  | Current stacksize for task 8: unlimited
  | Current stacksize for task 9: unlimited
  | Current stacksize for task 10: unlimited
  | Current stacksize for task 11: unlimited
  | Current stacksize for task 12: unlimited
  | Current stacksize for task 13: unlimited
  | Current stacksize for task 14: unlimited
  | Current stacksize for task 15: unlimited
  | Current stacksize for task 16: unlimited
  | Current stacksize for task 17: unlimited
 
  Consistency checks for the contents of control.in are next.
 
  MPI_IN_PLACE appears to work with this MPI implementation.
  | Keeping use_mpi_in_place .true. (see manual).
  Explicit treatment of the Coulomb operator is needed, but the RI method is not specified.
  Coulomb operator: Defaulting to 'LVL fast' resolution of identity - RI_type = LVL_fast
  Species H: Using default value for prodbas_acc =   1.000000E-06.
  Species H: Using default value max_l_prodbas =     6.
  Species O: Using default value for prodbas_acc =   1.000000E-06.
  Species O: Using default value max_l_prodbas =     6.
  Target number of points in a grid batch is not set.  Since GPU acceleration is enabled, defaulting to  200
  Method for grid partitioning is not set. Defaulting to parallel hash+maxmin partitioning.
  Batch size limit is not set. Defaulting to    200
  By default, will store active basis functions for each batch.
  If in need of memory, prune_basis_once .false. can be used to disable this option.
  communication_type for Hartree potential was not specified.
  Defaulting to calc_hartree .
  Defaulting to Pulay charge density mixer.
  Pulay mixer: Number of relevant iterations not set.
  Defaulting to    8 iterations.
  Pulay mixer: Number of initial linear mixing iterations not set.
  Defaulting to    0 iterations.
  Work space size for distributed Hartree potential not set.
  Defaulting to   0.200000E+03 MB.
  Mixing parameter for charge density mixing has not been set.
  Using default: charge_mix_param =     0.0500.
  The mixing parameter will be adjusted in iteration number     2 of the first full s.c.f. cycle only.
  Algorithm-dependent basis array size parameters:
  | n_max_pulay                         :        8
  Maximum number of self-consistency iterations not provided.
  Presetting  1000 iterations.
  Presetting      1001 iterations before the initial mixing cycle
  is restarted anyway using the sc_init_iter criterion / keyword.
  Presetting a factor      1.000 between actual scf density residual
  and density convergence criterion sc_accuracy_rho below which sc_init_iter
  takes no effect.
  Calculation of forces was not defined in control.in. No forces will be calculated.
  Geometry relaxation not requested: no relaxation will be performed.
  No accuracy limit for integral partition fn. given. Defaulting to  0.1000E-14.
  No occupation type (smearing scheme) given. Defaulting to Gaussian broadening, width =  0.1000E-01 eV.
  The width will be adjusted in iteration number     2 of the first full s.c.f. cycle only.
  S.C.F. convergence parameters will be adjusted in iteration number     2 of the first full s.c.f. cycle only.
  No accuracy for occupation numbers given. Defaulting to  0.1000E-12.
  No threshold value for occupation numbers given. Defaulting to  0.0000E+00.
  No accuracy for fermi level given. Defaulting to  0.1000E-19.
  Maximum # of iterations to find E_F not set. Defaulting to  200.
  Preferred method for the eigenvalue solver ('KS_method') not specified in 'control.in'.
  Calling BLACS routine to test compilation state
  Since ScaLAPACK support is enabled, defaulting to ELPA (via ELSI).
  Will not use alltoall communication since running on < 1024 CPUs.
  Threshold for basis singularities not set.
  Default threshold for basis singularities:  0.1000E-04
  partition_type (choice of integration weights) for integrals was not specified.
  | Using a version of the partition function of Stratmann and coworkers ('stratmann_sparse').
  | At each grid point, the set of atoms used to build the partition table is smoothly restricted to
  | only those atoms whose free-atom density would be non-zero at that grid point.
  Partitioning for Hartree potential was not defined. Using partition_type for integrals.
  | Adjusted default value of keyword multip_moments_threshold to:       0.10000000E-11
  | This value may affect high angular momentum components of the Hartree potential in periodic systems.
  Angular momentum expansion for Kerker preconditioner not set explicitly.
  | Using default value of   0
  No explicit requirement for turning off preconditioner.
  | By default, it will be turned off when the charge convergence reaches
  | sc_accuracy_rho  =   0.100000E-05
  No special mixing parameter while Kerker preconditioner is on.
  Using default: charge_mix_param =     0.0500.
  Threshold for auxiliary basis singularities not set.
  Default threshold for auxiliary basis singularities:  0.1000E-04
  No q(lm)/r^(l+1) cutoff set for long-range Hartree potential.
  | Using default value of  0.100000E-09 .
  | Verify using the multipole_threshold keyword.
  Defaulting to new monopole extrapolation.
  Density update method: automatic selection selected.
  Using density matrix based charge density update.
  Using density matrix based charge density update.
  Using packed matrix style: index .
  Defaulting to use time-reversal symmetry for k-point grid.
  Charge integration errors on the 3D integration grid will be compensated
  by explicit normalization and distribution of residual charges.
  Use the "compensate_multipole_errors" flag to change this behaviour.
  Default to 1D ("use_logsbt") integrations for auxiliary 2-center integrals.
  Default onset of logarithmic r-grid for SBT is -38.000000000000
  Default onset of logarithmic k-grid for SBT is -25.000000000000
  Default range of logarithmic r- and k-grid for SBT is  45.000000000000
  Default number of logarithmic r- and k-grid for SBT is   4096
  Default of use_2d_corr is to use the efficient 2D distribution where possible
 
  Consistency checks for the contents of geometry.in are next.
 

  Range separation radius for Ewald summation (hartree_convergence_parameter):      3.01096837 bohr.
  Number of empty states per atom not set in control.in .
  | Since you are using a method that relies on the unoccupied spectrum
  | (MP2,GW,RPA et al.), will use the full Hamiltonian size (see below)
  | as the max. possible number of states (occupied plus empty).

  Structure-dependent array size parameters: 
  | Maximum number of distinct radial functions  :        9
  | Maximum number of basis functions            :      768
  | Number of Kohn-Sham states (occupied + empty):      768
------------------------------------------------------------

  Performing system and environment tests:
  | Environment variable OMP_NUM_THREADS correctly set to 1.
  | Checking for ScaLAPACK...
  | Testing pdtran()...
  | All pdtran() tests passed.
CUDA runtime version: 11060
CUDA driver version: 11060
  Initializing GPUs...

  Number of GPUs available to MPI task         0 :   1
  Number of GPUs available to MPI task         1 :   1
  Number of GPUs available to MPI task         2 :   1
  Number of GPUs available to MPI task         3 :   1
  Number of GPUs available to MPI task         4 :   1
  Number of GPUs available to MPI task         5 :   1
  Number of GPUs available to MPI task         6 :   1
  Number of GPUs available to MPI task         7 :   1
  Number of GPUs available to MPI task         8 :   1
  Number of GPUs available to MPI task         9 :   1
  Number of GPUs available to MPI task        10 :   1
  Number of GPUs available to MPI task        11 :   1
  Number of GPUs available to MPI task        12 :   1
  Number of GPUs available to MPI task        13 :   1
  Number of GPUs available to MPI task        14 :   1
  Number of GPUs available to MPI task        15 :   1
  Number of GPUs available to MPI task        16 :   1
  Number of GPUs available to MPI task        17 :   1

  | MPI task         0, GPU activated = T, Device Name = NVIDIA A100-SXM4-80GB
  | MPI task         1, GPU activated = T, Device Name = NVIDIA A100-SXM4-80GB
  | MPI task         2, GPU activated = T, Device Name = NVIDIA A100-SXM4-80GB
  | MPI task         3, GPU activated = T, Device Name = NVIDIA A100-SXM4-80GB
  | MPI task         4, GPU activated = T, Device Name = NVIDIA A100-SXM4-80GB
  | MPI task         5, GPU activated = T, Device Name = NVIDIA A100-SXM4-80GB
  | MPI task         6, GPU activated = T, Device Name = NVIDIA A100-SXM4-80GB
  | MPI task         7, GPU activated = T, Device Name = NVIDIA A100-SXM4-80GB
  | MPI task         8, GPU activated = T, Device Name = NVIDIA A100-SXM4-80GB
  | MPI task         9, GPU activated = T, Device Name = NVIDIA A100-SXM4-80GB
  | MPI task        10, GPU activated = T, Device Name = NVIDIA A100-SXM4-80GB
  | MPI task        11, GPU activated = T, Device Name = NVIDIA A100-SXM4-80GB
  | MPI task        12, GPU activated = T, Device Name = NVIDIA A100-SXM4-80GB
  | MPI task        13, GPU activated = T, Device Name = NVIDIA A100-SXM4-80GB
  | MPI task        14, GPU activated = T, Device Name = NVIDIA A100-SXM4-80GB
  | MPI task        15, GPU activated = T, Device Name = NVIDIA A100-SXM4-80GB
  | MPI task        16, GPU activated = T, Device Name = NVIDIA A100-SXM4-80GB
  | MPI task        17, GPU activated = T, Device Name = NVIDIA A100-SXM4-80GB

------------------------------------------------------------
          Preparing all fixed parts of the calculation.
------------------------------------------------------------
  Determining machine precision:
    2.225073858507201E-308
  Setting up grids for atomic and cluster calculations.

  Creating wave function, potential, and density for free atoms.
  Runtime choices for atomic solver:
  | atomic solver xc        : PW-LDA
  | compute density gradient: 0
  | compute kinetic density : F

  Species: H

  List of occupied orbitals and eigenvalues:
    n    l              occ      energy [Ha]    energy [eV]
    1    0           1.0000        -0.232375        -6.3233


  Species: O

  List of occupied orbitals and eigenvalues:
    n    l              occ      energy [Ha]    energy [eV]
    1    0           2.0000       -18.757744      -510.4242
    2    0           2.0000        -0.870917       -23.6989
    2    1           4.0000        -0.337950        -9.1961


  Adding cutoff potential to free-atom effective potential.
  Creating fixed part of basis set: Ionic, confined, hydrogenic.
 
  H                    hydrogenic:
 
  List of hydrogenic basis orbitals: 
    n    l      effective z      eigenvalue [eV]  inner max. [A]     outer max. [A]     outer radius [A]   
    2    0         2.100000       -14.9728           0.193243           1.317208           4.696947
    2    1         3.500000       -41.6669           0.602369           0.602369           3.862494
 
 
  O                    hydrogenic:
 
  List of hydrogenic basis orbitals: 
    n    l      effective z      eigenvalue [eV]  inner max. [A]     outer max. [A]     outer radius [A]   
    2    1         1.800000       -10.9749           1.164242           1.164242           4.691341
    3    2         7.600000       -87.3180           0.624125           0.624125           3.413946
    3    0         6.400000       -61.9207           0.061167           1.081902           4.151495
 
  Creating atomic-like basis functions for current effective potential.

  Species H                   :

  List of atomic basis orbitals and eigenvalues:
    n    l      energy [Ha]    energy [eV]    outer radius [A]
    1    0        -0.232375        -6.3233       4.696947


  Species O                   :

  List of atomic basis orbitals and eigenvalues:
    n    l      energy [Ha]    energy [eV]    outer radius [A]
    1    0       -18.757744      -510.4242       1.830144
    2    0        -0.870917       -23.6989       4.578029
    2    1        -0.337950        -9.1961       4.634338

  Assembling full basis from fixed parts.
  | Species H :   atomic orbital   1 s accepted.
  | Species H :    hydro orbital   2 s accepted.
  | Species H :    hydro orbital   2 p accepted.
  | Species O :   atomic orbital   1 s accepted.
  | Species O :    hydro orbital   3 s accepted.
  | Species O :   atomic orbital   2 s accepted.
  | Species O :   atomic orbital   2 p accepted.
  | Species O :    hydro orbital   2 p accepted.
  | Species O :    hydro orbital   3 d accepted.
 
  Basis size parameters after reduction:
  | Total number of radial functions:        9
  | Total number of basis functions :      768
 
  Per-task memory consumption for arrays in subroutine allocate_ext:
  |           2.268304MB.
  Testing on-site integration grid accuracy.
  |  Species  Function  <phi|h_atom|phi> (log., in eV)  <phi|h_atom|phi> (rad., in eV)
           1        1                 -6.3245358373                 -6.3232436907
           1        2                 14.1326137532                 14.1384481100
           1        3                 25.3627025200                 25.3628451197
           2        4               -510.4241781764               -510.4240769407
           2        5                 14.9072942213                 14.9072945271
           2        6                -21.2004736474                -21.2005650551
           2        7                 -9.1962086505                 -9.1963509834
           2        8                  8.1896755006                  8.1702200081
           2        9                 45.7920584937                 45.7920228520

  Preparing densities etc. for the partition functions (integrals / Hartree potential).

  Preparations completed.
  max(cpu_time)          :      0.070 s.
  Wall clock time (cpu1) :      0.066 s.
------------------------------------------------------------

  Initializing index lists of integration centers etc. from given atomic structure:
  Mapping all atomic coordinates to central unit cell.

  Initializing the k-points
  Using symmetry for reducing the k-points
  | k-points reduced from:        1 to        1
  | Number of k-points                             :         1
  | Consuming          0 KiB for k_phase_exx.
  The eigenvectors in the calculations are REAL.
  | Number of basis functions in the Hamiltonian integrals :      4435
  | Number of basis functions in a single unit cell        :       768
  | Number of centers in hartree potential         :      2598
  | Number of centers in hartree multipole         :      1904
  | Number of centers in electron density summation:      1478
  | Number of centers in basis integrals           :      1545
  | Number of centers in integrals                 :       686
  | Number of centers in hamiltonian               :      1478
  | Consuming          0 KiB for k_phase.
  | Number of super-cells (origin) [n_cells]                     :         125
  | Number of super-cells (after PM_index) [n_cells]             :          28
  | Number of super-cells in hamiltonian [n_cells_in_hamiltonian]:          28
  | Size of matrix packed + index [n_hamiltonian_matrix_size] :      769737
  | Size of matrix packed + index (no_symmetry):     1538705

------------------------------------------------------------
          Begin self-consistency loop: Initialization.

          Date     :  20230221, Time     :  151958.707
------------------------------------------------------------
  | Estimated reciprocal-space cutoff momentum G_max:         3.13832613 bohr^-1 .
  | Reciprocal lattice points for long-range Hartree potential:    3430
  Using simple linear distribution as default method for k-point parallelism.
  * Using 18 tasks for Scalapack Eigenvalue solver.
  Detailed listing of tasks and assigned k-points:
   Task     0 k-point     1 on adag038
   Task     1 k-point     1 on adag038
   Task     2 k-point     1 on adag038
   Task     3 k-point     1 on adag038
   Task     4 k-point     1 on adag038
   Task     5 k-point     1 on adag038
   Task     6 k-point     1 on adag038
   Task     7 k-point     1 on adag038
   Task     8 k-point     1 on adag038
   Task     9 k-point     1 on adag038
   Task    10 k-point     1 on adag038
   Task    11 k-point     1 on adag038
   Task    12 k-point     1 on adag038
   Task    13 k-point     1 on adag038
   Task    14 k-point     1 on adag038
   Task    15 k-point     1 on adag038
   Task    16 k-point     1 on adag038
   Task    17 k-point     1 on adag038
  K-point:     1 Tasks:    18 split into      6 X      3 BLACS grid
  Calculating block size based on n_basis =          768  max_nprow =            6  max_npcol =            3
  ScaLAPACK block size set to:           16
  Allocating        0.250 MB for ovlp
  Allocating        0.250 MB for ham
  Allocating        0.250 MB for eigenvec
  Required Scalapack workspace - INTEGER:            1  REAL:             1
  Partitioning the integration grid into batches with parallel hashing+maxmin method.
  | Number of batches:     4096
  | Maximal batch size:     191
  | Minimal batch size:     108
  | Average batch size:     124.406
  | Standard deviation of batch sizes:      18.396

  Integration load balanced across    18 MPI tasks.
  Work distribution over tasks is as follows:
  Task     0 has      28291 integration points.
  Task     1 has      28328 integration points.
  Task     2 has      28243 integration points.
  Task     3 has      28414 integration points.
  Task     4 has      28324 integration points.
  Task     5 has      28255 integration points.
  Task     6 has      28292 integration points.
  Task     7 has      28337 integration points.
  Task     8 has      28330 integration points.
  Task     9 has      28250 integration points.
  Task    10 has      28388 integration points.
  Task    11 has      28337 integration points.
  Task    12 has      28269 integration points.
  Task    13 has      28355 integration points.
  Task    14 has      28332 integration points.
  Task    15 has      28279 integration points.
  Task    16 has      28278 integration points.
  Task    17 has      28266 integration points.
  Initializing partition tables, free-atom densities, potentials, etc. across the integration grid (initialize_grid_storage).
  | initialize_grid_storage: Actual outermost partition radius vs. multipole_radius_free
  | (-- VB: in principle, multipole_radius_free should be larger, hence this output)
  | Species        1: Confinement radius =              4.999999999999999 AA, multipole_radius_free =              5.054417573612229 AA.
  | Species        1: outer_partition_radius set to              5.054417573612229 AA .
  | Species        2: Confinement radius =              4.999999999999999 AA, multipole_radius_free =              5.048384829883283 AA.
  | Species        2: outer_partition_radius set to              5.048384829883283 AA .
  | The sparse table of interatomic distances needs       5015.46 kbyte instead of     19096.20 kbyte of memory.
  | Net number of integration points:   509568
  | of which are non-zero points    :   407231
  | Numerical average free-atom electrostatic potential    :     -5.27584502 eV
  Renormalizing the initial density to the exact electron count on the 3D integration grid.
  | Initial density: Formal number of electrons (from input files) :     320.0000000000
  | Integrated number of electrons on 3D grid     :     319.9987219277
  | Charge integration error                      :      -0.0012780723
  | Normalization factor for density and gradient :       1.0000039940
  Renormalizing the free-atom superposition density to the exact electron count on the 3D integration grid.
  | Formal number of electrons (from input files) :     320.0000000000
  | Integrated number of electrons on 3D grid     :     319.9987219277
  | Charge integration error                      :      -0.0012780723
  | Normalization factor for density and gradient :       1.0000039940
  Obtaining max. number of non-zero basis functions in each batch (get_n_compute_maxes).
  | Maximal number of non-zero basis functions:      413 in task     0
  | Maximal number of non-zero basis functions:      438 in task     1
  | Maximal number of non-zero basis functions:      412 in task     2
  | Maximal number of non-zero basis functions:      416 in task     3
  | Maximal number of non-zero basis functions:      436 in task     4
  | Maximal number of non-zero basis functions:      415 in task     5
  | Maximal number of non-zero basis functions:      419 in task     6
  | Maximal number of non-zero basis functions:      407 in task     7
  | Maximal number of non-zero basis functions:      428 in task     8
  | Maximal number of non-zero basis functions:      431 in task     9
  | Maximal number of non-zero basis functions:      432 in task    10
  | Maximal number of non-zero basis functions:      452 in task    11
  | Maximal number of non-zero basis functions:      417 in task    12
  | Maximal number of non-zero basis functions:      418 in task    13
  | Maximal number of non-zero basis functions:      435 in task    14
  | Maximal number of non-zero basis functions:      427 in task    15
  | Maximal number of non-zero basis functions:      452 in task    16
  | Maximal number of non-zero basis functions:      412 in task    17
  Integrating Hamiltonian matrix: batch-based integration.
  GPU acceleration will be used when integrating the Hamiltonian matrix.
  Reporting GPU memory usage by myid 0.  Note that it is likely not the only MPI task binding to its GPU!
  Allocating        1.365 MB on GPU for hamiltonian_shell
  Allocating        0.631 MB on GPU for wave
  Allocating        0.002 MB on GPU for partition
  Allocating        0.631 MB on GPU for h_times_psi
  Time summed over all CPUs for integration: real work       11.406 s, elapsed       11.962 s
  Deallocating memory used on GPU for Hamiltonian integration.
  Integrating overlap matrix.
  Time summed over all CPUs for integration: real work        8.991 s, elapsed        9.574 s
  Deallocating overlap matrix.

  Updating Kohn-Sham eigenvalues and eigenvectors using ELSI and the ELPA eigensolver.
  Singularity check in k-point 1 (analysis for other k-points may follow below):
  Overlap matrix is not singular
  | Lowest and highest eigenvalues :  0.2100E-02,  0.7215E+01
  Finished singularity check of overlap matrix
  | Time :     0.132 s
  Starting ELPA eigensolver (GPU)
  Finished Cholesky decomposition
  | Time :     0.006 s
  Finished transformation to standard eigenproblem
  | Time :     0.025 s
  Finished solving standard eigenproblem
  | Time :     0.188 s
  Finished back-transformation of eigenvectors
  | Time :     0.015 s

  Obtaining occupation numbers and electronic chemical potential using ELSI.
  | Note that, for insulating systems, the printed 'chemical potential' value is not uniquely defined.
  | It can be anywhere in the energy gap, as long as it correctly separates occupied and unoccupied states.
  | In systems with a gap, the physically relevant chemical potential is the VBM or HOMO.

  | Chemical potential (Fermi level):    -7.58034447 eV
  Writing Kohn-Sham eigenvalues.

  State    Occupation    Eigenvalue [Ha]    Eigenvalue [eV]
      1       2.00000         -18.914809         -514.69813
      2       2.00000         -18.912730         -514.64157
      3       2.00000         -18.902383         -514.36001
      4       2.00000         -18.900642         -514.31264
      5       2.00000         -18.898912         -514.26557
      6       2.00000         -18.894832         -514.15453
      7       2.00000         -18.893106         -514.10757
      8       2.00000         -18.892928         -514.10272
      9       2.00000         -18.891715         -514.06972
     10       2.00000         -18.891632         -514.06745
     11       2.00000         -18.890881         -514.04703
     12       2.00000         -18.888514         -513.98261
     13       2.00000         -18.886116         -513.91735
     14       2.00000         -18.884178         -513.86462
     15       2.00000         -18.881832         -513.80078
     16       2.00000         -18.880153         -513.75510
     17       2.00000         -18.878948         -513.72232
     18       2.00000         -18.875198         -513.62026
     19       2.00000         -18.874424         -513.59921
     20       2.00000         -18.874276         -513.59519
     21       2.00000         -18.872705         -513.55244
     22       2.00000         -18.867923         -513.42231
     23       2.00000         -18.867528         -513.41156
     24       2.00000         -18.862845         -513.28412
     25       2.00000         -18.862341         -513.27041
     26       2.00000         -18.861845         -513.25692
     27       2.00000         -18.861238         -513.24039
     28       2.00000         -18.858218         -513.15822
     29       2.00000         -18.853813         -513.03836
     30       2.00000         -18.849547         -512.92226
     31       2.00000         -18.847394         -512.86367
     32       2.00000         -18.840583         -512.67834
     33       2.00000          -1.164841          -31.69694
     34       2.00000          -1.161761          -31.61314
     35       2.00000          -1.151425          -31.33187
     36       2.00000          -1.150880          -31.31704
     37       2.00000          -1.146992          -31.21123
     38       2.00000          -1.137584          -30.95523
     39       2.00000          -1.135676          -30.90333
     40       2.00000          -1.133721          -30.85013
     41       2.00000          -1.132335          -30.81241
     42       2.00000          -1.130798          -30.77058
     43       2.00000          -1.129943          -30.74731
     44       2.00000          -1.128460          -30.70697
     45       2.00000          -1.126389          -30.65060
     46       2.00000          -1.125298          -30.62091
     47       2.00000          -1.118032          -30.42321
     48       2.00000          -1.116130          -30.37145
     49       2.00000          -1.114375          -30.32368
     50       2.00000          -1.107542          -30.13774
     51       2.00000          -1.104537          -30.05599
     52       2.00000          -1.100730          -29.95238
     53       2.00000          -1.096389          -29.83427
     54       2.00000          -1.095244          -29.80310
     55       2.00000          -1.092556          -29.72995
     56       2.00000          -1.087627          -29.59585
     57       2.00000          -1.086399          -29.56241
     58       2.00000          -1.085465          -29.53701
     59       2.00000          -1.078425          -29.34545
     60       2.00000          -1.073893          -29.22211
     61       2.00000          -1.067586          -29.05048
     62       2.00000          -1.059334          -28.82595
     63       2.00000          -1.053983          -28.68034
     64       2.00000          -1.047550          -28.50530
     65       2.00000          -0.725024          -19.72891
     66       2.00000          -0.723941          -19.69942
     67       2.00000          -0.722753          -19.66710
     68       2.00000          -0.716918          -19.50832
     69       2.00000          -0.700255          -19.05490
     70       2.00000          -0.695348          -18.92138
     71       2.00000          -0.691183          -18.80805
     72       2.00000          -0.683183          -18.59036
     73       2.00000          -0.677274          -18.42955
     74       2.00000          -0.673461          -18.32581
     75       2.00000          -0.670601          -18.24799
     76       2.00000          -0.666405          -18.13381
     77       2.00000          -0.662630          -18.03107
     78       2.00000          -0.661359          -17.99651
     79       2.00000          -0.658756          -17.92567
     80       2.00000          -0.655564          -17.83881
     81       2.00000          -0.655065          -17.82523
     82       2.00000          -0.649176          -17.66498
     83       2.00000          -0.647492          -17.61915
     84       2.00000          -0.645673          -17.56967
     85       2.00000          -0.642671          -17.48797
     86       2.00000          -0.641566          -17.45790
     87       2.00000          -0.639105          -17.39092
     88       2.00000          -0.636578          -17.32217
     89       2.00000          -0.636011          -17.30675
     90       2.00000          -0.630310          -17.15159
     91       2.00000          -0.624565          -16.99527
     92       2.00000          -0.618502          -16.83030
     93       2.00000          -0.614496          -16.72129
     94       2.00000          -0.609548          -16.58665
     95       2.00000          -0.605080          -16.46507
     96       2.00000          -0.579624          -15.77236
     97       2.00000          -0.573771          -15.61310
     98       2.00000          -0.567312          -15.43734
     99       2.00000          -0.560845          -15.26136
    100       2.00000          -0.560628          -15.25546
    101       2.00000          -0.558255          -15.19089
    102       2.00000          -0.555234          -15.10870
    103       2.00000          -0.550759          -14.98690
    104       2.00000          -0.548298          -14.91994
    105       2.00000          -0.546969          -14.88377
    106       2.00000          -0.546638          -14.87479
    107       2.00000          -0.543805          -14.79769
    108       2.00000          -0.542516          -14.76260
    109       2.00000          -0.541315          -14.72994
    110       2.00000          -0.539365          -14.67687
    111       2.00000          -0.536724          -14.60500
    112       2.00000          -0.535217          -14.56399
    113       2.00000          -0.532515          -14.49048
    114       2.00000          -0.529797          -14.41652
    115       2.00000          -0.525402          -14.29693
    116       2.00000          -0.522321          -14.21309
    117       2.00000          -0.521542          -14.19189
    118       2.00000          -0.518327          -14.10441
    119       2.00000          -0.517134          -14.07194
    120       2.00000          -0.512553          -13.94727
    121       2.00000          -0.508416          -13.83470
    122       2.00000          -0.507802          -13.81799
    123       2.00000          -0.506612          -13.78561
    124       2.00000          -0.505906          -13.76641
    125       2.00000          -0.502188          -13.66523
    126       2.00000          -0.500321          -13.61443
    127       2.00000          -0.494984          -13.46919
    128       2.00000          -0.492385          -13.39849
    129       2.00000          -0.484952          -13.19623
    130       2.00000          -0.483687          -13.16178
    131       2.00000          -0.481368          -13.09870
    132       2.00000          -0.480727          -13.08125
    133       2.00000          -0.478441          -13.01904
    134       2.00000          -0.475225          -12.93152
    135       2.00000          -0.474440          -12.91017
    136       2.00000          -0.473412          -12.88219
    137       2.00000          -0.471108          -12.81950
    138       2.00000          -0.469765          -12.78295
    139       2.00000          -0.469068          -12.76399
    140       2.00000          -0.468694          -12.75380
    141       2.00000          -0.466370          -12.69058
    142       2.00000          -0.464912          -12.65089
    143       2.00000          -0.464583          -12.64195
    144       2.00000          -0.464264          -12.63327
    145       2.00000          -0.461980          -12.57111
    146       2.00000          -0.461210          -12.55017
    147       2.00000          -0.460419          -12.52863
    148       2.00000          -0.459735          -12.51002
    149       2.00000          -0.456933          -12.43377
    150       2.00000          -0.454410          -12.36514
    151       2.00000          -0.453485          -12.33995
    152       2.00000          -0.452138          -12.30330
    153       2.00000          -0.451522          -12.28654
    154       2.00000          -0.450822          -12.26748
    155       2.00000          -0.444313          -12.09036
    156       2.00000          -0.443907          -12.07932
    157       2.00000          -0.441562          -12.01550
    158       2.00000          -0.438786          -11.93998
    159       2.00000          -0.436789          -11.88565
    160       2.00000          -0.426890          -11.61626
    161       0.00000          -0.169806           -4.62065
    162       0.00000          -0.115757           -3.14991
    163       0.00000          -0.109274           -2.97350
    164       0.00000          -0.106534           -2.89894
    165       0.00000          -0.103279           -2.81035
    166       0.00000          -0.101129           -2.75185
    167       0.00000          -0.095314           -2.59362
    168       0.00000          -0.064927           -1.76674
    169       0.00000          -0.060428           -1.64433
    170       0.00000          -0.057674           -1.56940
    171       0.00000          -0.055587           -1.51260
    172       0.00000          -0.053829           -1.46475
    173       0.00000          -0.050917           -1.38552
    174       0.00000          -0.047339           -1.28817
    175       0.00000          -0.044651           -1.21501
    176       0.00000          -0.039359           -1.07100
    177       0.00000          -0.036372           -0.98973
    178       0.00000          -0.023759           -0.64651
    179       0.00000          -0.013482           -0.36686
    180       0.00000          -0.010124           -0.27548
    181       0.00000          -0.004034           -0.10977
    182       0.00000          -0.000832           -0.02265
    183       0.00000           0.002132            0.05801
    184       0.00000           0.003862            0.10508
    185       0.00000           0.007283            0.19817
    186       0.00000           0.011003            0.29940
    187       0.00000           0.016285            0.44313
    188       0.00000           0.027445            0.74681
    189       0.00000           0.029410            0.80027
    190       0.00000           0.035524            0.96665
    191       0.00000           0.040843            1.11138
    192       0.00000           0.043906            1.19474
    193       0.00000           0.045850            1.24763
    194       0.00000           0.049479            1.34640
    195       0.00000           0.052950            1.44085
    196       0.00000           0.056180            1.52873
    197       0.00000           0.057928            1.57630
    198       0.00000           0.059985            1.63226
    199       0.00000           0.066852            1.81914
    200       0.00000           0.071357            1.94172
    201       0.00000           0.072168            1.96378
    202       0.00000           0.073512            2.00036
    203       0.00000           0.076205            2.07365
    204       0.00000           0.078219            2.12845
    205       0.00000           0.082286            2.23910
    206       0.00000           0.084535            2.30031
    207       0.00000           0.085964            2.33921
    208       0.00000           0.090976            2.47558
    209       0.00000           0.091791            2.49775
    210       0.00000           0.094763            2.57864
    211       0.00000           0.096220            2.61828
    212       0.00000           0.099640            2.71135
    213       0.00000           0.101163            2.75278
    214       0.00000           0.105239            2.86371
    215       0.00000           0.108509            2.95267
    216       0.00000           0.111718            3.04000
    217       0.00000           0.117410            3.19488
    218       0.00000           0.117942            3.20936
    219       0.00000           0.119244            3.24480
    220       0.00000           0.122420            3.33123
    221       0.00000           0.125357            3.41114
    222       0.00000           0.129129            3.51378
    223       0.00000           0.134979            3.67297
    224       0.00000           0.138464            3.76779
    225       0.00000           0.145294            3.95365
    226       0.00000           0.146104            3.97568
    227       0.00000           0.156442            4.25700
    228       0.00000           0.157002            4.27224
    229       0.00000           0.163813            4.45759
    230       0.00000           0.170555            4.64103
    231       0.00000           0.173940            4.73315
    232       0.00000           0.176600            4.80552
    233       0.00000           0.182422            4.96395
    234       0.00000           0.191812            5.21946
    235       0.00000           0.198072            5.38980
    236       0.00000           0.204406            5.56218
    237       0.00000           0.208430            5.67168
    238       0.00000           0.215078            5.85257
    239       0.00000           0.217614            5.92158
    240       0.00000           0.221136            6.01741
    241       0.00000           0.227868            6.20061
    242       0.00000           0.233247            6.34697
    243       0.00000           0.242385            6.59564
    244       0.00000           0.249661            6.79363
    245       0.00000           0.254784            6.93302
    246       0.00000           0.257154            6.99751
    247       0.00000           0.268253            7.29953
    248       0.00000           0.271817            7.39652
    249       0.00000           0.274716            7.47541
    250       0.00000           0.286628            7.79954
    251       0.00000           0.288190            7.84205
    252       0.00000           0.297526            8.09610
    253       0.00000           0.299535            8.15076
    254       0.00000           0.302273            8.22527
    255       0.00000           0.310469            8.44829
    256       0.00000           0.316473            8.61167
    257       0.00000           0.319142            8.68430
    258       0.00000           0.325542            8.85844
    259       0.00000           0.331771            9.02794
[...]
  |    H      0     4.527807 A      4.527807 A        1.268855E-16 a.u.
  |    H      0     4.527807 A      4.583499 A       -4.900954E-17 a.u.
  |    H      0     4.527807 A      4.583499 A        4.713786E-16 a.u.
  |    H      2     3.678162 A  2.180220E+05 A            0.556529 a.u.
  |    H      1     3.958095 A  1.721251E+08 A            0.841931 a.u.
  |    H      0     4.527807 A  3.866455E+16 A            0.581436 a.u.
  |    O      0     2.043000 A      2.043000 A       -1.436841E-16 a.u.
  |    O      3     3.498446 A      3.498446 A        3.043453E-17 a.u.
  |    O      3     3.498446 A      3.498446 A        1.541443E-16 a.u.
  |    O      0     3.905335 A      3.905335 A        2.173090E-16 a.u.
  |    O      0     3.905335 A      3.905335 A        7.213445E-17 a.u.
  |    O      0     4.101052 A      4.101052 A        2.361718E-16 a.u.
  |    O      1     4.101052 A      4.101052 A        3.235185E-17 a.u.
  |    O      0     4.359549 A      4.359549 A       -5.329475E-17 a.u.
  |    O      1     4.413171 A      4.413171 A        3.261883E-17 a.u.
  |    O      1     4.522403 A      4.522403 A        6.417997E-16 a.u.
  |    O      1     4.522403 A      4.522403 A        4.224783E-16 a.u.
  |    O      2     4.522403 A      4.522403 A       -4.387647E-16 a.u.
  |    O      0     4.522403 A      4.578029 A        2.602039E-16 a.u.
  |    O      0     4.578029 A      4.578029 A        1.226235E-16 a.u.
  |    O      1     4.578029 A      4.578029 A       -6.107316E-16 a.u.
  |    O      1     4.578029 A      4.578029 A       -2.224438E-16 a.u.
  |    O      2     4.578029 A      4.578029 A       -7.020279E-16 a.u.
  |    O      2     4.522403 A      4.578029 A        1.323470E-15 a.u.
  |    O      2     4.578029 A      4.578029 A        7.923696E-16 a.u.
  |    O      2     4.522403 A      4.578029 A       -9.951815E-16 a.u.
  |    O      0     4.578029 A      4.634338 A       -8.813582E-18 a.u.
  |    O      1     4.578029 A      4.634338 A       -3.325386E-17 a.u.
  |    O      1     4.634338 A      4.634338 A        9.588032E-16 a.u.
  |    O      2     4.578029 A      4.634338 A        1.064715E-17 a.u.
  |    O      2     4.578029 A      4.634338 A       -3.770343E-15 a.u.
  |    O      4     3.251020 A  1.511584E+03 A            1.513372 a.u.
  |    O      3     3.541477 A  1.434166E+04 A            4.293220 a.u.
  |    O      2     4.634338 A  5.584435E+05 A            9.352428 a.u.
  |    O      1     4.634338 A  2.821283E+08 A            2.261940 a.u.
  |    O      0     4.578029 A  4.264100E+16 A            0.641234 a.u.

  | Shrink_full_auxil_basis : there are       38  radial auxiliary wave functions
                            accepted and       5 rejected.
  | Shrink_full_auxil_basis : there are totally                4544 partial auxiliary wave functions.
 
  | Maximal number of product basis functions per thread :   256   256
 
  | Minimal total memory requirement for three-center overlap :      10.450 Gbs
  | Number of local auxiliary basis functions on task:      0   256
  | Number of local auxiliary basis functions on task:      1   256
  | Number of local auxiliary basis functions on task:      2   256
  | Number of local auxiliary basis functions on task:      3   256
  | Number of local auxiliary basis functions on task:      4   256
  | Number of local auxiliary basis functions on task:      5   256
  | Number of local auxiliary basis functions on task:      6   256
  | Number of local auxiliary basis functions on task:      7   256
  | Number of local auxiliary basis functions on task:      8   256
  | Number of local auxiliary basis functions on task:      9   256
  | Number of local auxiliary basis functions on task:     10   256
  | Number of local auxiliary basis functions on task:     11   256
  | Number of local auxiliary basis functions on task:     12   256
  | Number of local auxiliary basis functions on task:     13   256
  | Number of local auxiliary basis functions on task:     14   240
  | Number of local auxiliary basis functions on task:     15   240
  | Number of local auxiliary basis functions on task:     16   240
  | Number of local auxiliary basis functions on task:     17   240
  | 2D aux task distribution:      3 X      6
  | 2D block size (nb_aux_2d):     64
 
  Basis pair condensation :    295296  -->     218695
 
 --------------------------------------------
  Constructing auxiliary basis (full product) ...
 
  Product basis:
  | charge radius: extent of product basis function
  | field radius: extent of its Coulomb potential
  | Species   l  charge radius    field radius  multipol momen
  |    H      1     3.910002 A      3.910002 A       -2.487223E-16 a.u.
  |    H      1     3.958095 A      3.958095 A       -2.441841E-16 a.u.
  |    H      0     4.527807 A      4.527807 A        1.268855E-16 a.u.
  |    H      0     4.527807 A      4.583499 A       -4.900954E-17 a.u.
  |    H      0     4.527807 A      4.583499 A        4.713786E-16 a.u.
  |    H      2     3.678162 A  2.180220E+05 A            0.556529 a.u.
  |    H      1     3.958095 A  1.721251E+08 A            0.841931 a.u.
  |    H      0     4.527807 A  3.866455E+16 A            0.581436 a.u.
  |    O      0     2.043000 A      2.043000 A       -1.436841E-16 a.u.
  |    O      3     3.498446 A      3.498446 A        3.043453E-17 a.u.
  |    O      3     3.498446 A      3.498446 A        1.541443E-16 a.u.
  |    O      0     3.905335 A      3.905335 A        2.173090E-16 a.u.
  |    O      0     3.905335 A      3.905335 A        7.213445E-17 a.u.
  |    O      0     4.101052 A      4.101052 A        2.361718E-16 a.u.
  |    O      1     4.101052 A      4.101052 A        3.235185E-17 a.u.
  |    O      0     4.359549 A      4.359549 A       -5.329475E-17 a.u.
  |    O      1     4.413171 A      4.413171 A        3.261883E-17 a.u.
  |    O      1     4.522403 A      4.522403 A        6.417997E-16 a.u.
  |    O      1     4.522403 A      4.522403 A        4.224783E-16 a.u.
  |    O      2     4.522403 A      4.522403 A       -4.387647E-16 a.u.
  |    O      0     4.522403 A      4.578029 A        2.602039E-16 a.u.
  |    O      0     4.578029 A      4.578029 A        1.226235E-16 a.u.
  |    O      1     4.578029 A      4.578029 A       -6.107316E-16 a.u.
  |    O      1     4.578029 A      4.578029 A       -2.224438E-16 a.u.
  |    O      2     4.578029 A      4.578029 A       -7.020279E-16 a.u.
  |    O      2     4.522403 A      4.578029 A        1.323470E-15 a.u.
  |    O      2     4.578029 A      4.578029 A        7.923696E-16 a.u.
  |    O      2     4.522403 A      4.578029 A       -9.951815E-16 a.u.
  |    O      0     4.578029 A      4.634338 A       -8.813582E-18 a.u.
  |    O      1     4.578029 A      4.634338 A       -3.325386E-17 a.u.
  |    O      1     4.634338 A      4.634338 A        9.588032E-16 a.u.
  |    O      2     4.578029 A      4.634338 A        1.064715E-17 a.u.
  |    O      2     4.578029 A      4.634338 A       -3.770343E-15 a.u.
  |    O      4     3.251020 A  1.511584E+03 A            1.513372 a.u.
  |    O      3     3.541477 A  1.434166E+04 A            4.293220 a.u.
  |    O      2     4.634338 A  5.584435E+05 A            9.352428 a.u.
  |    O      1     4.634338 A  2.821283E+08 A            2.261940 a.u.
  |    O      0     4.578029 A  4.264100E+16 A            0.641234 a.u.

  | Shrink_full_auxil_basis : there are       38  radial auxiliary wave functions
                            accepted and       5 rejected.
  | Shrink_full_auxil_basis : there are totally                4544 partial auxiliary wave functions.
 
  | Maximal number of product basis functions per thread :   256   256
 
  | Minimal total memory requirement for three-center overlap :      10.450 Gbs
  | Number of local auxiliary basis functions on task:      0   256
  | Number of local auxiliary basis functions on task:      1   256
  | Number of local auxiliary basis functions on task:      2   256
  | Number of local auxiliary basis functions on task:      3   256
  | Number of local auxiliary basis functions on task:      4   256
  | Number of local auxiliary basis functions on task:      5   256
  | Number of local auxiliary basis functions on task:      6   256
  | Number of local auxiliary basis functions on task:      7   256
  | Number of local auxiliary basis functions on task:      8   256
  | Number of local auxiliary basis functions on task:      9   256
  | Number of local auxiliary basis functions on task:     10   256
  | Number of local auxiliary basis functions on task:     11   256
  | Number of local auxiliary basis functions on task:     12   256
  | Number of local auxiliary basis functions on task:     13   256
  | Number of local auxiliary basis functions on task:     14   240
  | Number of local auxiliary basis functions on task:     15   240
  | Number of local auxiliary basis functions on task:     16   240
  | Number of local auxiliary basis functions on task:     17   240
  | 2D aux task distribution:      3 X      6
  | 2D block size (nb_aux_2d):     64
 
  Basis pair condensation :    295296  -->     218695
dP_dE (Bohr^3) at every cycle:--->
 (348.776699345689,0.000000000000000E+000) (-1.40665946161497,0.000000000000000E+000) (0.480414771877931,0.000000000000000E+000)
 (-1.40925002231765,0.000000000000000E+000) (339.453837144832,0.000000000000000E+000) (15.3758805167125,0.000000000000000E+000)
 (0.487251139654423,0.000000000000000E+000) (15.3752936138866,0.000000000000000E+000) (336.066559973837,0.000000000000000E+000)
DFPT polarizability (Bohr^3)        xx        yy        zz        xy        xz        yz
  | Polarizability:--->                       348.776699346                  339.453837145                  336.066559974                   -1.406659462                    0.480414772                   15.375880517

DFPT for dielectric_constant:--->  # PARSE DFPT_dielectric_tensor
               1.657516999742310            -0.002651847186453             0.000905682289068
              -0.002656730935006             1.639941455289889             0.028986749529746
               0.000918570271660             0.028985643095211             1.633555729618002

                                               :  max(cpu_time)    wall_clock(cpu1)
  | Time for  dielectric calculation            :        0.001 s           0.000 s
===========================================================================

------------------------------------------------------------------------------
  Final output of selected total energy values:

  The following output summarizes some interesting total energy values
  at the end of a run (AFTER all relaxation, molecular dynamics, etc.).

  | Total energy of the DFT / Hartree-Fock s.c.f. calculation      :         -66111.605913883 eV
  | Final zero-broadening corrected energy (caution - metals only) :         -66111.605913883 eV
  | For reference only, the value of 1 Hartree used in FHI-aims is :             27.211384500 eV
  | For reference only, the overall average (free atom contribution
  | + realspace contribution) of the electrostatic potential after
  | s.c.f. convergence is                                          :             -4.849409977 eV

  Before relying on these values, please be sure to understand exactly which
  total energy value is referred to by a given number. Different objects may
  all carry the same name 'total energy'. Definitions:

  Total energy of the DFT / Hartree-Fock s.c.f. calculation:
  | Note that this energy does not include ANY quantities calculated after the
  | s.c.f. cycle, in particular not ANY RPA, MP2, etc. many-body perturbation terms.

  Final zero-broadening corrected energy:
  | For metallic systems only, a broadening of the occupation numbers at the Fermi
  | level can be extrapolated back to zero broadening by an electron-gas inspired
  | formula. For all systems that are not real metals, this value can be
  | meaningless and should be avoided.

------------------------------------------------------------------------------
  Methods described in the following list of references were used in this FHI-aims run.
  If you publish the results, please make sure to cite these reference if they apply.
  FHI-aims is an academic code, and for our developers (often, Ph.D. students
  and postdocs), scientific credit in the community is essential.
  Thank you for helping us!

  For any use of FHI-aims, please cite:

    Volker Blum, Ralf Gehrke, Felix Hanke, Paula Havu, Ville Havu,
    Xinguo Ren, Karsten Reuter, and Matthias Scheffler
    'Ab initio molecular simulations with numeric atom-centered orbitals'
    Computer Physics Communications 180, 2175-2196 (2009)
    http://doi.org/10.1016/j.cpc.2009.06.022


  For Hartree-Fock, hybrid functionals, or many-body perturbation theory used in your run, please cite:

    Xinguo Ren, Patrick Rinke, Volker Blum, Juergen Wieferink, Alex Tkatchenko,
    Andrea Sanfilippo, Karsten Reuter, and Matthias Scheffler,
    'Resolution-of-identity approach to Hartree-Fock, hybrid density functionals,
    RPA, MP2, and GW with numeric atom-centered orbital basis functions'
    New Journal of Physics 14, 053020 (2012).
    http://doi.org/10.1088/1367-2630/14/5/053020


  The provided symmetry information was generated with SPGlib:

    Atsushi Togo, Yusuke Seto, Dimitar Pashov
    SPGlib 1.7.3 obtained from http://spglib.sourceforge.net
    Copyright (C) 2008 Atsushi Togo


  The DFPT (perturbation by an electric field) part of the code was used.
  Here is the corresponding reference:

    Honghui Shang, Nathaniel Raimbault, Mariana Rossi,
    Christian Carbogno, Patrick Rinke and Matthias Scheffler,
    'All-Electron, Real-Space Perturbation Theory for Homogeneous
    Electric Fields: Theory, Implementation, and Application within dft'
    New Journal of Physics, 20(7):073040, 2018


  The ELSI infrastructure was used in your run to solve the Kohn-Sham electronic structure.
  Please check out http://elsi-interchange.org to learn more.
  If scalability is important for your project, please acknowledge ELSI by citing:

    V. W-z. Yu, F. Corsetti, A. Garcia, W. P. Huhn, M. Jacquelin, W. Jia,
    B. Lange, L. Lin, J. Lu, W. Mi, A. Seifitokaldani, A. Vazquez-Mayagoitia,
    C. Yang, H. Yang, and V. Blum
    'ELSI: A unified software interface for Kohn-Sham electronic structure solvers'
    Computer Physics Communications 222, 267-285 (2018).
    http://doi.org/10.1016/j.cpc.2017.09.007


  For the real-space grid partitioning and parallelization used in this calculation, please cite:

    Ville Havu, Volker Blum, Paula Havu, and Matthias Scheffler,
    'Efficient O(N) integration for all-electron electronic structure calculation'
    'using numerically tabulated basis functions'
    Journal of Computational Physics 228, 8367-8379 (2009).
    http://doi.org/10.1016/j.jcp.2009.08.008


  The high-level electronic structure method used in your calculation
  employed our efficient localized resolution of identity for the Coulomb operator.
  Some calculations, especially large-scale hybrid density functional theory,
  are only possible thanks to this development. For this feature, please cite:

    Arvid Ihrig, Juergen Wieferink, Igor Ying Zhang, Matti Ropo, Xinguo Ren,
    Patrick Rinke, Matthias Scheffler, and Volker Blum,
    'Accurate localized resolution of identity approach for linear-scaling
    hybrid density functionals and for many-body perturbation theory'
    New Journal of Physics 117, 093020 (2015).
    http://doi.org/10.1088/1367-2630/17/9/093020

  Of course, there are many other important community references, e.g., those cited in the
  above references. Our list is limited to references that describe implementations in the
  FHI-aims code. The reason is purely practical (length of this list) - please credit others as well.

------------------------------------------------------------
          Leaving FHI-aims.
          Date     :  20230221, Time     :  152741.778

          Computational steps:
          | Number of self-consistency cycles          :           45
          | Number of SCF (re)initializations          :            1
          | Number of coupled perturbed self-consistency cycles          :            0
          | Number of CPSCF (re)initializations          :            0

          Detailed time accounting                     :  max(cpu_time)    wall_clock(cpu1)
          | Total time                                  :      463.225 s         474.060 s
          | GPU initialization                          :        2.095 s           9.559 s
          | Preparation time                            :        0.070 s           0.066 s
          | Boundary condition initalization            :        1.265 s           1.265 s
          | Grid partitioning                           :        0.391 s           0.391 s
          | Preloading free-atom quantities on grid     :        2.305 s           2.306 s
          | Free-atom superposition energy              :        0.305 s           0.305 s
          | Total time for integrations                 :       11.935 s          12.101 s
          | Product basis setup: Total time             :        0.000 s           0.000 s
          | Product basis: | 2-center integrations     :(       0.000 s)  (       0.000 s)
          | Product basis: | LVL 3-center & coefficient:(       0.000 s)  (       0.000 s)
          | Total time for solution of K.-S. equations  :        2.256 s           4.565 s
          | Total time for density update               :        8.332 s           8.624 s
          | Total time for mixing & preconditioning     :        8.693 s           8.695 s
          | Total time for Hartree multipole update     :        0.103 s           0.103 s
          | Total time for Hartree multipole sum        :       35.702 s          35.720 s
          | Total time for total energy evaluation      :        0.006 s           0.010 s
          | Total time for DFPT                         :      389.068 s         389.217 s
          | Total time first_order_DM                   :        0.326 s           0.328 s
          | Total time first_order_density              :       81.087 s          81.104 s
          | Total time first_order_potential            :       53.427 s          53.451 s
          | Total time first_order_H                    :      161.506 s         161.564 s
          | Total time solving of Sternheimer equations :        0.212 s           0.209 s
          | Total time for dielectric constant          :        0.001 s           0.000 s
          | Total time momentum matrix                  :        0.000 s           0.000 s

          GPU acceleration has been used for charge density update.
          GPU acceleration has been used for real-space Hamiltonian integration.
          Due to GPU usage, wall_clock(cpu1) will give a more reliable estimate for timings.

          Partial memory accounting:
          | Residual value for overall tracked memory usage across tasks:     0.000000 MB (should be 0.000000 MB)
          | Peak values for overall tracked memory usage:
          |   Minimum:      115.268 MB (on task  0 after allocating DFPT_pulay_mixing::pulay_mix::alphas)
          |   Maximum:      115.268 MB (on task  0 after allocating DFPT_pulay_mixing::pulay_mix::alphas)
          |   Average:      115.268 MB
          | Largest tracked array allocation:
          |   Minimum:       41.108 MB (DFPT_pulay_mixing::initialize_pulay_mixing::X_in_diffs on task  0)
          |   Maximum:       41.108 MB (DFPT_pulay_mixing::initialize_pulay_mixing::X_in_diffs on task  0)
          |   Average:       41.108 MB
          Note:  These values currently only include a subset of arrays which are explicitly tracked.
          The "true" memory usage will be greater.

          Have a nice day.
------------------------------------------------------------
