------------------------------------------------------------
          Invoking FHI-aims ...

          When using FHI-aims, please cite the following reference:

            Volker Blum, Ralf Gehrke, Felix Hanke, Paula Havu,
            Ville Havu, Xinguo Ren, Karsten Reuter, and Matthias Scheffler,
            'Ab Initio Molecular Simulations with Numeric Atom-Centered Orbitals',
            Computer Physics Communications 180, 2175-2196 (2009)

          In addition, many other developments in FHI-aims are likely important for
          your particular application. A partial list of references is given at the end of
          this file. Thank you for giving credit to the authors of these developments.

          For any questions about FHI-aims, please visit our slack channel at

            https://fhi-aims.slack.com

          and our main development and support site at

            https://aims-git.rz-berlin.mpg.de .

          The latter site, in particular, has a wiki to collect information, as well
          as an issue tracker to log discussions, suggest improvements, and report issues
          or bugs. https://aims-git.rz-berlin.mpg.de is also the main development site
          of the project and all new and updated code versions can be obtained there.
          Please send an email to aims-coordinators@fhi-berlin.mpg.de and we will add
          you to these sites. They are for you and everyone is welcome there.

------------------------------------------------------------



  Date     :  20230221, Time     :  143302.519
  Time zero on CPU 1             :   0.368018000000000E+00  s.
  Internal wall clock time zero  :           446221982.519  s.

  FHI-aims created a unique identifier for this run for later identification
  aims_uuid : 5E3261FD-8C11-4517-AFFC-E029E0E3AF5D

  Build configuration of the current instance of FHI-aims
  -------------------------------------------------------
  FHI-aims version      : 221103
  Commit number         : 42523251a
  CMake host system     : Linux-5.3.18-150300.59.68-default
  CMake version         : 3.17.0
  Fortran compiler      : /mpcdf/soft/SLE_15/packages/x86_64/intel_oneapi/2021.3/mpi/2021.3.0/bin/mpiifort (Intel) version 20.2.3.20210609
  Fortran compiler flags: -O3 -ip -fp-model precise
  C compiler            : /mpcdf/soft/SLE_15/packages/x86_64/intel/2021.3.0/bin/icc (Intel) version 20.2.3.20210609
  C compiler flags      : -O3 -ip -fp-model precise -std=gnu99
  CUDA compiler         : /mpcdf/soft/SLE_15/packages/x86_64/cuda/11.6.2/bin/nvcc
  CUDA compiler flags   : -O3 -DAdd_ -lcublas
  HIP compiler          :
  HIP compiler flags    :
  HIP GPU arch          :
  ELPA2 kernel          : AVX512
  Using MPI
  Using ScaLAPACK
  Using LibXC
  Using CUDA
  Using i-PI
  Using RLSY
  Linking against: /mpcdf/soft/SLE_15/packages/x86_64/cuda/11.6.2/lib64/libcublas.so
                   /mpcdf/soft/SLE_15/packages/x86_64/cuda/11.6.2/lib64/libcudart.so
                   /mpcdf/soft/SLE_15/packages/x86_64/intel_oneapi/2021.3/mkl/latest/lib/intel64/libmkl_intel_lp64.so
                   /mpcdf/soft/SLE_15/packages/x86_64/intel_oneapi/2021.3/mkl/latest/lib/intel64/libmkl_sequential.so
                   /mpcdf/soft/SLE_15/packages/x86_64/intel_oneapi/2021.3/mkl/latest/lib/intel64/libmkl_core.so
                   /mpcdf/soft/SLE_15/packages/x86_64/intel_oneapi/2021.3/mkl/latest/lib/intel64/libmkl_blacs_intelmpi_lp64.so
                   /mpcdf/soft/SLE_15/packages/x86_64/intel_oneapi/2021.3/mkl/latest/lib/intel64/libmkl_scalapack_lp64.so

  Using       18 parallel tasks.
  Task        0 on host adag038 reporting.
  Task        1 on host adag038 reporting.
  Task        2 on host adag038 reporting.
  Task        3 on host adag038 reporting.
  Task        4 on host adag038 reporting.
  Task        5 on host adag038 reporting.
  Task        6 on host adag038 reporting.
  Task        7 on host adag038 reporting.
  Task        8 on host adag038 reporting.
  Task        9 on host adag038 reporting.
  Task       10 on host adag038 reporting.
  Task       11 on host adag038 reporting.
  Task       12 on host adag038 reporting.
  Task       13 on host adag038 reporting.
  Task       14 on host adag038 reporting.
  Task       15 on host adag038 reporting.
  Task       16 on host adag038 reporting.
  Task       17 on host adag038 reporting.

  Obtaining array dimensions for all initial allocations:
  
  -----------------------------------------------------------------------
  Parsing control.in (first pass over file, find array dimensions only).
  The contents of control.in will be repeated verbatim below
  unless switched off by setting 'verbatim_writeout .false.' .
  in the first line of control.in .
  -----------------------------------------------------------------------
  
  #########################################################################################
  #
  #  Volker Blum, 2017 : Test run input file control.in for simple H2O
  #
  #########################################################################################
  #
  #  Physical model
  #
    xc                 pw-lda
    spin               none
    relativistic       none
    charge             0.
  
    use_gpu
  
    DFPT dielectric
    ri_density_restart write
    ri_rho1 write
  #  ri_density_restart read 0
  #  ri_rho1 read
    ri_full_output .true.
    sc_accuracy_rho    1d-6
  #  use_calculate_fock_matrix_old .false.
  #  wave_threshold 1e-8
    k_grid 1 1 1
  #  output cube eigenstate 160
  #  output cube eigenstate 161
    wave_threshold 1e-8
    default_prodbas_acc 1e-6
    default_max_l_prodbas 6
  #
  #  Relaxation
  #
  #  relax_geometry   bfgs 1.e-2
  #
  
  ################################################################################
  
  
  ################################################################################
  #
  #  FHI-aims code project
  #  VB, Fritz-Haber Institut, 2009
  #
  #  Suggested "light" defaults for H atom (to be pasted into control.in file)
  #  Be sure to double-check any results obtained with these settings for post-processing,
  #  e.g., with the "tight" defaults and larger basis sets.
  #
  ################################################################################
    species        H
  #     global species definitions
      nucleus             1
      mass                1.00794
  #
      l_hartree           4
  #
      cut_pot             3.5  1.5  1.0
      basis_dep_cutoff    1e-4
  #
      radial_base         24 5.0
      radial_multiplier   1
      angular_grids       specified
        division   0.2421   50
        division   0.3822  110
        division   0.4799  194
        division   0.5341  302
  #      division   0.5626  434
  #      division   0.5922  590
  #      division   0.6542  770
  #      division   0.6868 1202
  #      outer_grid  770
        outer_grid  302
  ################################################################################
  #
  #  Definition of "minimal" basis
  #
  ################################################################################
  #     valence basis states
      valence      1  s   1.
  #     ion occupancy
      ion_occ      1  s   0.5
  ################################################################################
  #
  #  Suggested additional basis functions. For production calculations,
  #  uncomment them one after another (the most important basis functions are
  #  listed first).
  #
  #  Basis constructed for dimers: 0.5 A, 0.7 A, 1.0 A, 1.5 A, 2.5 A
  #
  ################################################################################
  #  "First tier" - improvements: -1014.90 meV to -62.69 meV
       hydro 2 s 2.1
       hydro 2 p 3.5
  #  "Second tier" - improvements: -12.89 meV to -1.83 meV
  #     hydro 1 s 0.85
  #     hydro 2 p 3.7
  #     hydro 2 s 1.2
  #     hydro 3 d 7
  #  "Third tier" - improvements: -0.25 meV to -0.12 meV
  #     hydro 4 f 11.2
  #     hydro 3 p 4.8
  #     hydro 4 d 9
  #     hydro 3 s 3.2
  ################################################################################
  #
  #  FHI-aims code project
  #  VB, Fritz-Haber Institut, 2009
  #
  #  Suggested "light" defaults for O atom (to be pasted into control.in file)
  #  Be sure to double-check any results obtained with these settings for post-processing,
  #  e.g., with the "tight" defaults and larger basis sets.
  #
  ################################################################################
    species        O
  #     global species definitions
      nucleus             8
      mass                15.9994
  #
      l_hartree           4
  #
      cut_pot             3.5  1.5  1.0
      basis_dep_cutoff    1e-4
  #
      radial_base         36 5.0
      radial_multiplier   1
       angular_grids specified
        division   0.2659   50
        division   0.4451  110
        division   0.6052  194
        division   0.7543  302
  #      division   0.8014  434
  #      division   0.8507  590
  #      division   0.8762  770
  #      division   0.9023  974
  #      division   1.2339 1202
  #      outer_grid 974
        outer_grid 302
  ################################################################################
  #
  #  Definition of "minimal" basis
  #
  ################################################################################
  #     valence basis states
      valence      2  s   2.
      valence      2  p   4.
  #     ion occupancy
      ion_occ      2  s   1.
      ion_occ      2  p   3.
  ################################################################################
  #
  #  Suggested additional basis functions. For production calculations,
  #  uncomment them one after another (the most important basis functions are
  #  listed first).
  #
  #  Constructed for dimers: 1.0 A, 1.208 A, 1.5 A, 2.0 A, 3.0 A
  #
  ################################################################################
  #  "First tier" - improvements: -699.05 meV to -159.38 meV
       hydro 2 p 1.8
       hydro 3 d 7.6
       hydro 3 s 6.4
  #  "Second tier" - improvements: -49.91 meV to -5.39 meV
  #     hydro 4 f 11.6
  #     hydro 3 p 6.2
  #     hydro 3 d 5.6
  #     hydro 5 g 17.6
  #     hydro 1 s 0.75
  #  "Third tier" - improvements: -2.83 meV to -0.50 meV
  #     ionic 2 p auto
  #     hydro 4 f 10.8
  #     hydro 4 d 4.7
  #     hydro 2 s 6.8
  #  "Fourth tier" - improvements: -0.40 meV to -0.12 meV
  #     hydro 3 p 5
  #     hydro 3 s 3.3
  #     hydro 5 g 15.6
  #     hydro 4 f 17.6
  #     hydro 4 d 14
  # Further basis functions - -0.08 meV and below
  #     hydro 3 s 2.1
  #     hydro 4 d 11.6
  #     hydro 3 p 16
  #     hydro 2 s 17.2
  
  -----------------------------------------------------------------------
  Completed first pass over input file control.in .
  -----------------------------------------------------------------------
  
  
  -----------------------------------------------------------------------
  Parsing geometry.in (first pass over file, find array dimensions only).
  The contents of geometry.in will be repeated verbatim below
  unless switched off by setting 'verbatim_writeout .false.' .
  in the first line of geometry.in .
  -----------------------------------------------------------------------
  
  #=======================================================
  # FHI-aims file: /ada/ptmp/mpsd/alewis/bulk_water/qmdata/data/geoms/294.in
  # Created using the Atomic Simulation Environment (ASE)
  # Tue Feb 21 11:23:37 2023
  #=======================================================
  lattice_vector 9.7685999999999993 0.0000000000000000 0.0000000000000000
  lattice_vector 0.0000000000000000 9.7685999999999993 0.0000000000000000
  lattice_vector 0.0000000000000000 0.0000000000000000 9.7685999999999993
  atom 12.8795000000000002 13.1312999999999995 -0.5178670000000000 O
  atom 12.3619000000000003 13.8476999999999997 -1.1043200000000000 H
  atom 13.6301000000000005 12.8252000000000006 -0.9672500000000001 H
  atom 2.9041199999999998 20.7060999999999993 -2.5763500000000001 O
  atom 2.0579800000000001 20.7637000000000000 -2.9568200000000000 H
  atom 2.7095099999999999 21.2805000000000000 -1.7843599999999999 H
  atom 17.7165999999999997 11.2423999999999999 -1.7528600000000001 O
  atom 18.4732999999999983 11.6198999999999995 -1.9745600000000001 H
  atom 17.1002000000000010 11.9954999999999998 -1.6892400000000001 H
  atom 3.6341100000000002 6.6740700000000004 -13.8153000000000006 O
  atom 4.4025800000000004 6.9639899999999999 -14.3277999999999999 H
  atom 3.5464799999999999 5.7382499999999999 -13.8671000000000006 H
  atom -13.0667000000000009 4.8676399999999997 26.2545999999999999 O
  atom -12.3810000000000002 5.2793400000000004 26.8144999999999989 H
  atom -13.1079000000000008 5.4402699999999999 25.5471000000000004 H
  atom 6.5652999999999997 9.6890699999999992 4.2157299999999998 O
  atom 5.8825399999999997 10.2187999999999999 4.1314599999999997 H
  atom 6.6878399999999996 9.5124800000000000 5.0697400000000004 H
  atom -5.8184300000000002 1.1629100000000001 4.5000299999999998 O
  atom -5.8895099999999996 0.9594240000000001 5.3962700000000003 H
  atom -6.5992199999999999 0.8651040000000000 4.0497500000000004 H
  atom -12.3829999999999991 -13.0069999999999997 -0.5057960000000000 O
  atom -11.8656000000000006 -12.1029999999999998 -0.3253680000000000 H
  atom -13.3615999999999993 -12.9114000000000004 -0.7819540000000000 H
  atom 10.4100000000000001 -8.0977700000000006 9.7048900000000007 O
  atom 10.6659000000000006 -7.5641900000000000 8.9154199999999992 H
  atom 11.0246999999999993 -8.6314600000000006 10.0980000000000008 H
  atom 3.0830099999999998 -5.3325500000000003 1.8584799999999999 O
  atom 3.3551700000000002 -4.4695799999999997 1.4519100000000000 H
  atom 2.9867900000000001 -5.5891700000000002 0.9715870000000000 H
  atom -4.2077299999999997 2.7926099999999998 8.2540499999999994 O
  atom -4.0641999999999996 3.4970800000000000 7.4094800000000003 H
  atom -4.4500900000000003 1.9887100000000000 7.9305800000000000 H
  atom 1.7607800000000000 -9.8594500000000007 -16.1978000000000009 O
  atom 0.8753430000000000 -9.7847200000000001 -16.5317000000000007 H
  atom 1.7953200000000000 -10.9146999999999998 -15.9108999999999998 H
  atom 0.7602190000000000 9.5732300000000006 -3.3106100000000001 O
  atom 0.3634370000000000 8.6420999999999992 -3.1549100000000001 H
  atom 0.8205350000000000 9.5707400000000007 -4.2620699999999996 H
  atom -0.6678850000000000 3.2433800000000002 11.7825000000000006 O
  atom -0.4615270000000000 2.7795399999999999 10.9145000000000003 H
  atom -1.2910600000000001 3.8976999999999999 11.8015000000000008 H
  atom -10.6572999999999993 -9.0588300000000004 -16.5804000000000009 O
  atom -11.6298999999999992 -9.2384900000000005 -16.0425000000000004 H
  atom -10.5022000000000002 -8.1723700000000008 -16.6618999999999993 H
  atom 10.4359000000000002 27.1235999999999997 19.7063999999999986 O
  atom 9.6312499999999996 27.6216000000000008 19.7798000000000016 H
  atom 11.3264999999999993 27.4850999999999992 19.9207000000000001 H
  atom -8.0399999999999991 -4.1831199999999997 8.1718399999999995 O
  atom -8.4404900000000005 -3.8655200000000001 8.9567700000000006 H
  atom -8.6004199999999997 -3.6563400000000001 7.4331199999999997 H
  atom 2.3563600000000000 7.0685399999999996 32.6056000000000026 O
  atom 2.9030499999999999 6.8239500000000000 33.5020999999999987 H
  atom 1.4005099999999999 6.5252100000000004 32.6056999999999988 H
  atom -4.3626600000000000 22.5381999999999998 1.7294900000000000 O
  atom -4.3932300000000000 22.7615000000000016 0.7792060000000000 H
  atom -5.1927899999999996 22.7363000000000000 2.0071099999999999 H
  atom -6.4773100000000001 -5.8103499999999997 -4.6118499999999996 O
  atom -7.3287899999999997 -5.4353199999999999 -5.0110599999999996 H
  atom -6.1571600000000002 -6.6121200000000000 -4.8396900000000000 H
  atom 16.8669000000000011 -1.0094099999999999 -2.8752100000000000 O
  atom 17.4111000000000011 -0.3911440000000000 -2.4846300000000001 H
  atom 16.0045999999999999 -1.0210699999999999 -2.4036000000000000 H
  atom 10.1252999999999993 32.8196000000000012 17.1301999999999985 O
  atom 9.8529400000000003 32.7824999999999989 16.2821999999999996 H
  atom 10.6128000000000000 33.6681999999999988 17.2656999999999989 H
  atom 7.1534500000000003 14.9840999999999998 11.6477000000000004 O
  atom 6.3441999999999998 14.4212000000000007 11.9928000000000008 H
  atom 7.3009000000000004 15.0387000000000004 10.6548999999999996 H
  atom -4.9643600000000001 7.0933700000000002 8.1882199999999994 O
  atom -5.3421900000000004 6.9454399999999996 7.2232200000000004 H
  atom -5.6983100000000002 7.3175999999999997 8.8213600000000003 H
  atom 14.0564000000000000 -2.7624200000000001 11.1013000000000002 O
  atom 13.3943999999999992 -2.3709099999999999 11.6446000000000005 H
  atom 14.5975999999999999 -2.0794500000000000 10.6675000000000004 H
  atom -0.4821930000000000 -12.5239999999999991 -3.9360900000000001 O
  atom -1.3258300000000001 -12.0990000000000002 -3.6339899999999998 H
  atom -0.6955730000000000 -12.5068000000000001 -4.8267400000000000 H
  atom -14.1478999999999999 9.6555000000000000 30.0691999999999986 O
  atom -13.2311999999999994 9.5668199999999999 30.0518000000000001 H
  atom -14.4635999999999996 10.4753000000000007 30.6609000000000016 H
  atom 6.0955199999999996 -2.7654299999999998 4.6158200000000003 O
  atom 6.4324199999999996 -3.2639300000000002 3.7546700000000000 H
  atom 6.1035000000000004 -1.8371200000000001 4.4011899999999997 H
  atom 12.2692999999999994 9.6027199999999997 -8.9415300000000002 O
  atom 12.0648000000000000 9.6506000000000007 -8.0548300000000008 H
  atom 13.2006999999999994 9.8694400000000009 -9.0876999999999999 H
  atom 1.0931299999999999 4.5364599999999999 -6.2676100000000003 O
  atom 1.6752199999999999 4.8584600000000000 -6.9005099999999997 H
  atom 0.3870860000000000 4.2058299999999997 -6.9576599999999997 H
  atom 27.9087999999999994 -10.2248000000000001 20.0131000000000014 O
  atom 28.0848000000000013 -9.5823199999999993 19.4684999999999988 H
  atom 28.3014000000000010 -9.8434799999999996 20.8744000000000014 H
  atom 9.3377199999999991 7.2104999999999997 -6.9368600000000002 O
  atom 8.6289200000000008 6.4504999999999999 -7.0693599999999996 H
  atom 9.5987500000000008 7.3257399999999997 -7.8867000000000003 H
  
  -----------------------------------------------------------------------
  Completed first pass over input file geometry.in .
  -----------------------------------------------------------------------
  

  Basic array size parameters:
  | Number of species                 :        2
  | Number of atoms                   :       96
  | Number of lattice vectors         :        3
  | Max. basis fn. angular momentum   :        2
  | Max. atomic/ionic basis occupied n:        2
  | Max. number of basis fn. types    :        2
  | Max. radial fns per species/type  :        3
  | Max. logarithmic grid size        :     1301
  | Max. radial integration grid size :       36
  | Max. angular integration grid size:      302
  | Max. angular grid division number :        8
  | Radial grid for Hartree potential :     1301
  | Number of spin channels           :        1

------------------------------------------------------------
          Reading file control.in.
------------------------------------------------------------
  XC: Using Perdew-Wang parametrisation of Ceperley-Alder LDA.
  Spin treatment: No spin polarisation.
  Non-relativistic treatment of kinetic energy.
  Charge =   0.000000E+00: Neutral system requested explicitly.
  DFPT calculation will begin after the DFT/HF calculation.
  Convergence accuracy of self-consistent charge density:  0.1000E-05
  Found k-point grid:         1         1         1
  Threshold value for wave function integration:  0.1000E-07
 
  Reading configuration options for species H                   .
  | Found nuclear charge :   1.0000
  | Found atomic mass :    1.00794000000000      amu
  | Found l_max for Hartree potential  :   4
  | Found cutoff potl. onset [A], width [A], scale factor :    3.50000    1.50000    1.00000
  | Threshold for basis-dependent cutoff potential is   0.100000E-03
  | Found data for basic radial integration grid :    24 points, outermost radius =    5.000 A
  | Found multiplier for basic radial grid :   1
  | Found angular grid specification: user-specified.
  | Specified grid contains     5 separate shells.
  | Check grid settings after all constraints further below.
  | Found free-atom valence shell :  1 s   1.000
  | No ionic wave fns used. Skipping ion_occ.
  | Found hydrogenic basis function :  2 s   2.100
  | Found hydrogenic basis function :  2 p   3.500
  Species H                   : Missing cutoff potential type.
  Defaulting to exp(1/x)/(1-x)^2 type cutoff potential.
  Species H : No 'logarithmic' tag. Using default grid for free atom:
  | Default logarithmic grid data [bohr] : 0.1000E-03 0.1000E+03 0.1012E+01
  Species H : On-site basis accuracy parameter (for Gram-Schmidt orthonormalisation) not specified.
  Using default value basis_acc =  0.1000000E-03.
  Species H                   : Using default innermost maximum threshold i_radial=  2 for radial functions.
  Species H                   : Default cutoff onset for free atom density etc. : 0.35000000E+01 AA.
  Species H                   : Basic radial grid will be enhanced according to radial_multiplier =   1, to contain    24 grid points.
 
  Reading configuration options for species O                   .
  | Found nuclear charge :   8.0000
  | Found atomic mass :    15.9994000000000      amu
  | Found l_max for Hartree potential  :   4
  | Found cutoff potl. onset [A], width [A], scale factor :    3.50000    1.50000    1.00000
  | Threshold for basis-dependent cutoff potential is   0.100000E-03
  | Found data for basic radial integration grid :    36 points, outermost radius =    5.000 A
  | Found multiplier for basic radial grid :   1
  | Found angular grid specification: user-specified.
  | Specified grid contains     5 separate shells.
  | Check grid settings after all constraints further below.
  | Found free-atom valence shell :  2 s   2.000
  | Found free-atom valence shell :  2 p   4.000
  | No ionic wave fns used. Skipping ion_occ.
  | No ionic wave fns used. Skipping ion_occ.
  | Found hydrogenic basis function :  2 p   1.800
  | Found hydrogenic basis function :  3 d   7.600
  | Found hydrogenic basis function :  3 s   6.400
  Species O                   : Missing cutoff potential type.
  Defaulting to exp(1/x)/(1-x)^2 type cutoff potential.
  Species O : No 'logarithmic' tag. Using default grid for free atom:
  | Default logarithmic grid data [bohr] : 0.1000E-03 0.1000E+03 0.1012E+01
  Species O : On-site basis accuracy parameter (for Gram-Schmidt orthonormalisation) not specified.
  Using default value basis_acc =  0.1000000E-03.
  Species O                   : Using default innermost maximum threshold i_radial=  2 for radial functions.
  Species O                   : Default cutoff onset for free atom density etc. : 0.35000000E+01 AA.
  Species O                   : Basic radial grid will be enhanced according to radial_multiplier =   1, to contain    36 grid points.
 
  Finished reading input file 'control.in'.
 
------------------------------------------------------------


------------------------------------------------------------
          Reading geometry description geometry.in.
------------------------------------------------------------
  | The smallest distance between any two atoms is         0.86043344 AA.
  | The first atom of this pair is atom number                     91 .
  | The second atom of this pair is atom number                    92 .
  | Wigner-Seitz cell of the first atom image           0     0     0 .
  | (The Wigner-Seitz cell of the second atom is 0 0 0  by definition.)

  Symmetry information by spglib:
  | Precision set to  0.1E-04
  | Number of Operations  : 1
  | Space group           : 1
  | International         : P1  9     p
  | Schoenflies           : C1^1
  Input structure read successfully.
  The structure contains       96 atoms,  and a total of        320.000 electrons.

  Input geometry:
  | Unit cell:
  |        9.76860000        0.00000000        0.00000000
  |        0.00000000        9.76860000        0.00000000
  |        0.00000000        0.00000000        9.76860000
  | Atomic structure:
  |       Atom                x [A]            y [A]            z [A]
  |    1: Species O            12.87950000       13.13130000       -0.51786700
  |    2: Species H            12.36190000       13.84770000       -1.10432000
  |    3: Species H            13.63010000       12.82520000       -0.96725000
  |    4: Species O             2.90412000       20.70610000       -2.57635000
  |    5: Species H             2.05798000       20.76370000       -2.95682000
  |    6: Species H             2.70951000       21.28050000       -1.78436000
  |    7: Species O            17.71660000       11.24240000       -1.75286000
  |    8: Species H            18.47330000       11.61990000       -1.97456000
  |    9: Species H            17.10020000       11.99550000       -1.68924000
  |   10: Species O             3.63411000        6.67407000      -13.81530000
  |   11: Species H             4.40258000        6.96399000      -14.32780000
  |   12: Species H             3.54648000        5.73825000      -13.86710000
  |   13: Species O           -13.06670000        4.86764000       26.25460000
  |   14: Species H           -12.38100000        5.27934000       26.81450000
  |   15: Species H           -13.10790000        5.44027000       25.54710000
  |   16: Species O             6.56530000        9.68907000        4.21573000
  |   17: Species H             5.88254000       10.21880000        4.13146000
  |   18: Species H             6.68784000        9.51248000        5.06974000
  |   19: Species O            -5.81843000        1.16291000        4.50003000
  |   20: Species H            -5.88951000        0.95942400        5.39627000
  |   21: Species H            -6.59922000        0.86510400        4.04975000
  |   22: Species O           -12.38300000      -13.00700000       -0.50579600
  |   23: Species H           -11.86560000      -12.10300000       -0.32536800
  |   24: Species H           -13.36160000      -12.91140000       -0.78195400
  |   25: Species O            10.41000000       -8.09777000        9.70489000
  |   26: Species H            10.66590000       -7.56419000        8.91542000
  |   27: Species H            11.02470000       -8.63146000       10.09800000
  |   28: Species O             3.08301000       -5.33255000        1.85848000
  |   29: Species H             3.35517000       -4.46958000        1.45191000
  |   30: Species H             2.98679000       -5.58917000        0.97158700
  |   31: Species O            -4.20773000        2.79261000        8.25405000
  |   32: Species H            -4.06420000        3.49708000        7.40948000
  |   33: Species H            -4.45009000        1.98871000        7.93058000
  |   34: Species O             1.76078000       -9.85945000      -16.19780000
  |   35: Species H             0.87534300       -9.78472000      -16.53170000
  |   36: Species H             1.79532000      -10.91470000      -15.91090000
  |   37: Species O             0.76021900        9.57323000       -3.31061000
  |   38: Species H             0.36343700        8.64210000       -3.15491000
  |   39: Species H             0.82053500        9.57074000       -4.26207000
  |   40: Species O            -0.66788500        3.24338000       11.78250000
  |   41: Species H            -0.46152700        2.77954000       10.91450000
  |   42: Species H            -1.29106000        3.89770000       11.80150000
  |   43: Species O           -10.65730000       -9.05883000      -16.58040000
  |   44: Species H           -11.62990000       -9.23849000      -16.04250000
  |   45: Species H           -10.50220000       -8.17237000      -16.66190000
  |   46: Species O            10.43590000       27.12360000       19.70640000
  |   47: Species H             9.63125000       27.62160000       19.77980000
  |   48: Species H            11.32650000       27.48510000       19.92070000
  |   49: Species O            -8.04000000       -4.18312000        8.17184000
  |   50: Species H            -8.44049000       -3.86552000        8.95677000
  |   51: Species H            -8.60042000       -3.65634000        7.43312000
  |   52: Species O             2.35636000        7.06854000       32.60560000
  |   53: Species H             2.90305000        6.82395000       33.50210000
  |   54: Species H             1.40051000        6.52521000       32.60570000
  |   55: Species O            -4.36266000       22.53820000        1.72949000
  |   56: Species H            -4.39323000       22.76150000        0.77920600
  |   57: Species H            -5.19279000       22.73630000        2.00711000
  |   58: Species O            -6.47731000       -5.81035000       -4.61185000
  |   59: Species H            -7.32879000       -5.43532000       -5.01106000
  |   60: Species H            -6.15716000       -6.61212000       -4.83969000
  |   61: Species O            16.86690000       -1.00941000       -2.87521000
  |   62: Species H            17.41110000       -0.39114400       -2.48463000
  |   63: Species H            16.00460000       -1.02107000       -2.40360000
  |   64: Species O            10.12530000       32.81960000       17.13020000
  |   65: Species H             9.85294000       32.78250000       16.28220000
  |   66: Species H            10.61280000       33.66820000       17.26570000
  |   67: Species O             7.15345000       14.98410000       11.64770000
  |   68: Species H             6.34420000       14.42120000       11.99280000
  |   69: Species H             7.30090000       15.03870000       10.65490000
  |   70: Species O            -4.96436000        7.09337000        8.18822000
  |   71: Species H            -5.34219000        6.94544000        7.22322000
  |   72: Species H            -5.69831000        7.31760000        8.82136000
  |   73: Species O            14.05640000       -2.76242000       11.10130000
  |   74: Species H            13.39440000       -2.37091000       11.64460000
  |   75: Species H            14.59760000       -2.07945000       10.66750000
  |   76: Species O            -0.48219300      -12.52400000       -3.93609000
  |   77: Species H            -1.32583000      -12.09900000       -3.63399000
  |   78: Species H            -0.69557300      -12.50680000       -4.82674000
  |   79: Species O           -14.14790000        9.65550000       30.06920000
  |   80: Species H           -13.23120000        9.56682000       30.05180000
  |   81: Species H           -14.46360000       10.47530000       30.66090000
  |   82: Species O             6.09552000       -2.76543000        4.61582000
  |   83: Species H             6.43242000       -3.26393000        3.75467000
  |   84: Species H             6.10350000       -1.83712000        4.40119000
  |   85: Species O            12.26930000        9.60272000       -8.94153000
  |   86: Species H            12.06480000        9.65060000       -8.05483000
  |   87: Species H            13.20070000        9.86944000       -9.08770000
  |   88: Species O             1.09313000        4.53646000       -6.26761000
  |   89: Species H             1.67522000        4.85846000       -6.90051000
  |   90: Species H             0.38708600        4.20583000       -6.95766000
  |   91: Species O            27.90880000      -10.22480000       20.01310000
  |   92: Species H            28.08480000       -9.58232000       19.46850000
  |   93: Species H            28.30140000       -9.84348000       20.87440000
  |   94: Species O             9.33772000        7.21050000       -6.93686000
  |   95: Species H             8.62892000        6.45050000       -7.06936000
  |   96: Species H             9.59875000        7.32574000       -7.88670000

  Lattice parameters for 3D lattice (in Angstroms) :     9.768600    9.768600    9.768600
  Angle(s) between unit vectors (in degrees)       :    90.000000   90.000000   90.000000


  Quantities derived from the lattice vectors (in Angstrom^-1):
  | Reciprocal lattice vector 1:  0.643202  0.000000  0.000000
  | Reciprocal lattice vector 2:  0.000000  0.643202  0.000000
  | Reciprocal lattice vector 3:  0.000000  0.000000  0.643202
  | Unit cell volume                               :   0.932174E+03  Angstrom^3

  Fractional coordinates:
                         L1                L2                L3
       atom_frac         1.31845914        1.34423561       -0.05301343  O
       atom_frac         1.26547305        1.41757263       -0.11304793  H
       atom_frac         1.39529718        1.31290052       -0.09901624  H
       atom_frac         0.29729132        2.11965891       -0.26373789  O
       atom_frac         0.21067297        2.12555535       -0.30268616  H
       atom_frac         0.27736933        2.17845955       -0.18266282  H
       atom_frac         1.81362734        1.15087116       -0.17943820  O
       atom_frac         1.89108982        1.18951539       -0.20213337  H
       atom_frac         1.75052720        1.22796511       -0.17292550  H
       atom_frac         0.37201953        0.68321663       -1.41425588  O
       atom_frac         0.45068689        0.71289540       -1.46671990  H
       atom_frac         0.36304895        0.58741785       -1.41955859  H
       atom_frac        -1.33762259        0.49829454        2.68765227  O
       atom_frac        -1.26742829        0.54043978        2.74496857  H
       atom_frac        -1.34184018        0.55691399        2.61522634  H
       atom_frac         0.67208198        0.99185861        0.43155928  O
       atom_frac         0.60218865        1.04608644        0.42293266  H
       atom_frac         0.68462625        0.97378130        0.51898327  H
       atom_frac        -0.59562578        0.11904572        0.46066274  O
       atom_frac        -0.60290216        0.09821510        0.55240976  H
       atom_frac        -0.67555433        0.08855967        0.41456811  H
       atom_frac        -1.26763303       -1.33151117       -0.05177774  O
       atom_frac        -1.21466740       -1.23896976       -0.03330754  H
       atom_frac        -1.36781115       -1.32172471       -0.08004770  H
       atom_frac         1.06565936       -0.82895911        0.99347808  O
       atom_frac         1.09185554       -0.77433716        0.91266097  H
       atom_frac         1.12858547       -0.88359233        1.03372029  H
       atom_frac         0.31560408       -0.54588682        0.19025039  O
       atom_frac         0.34346477       -0.45754561        0.14863031  H
       atom_frac         0.30575415       -0.57215671        0.09946021  H
       atom_frac        -0.43074033        0.28587617        0.84495731  O
       atom_frac        -0.41604734        0.35799193        0.75849968  H
       atom_frac        -0.45555044        0.20358188        0.81184407  H
       atom_frac         0.18024896       -1.00930021       -1.65814958  O
       atom_frac         0.08960783       -1.00165019       -1.69233053  H
       atom_frac         0.18378478       -1.11732490       -1.62877997  H
       atom_frac         0.07782272        0.98000020       -0.33890322  O
       atom_frac         0.03720461        0.88468153       -0.32296440  H
       atom_frac         0.08399720        0.97974531       -0.43630305  H
       atom_frac        -0.06837060        0.33202097        1.20616056  O
       atom_frac        -0.04724597        0.28453821        1.11730442  H
       atom_frac        -0.13216428        0.39900293        1.20810556  H
       atom_frac        -1.09097517       -0.92734169       -1.69731589  O
       atom_frac        -1.19053907       -0.94573327       -1.64225170  H
       atom_frac        -1.07509776       -0.83659583       -1.70565895  H
       atom_frac         1.06831071        2.77661077        2.01732080  O
       atom_frac         0.98593964        2.82759044        2.02483467  H
       atom_frac         1.15948038        2.81361710        2.03925844  H
       atom_frac        -0.82304527       -0.42822103        0.83654157  O
       atom_frac        -0.86404295       -0.39570870        0.91689393  H
       atom_frac        -0.88041480       -0.37429519        0.76091968  H
       atom_frac         0.24121778        0.72359806        3.33779661  O
       atom_frac         0.29718179        0.69855967        3.42957026  H
       atom_frac         0.14336855        0.66797801        3.33780685  H
       atom_frac        -0.44660033        2.30720881        0.17704584  O
       atom_frac        -0.44972975        2.33006777        0.07976639  H
       atom_frac        -0.53157976        2.32748807        0.20546547  H
       atom_frac        -0.66307454       -0.59479864       -0.47210962  O
       atom_frac        -0.75023954       -0.55640726       -0.51297627  H
       atom_frac        -0.63030117       -0.67687488       -0.49543333  H
       atom_frac         1.72664456       -0.10333210       -0.29433184  O
       atom_frac         1.78235366       -0.04004095       -0.25434863  H
       atom_frac         1.63837193       -0.10452573       -0.24605368  H
       atom_frac         1.03651496        3.35970354        1.75359826  O
       atom_frac         1.00863379        3.35590566        1.66678951  H
       atom_frac         1.08641975        3.44657372        1.76746924  H
       atom_frac         0.73229020        1.53390455        1.19236124  O
       atom_frac         0.64944823        1.47628115        1.22768872  H
       atom_frac         0.74738448        1.53949389        1.09072948  H
       atom_frac        -0.50819565        0.72613988        0.83821837  O
       atom_frac        -0.54687366        0.71099646        0.73943247  H
       atom_frac        -0.58332924        0.74909404        0.90303216  H
       atom_frac         1.43893700       -0.28278566        1.13642692  O
       atom_frac         1.37116885       -0.24270725        1.19204390  H
       atom_frac         1.49433900       -0.21287083        1.09201933  H
       atom_frac        -0.04936153       -1.28206703       -0.40293287  O
       atom_frac        -0.13572365       -1.23856028       -0.37200725  H
       atom_frac        -0.07120498       -1.28030629       -0.49410765  H
       atom_frac        -1.44830375        0.98842209        3.07814835  O
       atom_frac        -1.35446226        0.97934402        3.07636714  H
       atom_frac        -1.48062158        1.07234404        3.13871998  H
       atom_frac         0.62399116       -0.28309379        0.47251602  O
       atom_frac         0.65847921       -0.33412464        0.38436112  H
       atom_frac         0.62480806       -0.18806380        0.45054460  H
       atom_frac         1.25599369        0.98301906       -0.91533382  O
       atom_frac         1.23505927        0.98792048       -0.82456340  H
       atom_frac         1.35134001        1.01032287       -0.93029707  H
       atom_frac         0.11190242        0.46439203       -0.64160780  O
       atom_frac         0.17149029        0.49735479       -0.70639703  H
       atom_frac         0.03962553        0.43054583       -0.71224740  H
       atom_frac         2.85699077       -1.04670065        2.04871732  O
       atom_frac         2.87500768       -0.98093074        1.99296726  H
       atom_frac         2.89718076       -1.00766538        2.13688758  H
       atom_frac         0.95589133        0.73813034       -0.71011813  O
       atom_frac         0.88333231        0.66033004       -0.72368200  H
       atom_frac         0.98261266        0.74992732       -0.80735213  H

 
  Finished reading input file 'geometry.in'.
 

 
  Consistency checks for stacksize environment parameter are next.
 
  | Maximum stacksize for task 0: unlimited
  | Maximum stacksize for task 1: unlimited
  | Maximum stacksize for task 2: unlimited
  | Maximum stacksize for task 3: unlimited
  | Maximum stacksize for task 4: unlimited
  | Maximum stacksize for task 5: unlimited
  | Maximum stacksize for task 6: unlimited
  | Maximum stacksize for task 7: unlimited
  | Maximum stacksize for task 8: unlimited
  | Maximum stacksize for task 9: unlimited
  | Maximum stacksize for task 10: unlimited
  | Maximum stacksize for task 11: unlimited
  | Maximum stacksize for task 12: unlimited
  | Maximum stacksize for task 13: unlimited
  | Maximum stacksize for task 14: unlimited
  | Maximum stacksize for task 15: unlimited
  | Maximum stacksize for task 16: unlimited
  | Maximum stacksize for task 17: unlimited
  | Current stacksize for task 0: unlimited
  | Current stacksize for task 1: unlimited
  | Current stacksize for task 2: unlimited
  | Current stacksize for task 3: unlimited
  | Current stacksize for task 4: unlimited
  | Current stacksize for task 5: unlimited
  | Current stacksize for task 6: unlimited
  | Current stacksize for task 7: unlimited
  | Current stacksize for task 8: unlimited
  | Current stacksize for task 9: unlimited
  | Current stacksize for task 10: unlimited
  | Current stacksize for task 11: unlimited
  | Current stacksize for task 12: unlimited
  | Current stacksize for task 13: unlimited
  | Current stacksize for task 14: unlimited
  | Current stacksize for task 15: unlimited
  | Current stacksize for task 16: unlimited
  | Current stacksize for task 17: unlimited
 
  Consistency checks for the contents of control.in are next.
 
  MPI_IN_PLACE appears to work with this MPI implementation.
  | Keeping use_mpi_in_place .true. (see manual).
  Explicit treatment of the Coulomb operator is needed, but the RI method is not specified.
  Coulomb operator: Defaulting to 'LVL fast' resolution of identity - RI_type = LVL_fast
  Species H: Using default value for prodbas_acc =   1.000000E-06.
  Species H: Using default value max_l_prodbas =     6.
  Species O: Using default value for prodbas_acc =   1.000000E-06.
  Species O: Using default value max_l_prodbas =     6.
  Target number of points in a grid batch is not set.  Since GPU acceleration is enabled, defaulting to  200
  Method for grid partitioning is not set. Defaulting to parallel hash+maxmin partitioning.
  Batch size limit is not set. Defaulting to    200
  By default, will store active basis functions for each batch.
  If in need of memory, prune_basis_once .false. can be used to disable this option.
  communication_type for Hartree potential was not specified.
  Defaulting to calc_hartree .
  Defaulting to Pulay charge density mixer.
  Pulay mixer: Number of relevant iterations not set.
  Defaulting to    8 iterations.
  Pulay mixer: Number of initial linear mixing iterations not set.
  Defaulting to    0 iterations.
  Work space size for distributed Hartree potential not set.
  Defaulting to   0.200000E+03 MB.
  Mixing parameter for charge density mixing has not been set.
  Using default: charge_mix_param =     0.0500.
  The mixing parameter will be adjusted in iteration number     2 of the first full s.c.f. cycle only.
  Algorithm-dependent basis array size parameters:
  | n_max_pulay                         :        8
  Maximum number of self-consistency iterations not provided.
  Presetting  1000 iterations.
  Presetting      1001 iterations before the initial mixing cycle
  is restarted anyway using the sc_init_iter criterion / keyword.
  Presetting a factor      1.000 between actual scf density residual
  and density convergence criterion sc_accuracy_rho below which sc_init_iter
  takes no effect.
  Calculation of forces was not defined in control.in. No forces will be calculated.
  Geometry relaxation not requested: no relaxation will be performed.
  No accuracy limit for integral partition fn. given. Defaulting to  0.1000E-14.
  No occupation type (smearing scheme) given. Defaulting to Gaussian broadening, width =  0.1000E-01 eV.
  The width will be adjusted in iteration number     2 of the first full s.c.f. cycle only.
  S.C.F. convergence parameters will be adjusted in iteration number     2 of the first full s.c.f. cycle only.
  No accuracy for occupation numbers given. Defaulting to  0.1000E-12.
  No threshold value for occupation numbers given. Defaulting to  0.0000E+00.
  No accuracy for fermi level given. Defaulting to  0.1000E-19.
  Maximum # of iterations to find E_F not set. Defaulting to  200.
  Preferred method for the eigenvalue solver ('KS_method') not specified in 'control.in'.
  Calling BLACS routine to test compilation state
  Since ScaLAPACK support is enabled, defaulting to ELPA (via ELSI).
  Will not use alltoall communication since running on < 1024 CPUs.
  Threshold for basis singularities not set.
  Default threshold for basis singularities:  0.1000E-04
  partition_type (choice of integration weights) for integrals was not specified.
  | Using a version of the partition function of Stratmann and coworkers ('stratmann_sparse').
  | At each grid point, the set of atoms used to build the partition table is smoothly restricted to
  | only those atoms whose free-atom density would be non-zero at that grid point.
  Partitioning for Hartree potential was not defined. Using partition_type for integrals.
  | Adjusted default value of keyword multip_moments_threshold to:       0.10000000E-11
  | This value may affect high angular momentum components of the Hartree potential in periodic systems.
  Angular momentum expansion for Kerker preconditioner not set explicitly.
  | Using default value of   0
  No explicit requirement for turning off preconditioner.
  | By default, it will be turned off when the charge convergence reaches
  | sc_accuracy_rho  =   0.100000E-05
  No special mixing parameter while Kerker preconditioner is on.
  Using default: charge_mix_param =     0.0500.
  Threshold for auxiliary basis singularities not set.
  Default threshold for auxiliary basis singularities:  0.1000E-04
  No q(lm)/r^(l+1) cutoff set for long-range Hartree potential.
  | Using default value of  0.100000E-09 .
  | Verify using the multipole_threshold keyword.
  Defaulting to new monopole extrapolation.
  Density update method: automatic selection selected.
  Using density matrix based charge density update.
  Using density matrix based charge density update.
  Using packed matrix style: index .
  Defaulting to use time-reversal symmetry for k-point grid.
  Charge integration errors on the 3D integration grid will be compensated
  by explicit normalization and distribution of residual charges.
  Use the "compensate_multipole_errors" flag to change this behaviour.
  Default to 1D ("use_logsbt") integrations for auxiliary 2-center integrals.
  Default onset of logarithmic r-grid for SBT is -38.000000000000
  Default onset of logarithmic k-grid for SBT is -25.000000000000
  Default range of logarithmic r- and k-grid for SBT is  45.000000000000
  Default number of logarithmic r- and k-grid for SBT is   4096
  Default of use_2d_corr is to use the efficient 2D distribution where possible
 
  Consistency checks for the contents of geometry.in are next.
 

  Range separation radius for Ewald summation (hartree_convergence_parameter):      2.94038743 bohr.
  Number of empty states per atom not set in control.in .
  | Since you are using a method that relies on the unoccupied spectrum
  | (MP2,GW,RPA et al.), will use the full Hamiltonian size (see below)
  | as the max. possible number of states (occupied plus empty).

  Structure-dependent array size parameters: 
  | Maximum number of distinct radial functions  :        9
  | Maximum number of basis functions            :      768
  | Number of Kohn-Sham states (occupied + empty):      768
------------------------------------------------------------

  Performing system and environment tests:
  | Environment variable OMP_NUM_THREADS correctly set to 1.
  | Checking for ScaLAPACK...
  | Testing pdtran()...
  | All pdtran() tests passed.
CUDA runtime version: 11060
CUDA driver version: 11060
  Initializing GPUs...

  Number of GPUs available to MPI task         0 :   1
  Number of GPUs available to MPI task         1 :   1
  Number of GPUs available to MPI task         2 :   1
  Number of GPUs available to MPI task         3 :   1
  Number of GPUs available to MPI task         4 :   1
  Number of GPUs available to MPI task         5 :   1
  Number of GPUs available to MPI task         6 :   1
  Number of GPUs available to MPI task         7 :   1
  Number of GPUs available to MPI task         8 :   1
  Number of GPUs available to MPI task         9 :   1
  Number of GPUs available to MPI task        10 :   1
  Number of GPUs available to MPI task        11 :   1
  Number of GPUs available to MPI task        12 :   1
  Number of GPUs available to MPI task        13 :   1
  Number of GPUs available to MPI task        14 :   1
  Number of GPUs available to MPI task        15 :   1
  Number of GPUs available to MPI task        16 :   1
  Number of GPUs available to MPI task        17 :   1

  | MPI task         0, GPU activated = T, Device Name = NVIDIA A100-SXM4-80GB
  | MPI task         1, GPU activated = T, Device Name = NVIDIA A100-SXM4-80GB
  | MPI task         2, GPU activated = T, Device Name = NVIDIA A100-SXM4-80GB
  | MPI task         3, GPU activated = T, Device Name = NVIDIA A100-SXM4-80GB
  | MPI task         4, GPU activated = T, Device Name = NVIDIA A100-SXM4-80GB
  | MPI task         5, GPU activated = T, Device Name = NVIDIA A100-SXM4-80GB
  | MPI task         6, GPU activated = T, Device Name = NVIDIA A100-SXM4-80GB
  | MPI task         7, GPU activated = T, Device Name = NVIDIA A100-SXM4-80GB
  | MPI task         8, GPU activated = T, Device Name = NVIDIA A100-SXM4-80GB
  | MPI task         9, GPU activated = T, Device Name = NVIDIA A100-SXM4-80GB
  | MPI task        10, GPU activated = T, Device Name = NVIDIA A100-SXM4-80GB
  | MPI task        11, GPU activated = T, Device Name = NVIDIA A100-SXM4-80GB
  | MPI task        12, GPU activated = T, Device Name = NVIDIA A100-SXM4-80GB
  | MPI task        13, GPU activated = T, Device Name = NVIDIA A100-SXM4-80GB
  | MPI task        14, GPU activated = T, Device Name = NVIDIA A100-SXM4-80GB
  | MPI task        15, GPU activated = T, Device Name = NVIDIA A100-SXM4-80GB
  | MPI task        16, GPU activated = T, Device Name = NVIDIA A100-SXM4-80GB
  | MPI task        17, GPU activated = T, Device Name = NVIDIA A100-SXM4-80GB

------------------------------------------------------------
          Preparing all fixed parts of the calculation.
------------------------------------------------------------
  Determining machine precision:
    2.225073858507201E-308
  Setting up grids for atomic and cluster calculations.

  Creating wave function, potential, and density for free atoms.
  Runtime choices for atomic solver:
  | atomic solver xc        : PW-LDA
  | compute density gradient: 0
  | compute kinetic density : F

  Species: H

  List of occupied orbitals and eigenvalues:
    n    l              occ      energy [Ha]    energy [eV]
    1    0           1.0000        -0.232375        -6.3233


  Species: O

  List of occupied orbitals and eigenvalues:
    n    l              occ      energy [Ha]    energy [eV]
    1    0           2.0000       -18.757744      -510.4242
    2    0           2.0000        -0.870917       -23.6989
    2    1           4.0000        -0.337950        -9.1961


  Adding cutoff potential to free-atom effective potential.
  Creating fixed part of basis set: Ionic, confined, hydrogenic.
 
  H                    hydrogenic:
 
  List of hydrogenic basis orbitals: 
    n    l      effective z      eigenvalue [eV]  inner max. [A]     outer max. [A]     outer radius [A]   
    2    0         2.100000       -14.9728           0.193243           1.317208           4.696947
    2    1         3.500000       -41.6669           0.602369           0.602369           3.862494
 
 
  O                    hydrogenic:
 
  List of hydrogenic basis orbitals: 
    n    l      effective z      eigenvalue [eV]  inner max. [A]     outer max. [A]     outer radius [A]   
    2    1         1.800000       -10.9749           1.164242           1.164242           4.691341
    3    2         7.600000       -87.3180           0.624125           0.624125           3.413946
    3    0         6.400000       -61.9207           0.061167           1.081902           4.151495
 
  Creating atomic-like basis functions for current effective potential.

  Species H                   :

  List of atomic basis orbitals and eigenvalues:
    n    l      energy [Ha]    energy [eV]    outer radius [A]
    1    0        -0.232375        -6.3233       4.696947


  Species O                   :

  List of atomic basis orbitals and eigenvalues:
    n    l      energy [Ha]    energy [eV]    outer radius [A]
    1    0       -18.757744      -510.4242       1.830144
    2    0        -0.870917       -23.6989       4.578029
    2    1        -0.337950        -9.1961       4.634338

  Assembling full basis from fixed parts.
  | Species H :   atomic orbital   1 s accepted.
  | Species H :    hydro orbital   2 s accepted.
  | Species H :    hydro orbital   2 p accepted.
  | Species O :   atomic orbital   1 s accepted.
  | Species O :    hydro orbital   3 s accepted.
  | Species O :   atomic orbital   2 s accepted.
  | Species O :   atomic orbital   2 p accepted.
  | Species O :    hydro orbital   2 p accepted.
  | Species O :    hydro orbital   3 d accepted.
 
  Basis size parameters after reduction:
  | Total number of radial functions:        9
  | Total number of basis functions :      768
 
  Per-task memory consumption for arrays in subroutine allocate_ext:
  |           2.268304MB.
  Testing on-site integration grid accuracy.
  |  Species  Function  <phi|h_atom|phi> (log., in eV)  <phi|h_atom|phi> (rad., in eV)
           1        1                 -6.3245358373                 -6.3232436907
           1        2                 14.1326137532                 14.1384481100
           1        3                 25.3627025200                 25.3628451197
           2        4               -510.4241781764               -510.4240769407
           2        5                 14.9072942213                 14.9072945271
           2        6                -21.2004736474                -21.2005650551
           2        7                 -9.1962086505                 -9.1963509834
           2        8                  8.1896755006                  8.1702200081
           2        9                 45.7920584937                 45.7920228520

  Preparing densities etc. for the partition functions (integrals / Hartree potential).

  Preparations completed.
  max(cpu_time)          :      0.076 s.
  Wall clock time (cpu1) :      0.069 s.
------------------------------------------------------------

  Initializing index lists of integration centers etc. from given atomic structure:
  Mapping all atomic coordinates to central unit cell.

  Initializing the k-points
  Using symmetry for reducing the k-points
  | k-points reduced from:        1 to        1
  | Number of k-points                             :         1
  | Consuming          0 KiB for k_phase_exx.
  The eigenvectors in the calculations are REAL.
  | Number of basis functions in the Hamiltonian integrals :      4436
  | Number of basis functions in a single unit cell        :       768
  | Number of centers in hartree potential         :      2593
  | Number of centers in hartree multipole         :      1933
  | Number of centers in electron density summation:      1514
  | Number of centers in basis integrals           :      1606
  | Number of centers in integrals                 :       701
  | Number of centers in hamiltonian               :      1514
  | Consuming          0 KiB for k_phase.
  | Number of super-cells (origin) [n_cells]                     :         125
  | Number of super-cells (after PM_index) [n_cells]             :          28
  | Number of super-cells in hamiltonian [n_cells_in_hamiltonian]:          28
  | Size of matrix packed + index [n_hamiltonian_matrix_size] :      813653
  | Size of matrix packed + index (no_symmetry):     1626537

------------------------------------------------------------
          Begin self-consistency loop: Initialization.

          Date     :  20230221, Time     :  143316.091
------------------------------------------------------------
  | Estimated reciprocal-space cutoff momentum G_max:         3.21723122 bohr^-1 .
  | Reciprocal lattice points for long-range Hartree potential:    3574
  Using simple linear distribution as default method for k-point parallelism.
  * Using 18 tasks for Scalapack Eigenvalue solver.
  Detailed listing of tasks and assigned k-points:
   Task     0 k-point     1 on adag038
   Task     1 k-point     1 on adag038
   Task     2 k-point     1 on adag038
   Task     3 k-point     1 on adag038
   Task     4 k-point     1 on adag038
   Task     5 k-point     1 on adag038
   Task     6 k-point     1 on adag038
   Task     7 k-point     1 on adag038
   Task     8 k-point     1 on adag038
   Task     9 k-point     1 on adag038
   Task    10 k-point     1 on adag038
   Task    11 k-point     1 on adag038
   Task    12 k-point     1 on adag038
   Task    13 k-point     1 on adag038
   Task    14 k-point     1 on adag038
   Task    15 k-point     1 on adag038
   Task    16 k-point     1 on adag038
   Task    17 k-point     1 on adag038
  K-point:     1 Tasks:    18 split into      6 X      3 BLACS grid
  Calculating block size based on n_basis =          768  max_nprow =            6  max_npcol =            3
  ScaLAPACK block size set to:           16
  Allocating        0.250 MB for ovlp
  Allocating        0.250 MB for ham
  Allocating        0.250 MB for eigenvec
  Required Scalapack workspace - INTEGER:            1  REAL:             1
  Partitioning the integration grid into batches with parallel hashing+maxmin method.
  | Number of batches:     4224
  | Maximal batch size:     192
  | Minimal batch size:     100
  | Average batch size:     120.636
  | Standard deviation of batch sizes:      20.927

  Integration load balanced across    18 MPI tasks.
  Work distribution over tasks is as follows:
  Task     0 has      28258 integration points.
  Task     1 has      28310 integration points.
  Task     2 has      28342 integration points.
  Task     3 has      28289 integration points.
  Task     4 has      28325 integration points.
  Task     5 has      28336 integration points.
  Task     6 has      28343 integration points.
  Task     7 has      28321 integration points.
  Task     8 has      28357 integration points.
  Task     9 has      28253 integration points.
  Task    10 has      28281 integration points.
  Task    11 has      28248 integration points.
  Task    12 has      28289 integration points.
  Task    13 has      28278 integration points.
  Task    14 has      28333 integration points.
  Task    15 has      28311 integration points.
  Task    16 has      28347 integration points.
  Task    17 has      28347 integration points.
  Initializing partition tables, free-atom densities, potentials, etc. across the integration grid (initialize_grid_storage).
  | initialize_grid_storage: Actual outermost partition radius vs. multipole_radius_free
  | (-- VB: in principle, multipole_radius_free should be larger, hence this output)
  | Species        1: Confinement radius =              4.999999999999999 AA, multipole_radius_free =              5.054417573612229 AA.
  | Species        1: outer_partition_radius set to              5.054417573612229 AA .
  | Species        2: Confinement radius =              4.999999999999999 AA, multipole_radius_free =              5.048384829883283 AA.
  | Species        2: outer_partition_radius set to              5.048384829883283 AA .
  | The sparse table of interatomic distances needs       5489.61 kbyte instead of     20633.89 kbyte of memory.
  | Net number of integration points:   509568
  | of which are non-zero points    :   404799
  | Numerical average free-atom electrostatic potential    :     -5.59051194 eV
  Renormalizing the initial density to the exact electron count on the 3D integration grid.
  | Initial density: Formal number of electrons (from input files) :     320.0000000000
  | Integrated number of electrons on 3D grid     :     320.0006208731
  | Charge integration error                      :       0.0006208731
  | Normalization factor for density and gradient :       0.9999980598
  Renormalizing the free-atom superposition density to the exact electron count on the 3D integration grid.
  | Formal number of electrons (from input files) :     320.0000000000
  | Integrated number of electrons on 3D grid     :     320.0006208731
  | Charge integration error                      :       0.0006208731
  | Normalization factor for density and gradient :       0.9999980598
  Obtaining max. number of non-zero basis functions in each batch (get_n_compute_maxes).
  | Maximal number of non-zero basis functions:      425 in task     0
  | Maximal number of non-zero basis functions:      441 in task     1
  | Maximal number of non-zero basis functions:      416 in task     2
  | Maximal number of non-zero basis functions:      429 in task     3
  | Maximal number of non-zero basis functions:      419 in task     4
  | Maximal number of non-zero basis functions:      417 in task     5
  | Maximal number of non-zero basis functions:      413 in task     6
  | Maximal number of non-zero basis functions:      413 in task     7
  | Maximal number of non-zero basis functions:      424 in task     8
  | Maximal number of non-zero basis functions:      423 in task     9
  | Maximal number of non-zero basis functions:      427 in task    10
  | Maximal number of non-zero basis functions:      428 in task    11
  | Maximal number of non-zero basis functions:      420 in task    12
  | Maximal number of non-zero basis functions:      434 in task    13
  | Maximal number of non-zero basis functions:      418 in task    14
  | Maximal number of non-zero basis functions:      430 in task    15
  | Maximal number of non-zero basis functions:      416 in task    16
  | Maximal number of non-zero basis functions:      422 in task    17
  Integrating Hamiltonian matrix: batch-based integration.
  GPU acceleration will be used when integrating the Hamiltonian matrix.
  Reporting GPU memory usage by myid 0.  Note that it is likely not the only MPI task binding to its GPU!
  Allocating        1.445 MB on GPU for hamiltonian_shell
  Allocating        0.653 MB on GPU for wave
  Allocating        0.002 MB on GPU for partition
  Allocating        0.653 MB on GPU for h_times_psi
  Time summed over all CPUs for integration: real work       14.323 s, elapsed       14.585 s
  Deallocating memory used on GPU for Hamiltonian integration.
  Integrating overlap matrix.
  Time summed over all CPUs for integration: real work       11.824 s, elapsed       11.984 s
  Deallocating overlap matrix.

  Updating Kohn-Sham eigenvalues and eigenvectors using ELSI and the ELPA eigensolver.
  Singularity check in k-point 1 (analysis for other k-points may follow below):
  Overlap matrix is not singular
  | Lowest and highest eigenvalues :  0.2042E-02,  0.7587E+01
  Finished singularity check of overlap matrix
  | Time :     0.172 s
  Starting ELPA eigensolver (GPU)
  Finished Cholesky decomposition
  | Time :     0.009 s
  Finished transformation to standard eigenproblem
  | Time :     0.032 s
  Finished solving standard eigenproblem
  | Time :     0.224 s
  Finished back-transformation of eigenvectors
  | Time :     0.020 s

  Obtaining occupation numbers and electronic chemical potential using ELSI.
  | Note that, for insulating systems, the printed 'chemical potential' value is not uniquely defined.
  | It can be anywhere in the energy gap, as long as it correctly separates occupied and unoccupied states.
  | In systems with a gap, the physically relevant chemical potential is the VBM or HOMO.

  | Chemical potential (Fermi level):    -6.50934755 eV
  Writing Kohn-Sham eigenvalues.

  State    Occupation    Eigenvalue [Ha]    Eigenvalue [eV]
      1       2.00000         -18.925315         -514.98402
      2       2.00000         -18.894687         -514.15060
      3       2.00000         -18.893633         -514.12191
      4       2.00000         -18.887676         -513.95981
      5       2.00000         -18.887181         -513.94634
      6       2.00000         -18.886917         -513.93915
      7       2.00000         -18.886096         -513.91682
      8       2.00000         -18.885943         -513.91267
      9       2.00000         -18.885663         -513.90504
     10       2.00000         -18.884531         -513.87422
     11       2.00000         -18.884131         -513.86335
     12       2.00000         -18.883316         -513.84116
     13       2.00000         -18.882421         -513.81681
     14       2.00000         -18.879859         -513.74710
     15       2.00000         -18.879412         -513.73493
     16       2.00000         -18.877393         -513.67999
     17       2.00000         -18.874779         -513.60887
     18       2.00000         -18.874392         -513.59834
     19       2.00000         -18.872643         -513.55076
     20       2.00000         -18.869747         -513.47195
     21       2.00000         -18.869347         -513.46107
     22       2.00000         -18.868242         -513.43099
     23       2.00000         -18.867939         -513.42274
     24       2.00000         -18.866131         -513.37354
     25       2.00000         -18.864812         -513.33765
     26       2.00000         -18.863226         -513.29450
     27       2.00000         -18.860804         -513.22860
     28       2.00000         -18.856592         -513.11397
     29       2.00000         -18.854016         -513.04389
     30       2.00000         -18.853232         -513.02254
     31       2.00000         -18.847444         -512.86504
     32       2.00000         -18.837381         -512.59122
     33       2.00000          -1.183125          -32.19447
     34       2.00000          -1.144589          -31.14585
     35       2.00000          -1.139870          -31.01745
     36       2.00000          -1.139132          -30.99737
     37       2.00000          -1.128155          -30.69867
     38       2.00000          -1.126840          -30.66288
     39       2.00000          -1.126212          -30.64578
     40       2.00000          -1.126013          -30.64038
     41       2.00000          -1.124953          -30.61152
     42       2.00000          -1.123794          -30.57998
     43       2.00000          -1.122375          -30.54139
     44       2.00000          -1.121941          -30.52956
     45       2.00000          -1.115777          -30.36183
     46       2.00000          -1.114017          -30.31393
     47       2.00000          -1.111054          -30.23332
     48       2.00000          -1.109890          -30.20163
     49       2.00000          -1.107380          -30.13334
     50       2.00000          -1.104024          -30.04203
     51       2.00000          -1.101840          -29.98260
     52       2.00000          -1.099182          -29.91025
     53       2.00000          -1.093176          -29.74683
     54       2.00000          -1.091717          -29.70713
     55       2.00000          -1.089586          -29.64915
     56       2.00000          -1.089116          -29.63636
     57       2.00000          -1.086712          -29.57093
     58       2.00000          -1.084595          -29.51332
     59       2.00000          -1.080577          -29.40400
     60       2.00000          -1.073510          -29.21169
     61       2.00000          -1.072718          -29.19013
     62       2.00000          -1.064196          -28.95826
     63       2.00000          -1.049819          -28.56704
     64       2.00000          -1.037312          -28.22669
     65       2.00000          -0.731267          -19.89879
     66       2.00000          -0.695339          -18.92114
     67       2.00000          -0.691441          -18.81507
     68       2.00000          -0.689326          -18.75752
     69       2.00000          -0.686082          -18.66924
     70       2.00000          -0.681364          -18.54085
     71       2.00000          -0.679268          -18.48382
     72       2.00000          -0.678159          -18.45365
     73       2.00000          -0.671900          -18.28334
     74       2.00000          -0.670618          -18.24845
     75       2.00000          -0.668910          -18.20198
     76       2.00000          -0.667914          -18.17485
     77       2.00000          -0.663837          -18.06392
     78       2.00000          -0.663534          -18.05568
     79       2.00000          -0.663142          -18.04501
     80       2.00000          -0.656711          -17.87002
     81       2.00000          -0.644470          -17.53693
     82       2.00000          -0.643101          -17.49966
     83       2.00000          -0.641599          -17.45880
     84       2.00000          -0.639829          -17.41064
     85       2.00000          -0.638716          -17.38036
     86       2.00000          -0.636259          -17.31350
     87       2.00000          -0.635112          -17.28229
     88       2.00000          -0.629674          -17.13429
     89       2.00000          -0.627625          -17.07855
     90       2.00000          -0.624140          -16.98371
     91       2.00000          -0.622538          -16.94011
     92       2.00000          -0.620738          -16.89113
     93       2.00000          -0.617743          -16.80965
     94       2.00000          -0.613723          -16.70026
     95       2.00000          -0.606841          -16.51297
     96       2.00000          -0.592978          -16.13574
     97       2.00000          -0.574642          -15.63680
     98       2.00000          -0.571013          -15.53806
     99       2.00000          -0.558645          -15.20151
    100       2.00000          -0.556460          -15.14206
    101       2.00000          -0.553596          -15.06410
    102       2.00000          -0.552319          -15.02937
    103       2.00000          -0.550621          -14.98317
    104       2.00000          -0.549298          -14.94716
    105       2.00000          -0.545268          -14.83750
    106       2.00000          -0.543457          -14.78823
    107       2.00000          -0.541643          -14.73885
    108       2.00000          -0.540178          -14.69899
    109       2.00000          -0.538605          -14.65618
    110       2.00000          -0.532724          -14.49617
    111       2.00000          -0.530490          -14.43537
    112       2.00000          -0.529390          -14.40543
    113       2.00000          -0.527026          -14.34111
    114       2.00000          -0.524681          -14.27730
    115       2.00000          -0.524372          -14.26888
    116       2.00000          -0.520385          -14.16039
    117       2.00000          -0.519448          -14.13490
    118       2.00000          -0.517324          -14.07711
    119       2.00000          -0.512182          -13.93717
    120       2.00000          -0.511339          -13.91423
    121       2.00000          -0.507875          -13.81997
    122       2.00000          -0.506943          -13.79461
    123       2.00000          -0.505848          -13.76482
    124       2.00000          -0.502663          -13.67816
    125       2.00000          -0.500714          -13.62512
    126       2.00000          -0.498825          -13.57371
    127       2.00000          -0.495897          -13.49405
    128       2.00000          -0.489070          -13.30826
    129       2.00000          -0.478262          -13.01417
    130       2.00000          -0.475832          -12.94804
    131       2.00000          -0.475066          -12.92719
    132       2.00000          -0.471800          -12.83833
    133       2.00000          -0.471334          -12.82566
    134       2.00000          -0.470098          -12.79202
    135       2.00000          -0.469518          -12.77623
    136       2.00000          -0.467808          -12.72970
    137       2.00000          -0.466078          -12.68263
    138       2.00000          -0.465688          -12.67202
    139       2.00000          -0.463742          -12.61906
    140       2.00000          -0.462859          -12.59504
    141       2.00000          -0.462325          -12.58049
    142       2.00000          -0.461039          -12.54552
    143       2.00000          -0.460496          -12.53073
    144       2.00000          -0.460092          -12.51973
    145       2.00000          -0.459178          -12.49486
    146       2.00000          -0.458608          -12.47937
    147       2.00000          -0.456609          -12.42497
    148       2.00000          -0.456174          -12.41312
    149       2.00000          -0.455791          -12.40271
    150       2.00000          -0.452827          -12.32205
    151       2.00000          -0.450666          -12.26325
    152       2.00000          -0.450150          -12.24922
    153       2.00000          -0.449412          -12.22912
    154       2.00000          -0.448266          -12.19793
    155       2.00000          -0.446783          -12.15759
    156       2.00000          -0.442754          -12.04794
    157       2.00000          -0.441618          -12.01704
    158       2.00000          -0.440904          -11.99761
    159       2.00000          -0.431244          -11.73476
    160       2.00000          -0.429686          -11.69235
    161       0.00000          -0.175839           -4.78482
    162       0.00000          -0.116786           -3.17791
    163       0.00000          -0.115401           -3.14022
    164       0.00000          -0.106225           -2.89053
    165       0.00000          -0.104584           -2.84588
    166       0.00000          -0.103753           -2.82327
    167       0.00000          -0.100933           -2.74654
    168       0.00000          -0.073936           -2.01190
    169       0.00000          -0.070204           -1.91036
    170       0.00000          -0.063418           -1.72570
    171       0.00000          -0.056628           -1.54092
    172       0.00000          -0.054360           -1.47920
    173       0.00000          -0.053158           -1.44650
    174       0.00000          -0.052072           -1.41695
    175       0.00000          -0.042584           -1.15876
    176       0.00000          -0.039609           -1.07780
    177       0.00000          -0.036078           -0.98172
    178       0.00000          -0.032365           -0.88070
    179       0.00000          -0.029593           -0.80527
    180       0.00000          -0.016452           -0.44767
    181       0.00000          -0.013390           -0.36437
    182       0.00000          -0.008556           -0.23283
    183       0.00000           0.001188            0.03234
    184       0.00000           0.005760            0.15673
    185       0.00000           0.008809            0.23970
    186       0.00000           0.015021            0.40873
    187       0.00000           0.018990            0.51674
    188       0.00000           0.020744            0.56448
    189       0.00000           0.025411            0.69146
    190       0.00000           0.030796            0.83801
    191       0.00000           0.034417            0.93654
    192       0.00000           0.037870            1.03051
    193       0.00000           0.046332            1.26075
    194       0.00000           0.048479            1.31919
    195       0.00000           0.050746            1.38087
    196       0.00000           0.054622            1.48635
    197       0.00000           0.055790            1.51813
    198       0.00000           0.058647            1.59586
    199       0.00000           0.061354            1.66954
    200       0.00000           0.063477            1.72730
    201       0.00000           0.065117            1.77193
    202       0.00000           0.068941            1.87599
    203       0.00000           0.072337            1.96840
    204       0.00000           0.073441            1.99844
    205       0.00000           0.076136            2.07177
    206       0.00000           0.079800            2.17146
    207       0.00000           0.080859            2.20027
    208       0.00000           0.084090            2.28821
    209       0.00000           0.089575            2.43746
    210       0.00000           0.092735            2.52346
    211       0.00000           0.093241            2.53722
    212       0.00000           0.096001            2.61232
    213       0.00000           0.096285            2.62004
    214       0.00000           0.103547            2.81765
    215       0.00000           0.106171            2.88905
    216       0.00000           0.111840            3.04333
    217       0.00000           0.112006            3.04783
    218       0.00000           0.116067            3.15834
    219       0.00000           0.117919            3.20875
    220       0.00000           0.121436            3.30444
    221       0.00000           0.122748            3.34014
    222       0.00000           0.131696            3.58363
    223       0.00000           0.139388            3.79295
    224       0.00000           0.141317            3.84543
    225       0.00000           0.144966            3.94474
    226       0.00000           0.147221            4.00609
    227       0.00000           0.153470            4.17612
    228       0.00000           0.162941            4.43385
    229       0.00000           0.164563            4.47798
    230       0.00000           0.171298            4.66125
    231       0.00000           0.179667            4.88898
    232       0.00000           0.186069            5.06320
    233       0.00000           0.193674            5.27015
    234       0.00000           0.198135            5.39152
    235       0.00000           0.202505            5.51045
    236       0.00000           0.205584            5.59422
    237       0.00000           0.211004            5.74172
    238       0.00000           0.215185            5.85547
    239       0.00000           0.221911            6.03850
    240       0.00000           0.226017            6.15024
    241       0.00000           0.236176            6.42668
    242       0.00000           0.246582            6.70985
    243       0.00000           0.249273            6.78307
    244       0.00000           0.254749            6.93206
    245       0.00000           0.260876            7.09880
    246       0.00000           0.262360            7.13917
    247       0.00000           0.268788            7.31409
    248       0.00000           0.276681            7.52887
    249       0.00000           0.277710            7.55687
    250       0.00000           0.287153            7.81383
    251       0.00000           0.295033            8.02825
    252       0.00000           0.304331            8.28126
    253       0.00000           0.307589            8.36992
    254       0.00000           0.311321            8.47148
    255       0.00000           0.315246            8.57827
    256       0.00000           0.332162            9.03859
    257       0.00000           0.336890            9.16724
    258       0.00000           0.339877            9.24852
    259       0.00000           0.348169            9.47417
[...]
  |    H      0     4.527807 A      4.527807 A        1.268855E-16 a.u.
  |    H      0     4.527807 A      4.583499 A       -4.900954E-17 a.u.
  |    H      0     4.527807 A      4.583499 A        4.713786E-16 a.u.
  |    H      2     3.678162 A  2.180220E+05 A            0.556529 a.u.
  |    H      1     3.958095 A  1.721251E+08 A            0.841931 a.u.
  |    H      0     4.527807 A  3.866455E+16 A            0.581436 a.u.
  |    O      0     2.043000 A      2.043000 A       -1.436841E-16 a.u.
  |    O      3     3.498446 A      3.498446 A        3.043453E-17 a.u.
  |    O      3     3.498446 A      3.498446 A        1.541443E-16 a.u.
  |    O      0     3.905335 A      3.905335 A        2.173090E-16 a.u.
  |    O      0     3.905335 A      3.905335 A        7.213445E-17 a.u.
  |    O      0     4.101052 A      4.101052 A        2.361718E-16 a.u.
  |    O      1     4.101052 A      4.101052 A        3.235185E-17 a.u.
  |    O      0     4.359549 A      4.359549 A       -5.329475E-17 a.u.
  |    O      1     4.413171 A      4.413171 A        3.261883E-17 a.u.
  |    O      1     4.522403 A      4.522403 A        6.417997E-16 a.u.
  |    O      1     4.522403 A      4.522403 A        4.224783E-16 a.u.
  |    O      2     4.522403 A      4.522403 A       -4.387647E-16 a.u.
  |    O      0     4.522403 A      4.578029 A        2.602039E-16 a.u.
  |    O      0     4.578029 A      4.578029 A        1.226235E-16 a.u.
  |    O      1     4.578029 A      4.578029 A       -6.107316E-16 a.u.
  |    O      1     4.578029 A      4.578029 A       -2.224438E-16 a.u.
  |    O      2     4.578029 A      4.578029 A       -7.020279E-16 a.u.
  |    O      2     4.522403 A      4.578029 A        1.323470E-15 a.u.
  |    O      2     4.578029 A      4.578029 A        7.923696E-16 a.u.
  |    O      2     4.522403 A      4.578029 A       -9.951815E-16 a.u.
  |    O      0     4.578029 A      4.634338 A       -8.813582E-18 a.u.
  |    O      1     4.578029 A      4.634338 A       -3.325386E-17 a.u.
  |    O      1     4.634338 A      4.634338 A        9.588032E-16 a.u.
  |    O      2     4.578029 A      4.634338 A        1.064715E-17 a.u.
  |    O      2     4.578029 A      4.634338 A       -3.770343E-15 a.u.
  |    O      4     3.251020 A  1.511584E+03 A            1.513372 a.u.
  |    O      3     3.541477 A  1.434166E+04 A            4.293220 a.u.
  |    O      2     4.634338 A  5.584435E+05 A            9.352428 a.u.
  |    O      1     4.634338 A  2.821283E+08 A            2.261940 a.u.
  |    O      0     4.578029 A  4.264100E+16 A            0.641234 a.u.

  | Shrink_full_auxil_basis : there are       38  radial auxiliary wave functions
                            accepted and       5 rejected.
  | Shrink_full_auxil_basis : there are totally                4544 partial auxiliary wave functions.
 
  | Maximal number of product basis functions per thread :   256   256
 
  | Minimal total memory requirement for three-center overlap :      10.450 Gbs
  | Number of local auxiliary basis functions on task:      0   256
  | Number of local auxiliary basis functions on task:      1   256
  | Number of local auxiliary basis functions on task:      2   256
  | Number of local auxiliary basis functions on task:      3   256
  | Number of local auxiliary basis functions on task:      4   256
  | Number of local auxiliary basis functions on task:      5   256
  | Number of local auxiliary basis functions on task:      6   256
  | Number of local auxiliary basis functions on task:      7   256
  | Number of local auxiliary basis functions on task:      8   256
  | Number of local auxiliary basis functions on task:      9   256
  | Number of local auxiliary basis functions on task:     10   256
  | Number of local auxiliary basis functions on task:     11   256
  | Number of local auxiliary basis functions on task:     12   256
  | Number of local auxiliary basis functions on task:     13   256
  | Number of local auxiliary basis functions on task:     14   240
  | Number of local auxiliary basis functions on task:     15   240
  | Number of local auxiliary basis functions on task:     16   240
  | Number of local auxiliary basis functions on task:     17   240
  | 2D aux task distribution:      3 X      6
  | 2D block size (nb_aux_2d):     64
 
  Basis pair condensation :    295296  -->     231820
 
 --------------------------------------------
  Constructing auxiliary basis (full product) ...
 
  Product basis:
  | charge radius: extent of product basis function
  | field radius: extent of its Coulomb potential
  | Species   l  charge radius    field radius  multipol momen
  |    H      1     3.910002 A      3.910002 A       -2.487223E-16 a.u.
  |    H      1     3.958095 A      3.958095 A       -2.441841E-16 a.u.
  |    H      0     4.527807 A      4.527807 A        1.268855E-16 a.u.
  |    H      0     4.527807 A      4.583499 A       -4.900954E-17 a.u.
  |    H      0     4.527807 A      4.583499 A        4.713786E-16 a.u.
  |    H      2     3.678162 A  2.180220E+05 A            0.556529 a.u.
  |    H      1     3.958095 A  1.721251E+08 A            0.841931 a.u.
  |    H      0     4.527807 A  3.866455E+16 A            0.581436 a.u.
  |    O      0     2.043000 A      2.043000 A       -1.436841E-16 a.u.
  |    O      3     3.498446 A      3.498446 A        3.043453E-17 a.u.
  |    O      3     3.498446 A      3.498446 A        1.541443E-16 a.u.
  |    O      0     3.905335 A      3.905335 A        2.173090E-16 a.u.
  |    O      0     3.905335 A      3.905335 A        7.213445E-17 a.u.
  |    O      0     4.101052 A      4.101052 A        2.361718E-16 a.u.
  |    O      1     4.101052 A      4.101052 A        3.235185E-17 a.u.
  |    O      0     4.359549 A      4.359549 A       -5.329475E-17 a.u.
  |    O      1     4.413171 A      4.413171 A        3.261883E-17 a.u.
  |    O      1     4.522403 A      4.522403 A        6.417997E-16 a.u.
  |    O      1     4.522403 A      4.522403 A        4.224783E-16 a.u.
  |    O      2     4.522403 A      4.522403 A       -4.387647E-16 a.u.
  |    O      0     4.522403 A      4.578029 A        2.602039E-16 a.u.
  |    O      0     4.578029 A      4.578029 A        1.226235E-16 a.u.
  |    O      1     4.578029 A      4.578029 A       -6.107316E-16 a.u.
  |    O      1     4.578029 A      4.578029 A       -2.224438E-16 a.u.
  |    O      2     4.578029 A      4.578029 A       -7.020279E-16 a.u.
  |    O      2     4.522403 A      4.578029 A        1.323470E-15 a.u.
  |    O      2     4.578029 A      4.578029 A        7.923696E-16 a.u.
  |    O      2     4.522403 A      4.578029 A       -9.951815E-16 a.u.
  |    O      0     4.578029 A      4.634338 A       -8.813582E-18 a.u.
  |    O      1     4.578029 A      4.634338 A       -3.325386E-17 a.u.
  |    O      1     4.634338 A      4.634338 A        9.588032E-16 a.u.
  |    O      2     4.578029 A      4.634338 A        1.064715E-17 a.u.
  |    O      2     4.578029 A      4.634338 A       -3.770343E-15 a.u.
  |    O      4     3.251020 A  1.511584E+03 A            1.513372 a.u.
  |    O      3     3.541477 A  1.434166E+04 A            4.293220 a.u.
  |    O      2     4.634338 A  5.584435E+05 A            9.352428 a.u.
  |    O      1     4.634338 A  2.821283E+08 A            2.261940 a.u.
  |    O      0     4.578029 A  4.264100E+16 A            0.641234 a.u.

  | Shrink_full_auxil_basis : there are       38  radial auxiliary wave functions
                            accepted and       5 rejected.
  | Shrink_full_auxil_basis : there are totally                4544 partial auxiliary wave functions.
 
  | Maximal number of product basis functions per thread :   256   256
 
  | Minimal total memory requirement for three-center overlap :      10.450 Gbs
  | Number of local auxiliary basis functions on task:      0   256
  | Number of local auxiliary basis functions on task:      1   256
  | Number of local auxiliary basis functions on task:      2   256
  | Number of local auxiliary basis functions on task:      3   256
  | Number of local auxiliary basis functions on task:      4   256
  | Number of local auxiliary basis functions on task:      5   256
  | Number of local auxiliary basis functions on task:      6   256
  | Number of local auxiliary basis functions on task:      7   256
  | Number of local auxiliary basis functions on task:      8   256
  | Number of local auxiliary basis functions on task:      9   256
  | Number of local auxiliary basis functions on task:     10   256
  | Number of local auxiliary basis functions on task:     11   256
  | Number of local auxiliary basis functions on task:     12   256
  | Number of local auxiliary basis functions on task:     13   256
  | Number of local auxiliary basis functions on task:     14   240
  | Number of local auxiliary basis functions on task:     15   240
  | Number of local auxiliary basis functions on task:     16   240
  | Number of local auxiliary basis functions on task:     17   240
  | 2D aux task distribution:      3 X      6
  | 2D block size (nb_aux_2d):     64
 
  Basis pair condensation :    295296  -->     231820
dP_dE (Bohr^3) at every cycle:--->
 (356.105992220397,0.000000000000000E+000) (8.29216273884356,0.000000000000000E+000) (3.17495300218729,0.000000000000000E+000)
 (8.28464963918625,0.000000000000000E+000) (355.398480639265,0.000000000000000E+000) (6.63662057155269,0.000000000000000E+000)
 (3.16387057238504,0.000000000000000E+000) (6.62900368810945,0.000000000000000E+000) (345.377919084140,0.000000000000000E+000)
DFPT polarizability (Bohr^3)        xx        yy        zz        xy        xz        yz
  | Polarizability:--->                       356.105992220                  355.398480639                  345.377919084                    8.292162739                    3.174953002                    6.636620572

DFPT for dielectric_constant:--->  # PARSE DFPT_dielectric_tensor
               1.711370026478766             0.016564719931606             0.006342399315305
               0.016549711495862             1.709956676119045             0.013257549872379
               0.006320260658405             0.013242334114444             1.689939245088594

                                               :  max(cpu_time)    wall_clock(cpu1)
  | Time for  dielectric calculation            :        0.000 s           0.000 s
===========================================================================

------------------------------------------------------------------------------
  Final output of selected total energy values:

  The following output summarizes some interesting total energy values
  at the end of a run (AFTER all relaxation, molecular dynamics, etc.).

  | Total energy of the DFT / Hartree-Fock s.c.f. calculation      :         -66110.751044596 eV
  | Final zero-broadening corrected energy (caution - metals only) :         -66110.751044596 eV
  | For reference only, the value of 1 Hartree used in FHI-aims is :             27.211384500 eV
  | For reference only, the overall average (free atom contribution
  | + realspace contribution) of the electrostatic potential after
  | s.c.f. convergence is                                          :             -5.174069976 eV

  Before relying on these values, please be sure to understand exactly which
  total energy value is referred to by a given number. Different objects may
  all carry the same name 'total energy'. Definitions:

  Total energy of the DFT / Hartree-Fock s.c.f. calculation:
  | Note that this energy does not include ANY quantities calculated after the
  | s.c.f. cycle, in particular not ANY RPA, MP2, etc. many-body perturbation terms.

  Final zero-broadening corrected energy:
  | For metallic systems only, a broadening of the occupation numbers at the Fermi
  | level can be extrapolated back to zero broadening by an electron-gas inspired
  | formula. For all systems that are not real metals, this value can be
  | meaningless and should be avoided.

------------------------------------------------------------------------------
  Methods described in the following list of references were used in this FHI-aims run.
  If you publish the results, please make sure to cite these reference if they apply.
  FHI-aims is an academic code, and for our developers (often, Ph.D. students
  and postdocs), scientific credit in the community is essential.
  Thank you for helping us!

  For any use of FHI-aims, please cite:

    Volker Blum, Ralf Gehrke, Felix Hanke, Paula Havu, Ville Havu,
    Xinguo Ren, Karsten Reuter, and Matthias Scheffler
    'Ab initio molecular simulations with numeric atom-centered orbitals'
    Computer Physics Communications 180, 2175-2196 (2009)
    http://doi.org/10.1016/j.cpc.2009.06.022


  For Hartree-Fock, hybrid functionals, or many-body perturbation theory used in your run, please cite:

    Xinguo Ren, Patrick Rinke, Volker Blum, Juergen Wieferink, Alex Tkatchenko,
    Andrea Sanfilippo, Karsten Reuter, and Matthias Scheffler,
    'Resolution-of-identity approach to Hartree-Fock, hybrid density functionals,
    RPA, MP2, and GW with numeric atom-centered orbital basis functions'
    New Journal of Physics 14, 053020 (2012).
    http://doi.org/10.1088/1367-2630/14/5/053020


  The provided symmetry information was generated with SPGlib:

    Atsushi Togo, Yusuke Seto, Dimitar Pashov
    SPGlib 1.7.3 obtained from http://spglib.sourceforge.net
    Copyright (C) 2008 Atsushi Togo


  The DFPT (perturbation by an electric field) part of the code was used.
  Here is the corresponding reference:

    Honghui Shang, Nathaniel Raimbault, Mariana Rossi,
    Christian Carbogno, Patrick Rinke and Matthias Scheffler,
    'All-Electron, Real-Space Perturbation Theory for Homogeneous
    Electric Fields: Theory, Implementation, and Application within dft'
    New Journal of Physics, 20(7):073040, 2018


  The ELSI infrastructure was used in your run to solve the Kohn-Sham electronic structure.
  Please check out http://elsi-interchange.org to learn more.
  If scalability is important for your project, please acknowledge ELSI by citing:

    V. W-z. Yu, F. Corsetti, A. Garcia, W. P. Huhn, M. Jacquelin, W. Jia,
    B. Lange, L. Lin, J. Lu, W. Mi, A. Seifitokaldani, A. Vazquez-Mayagoitia,
    C. Yang, H. Yang, and V. Blum
    'ELSI: A unified software interface for Kohn-Sham electronic structure solvers'
    Computer Physics Communications 222, 267-285 (2018).
    http://doi.org/10.1016/j.cpc.2017.09.007


  For the real-space grid partitioning and parallelization used in this calculation, please cite:

    Ville Havu, Volker Blum, Paula Havu, and Matthias Scheffler,
    'Efficient O(N) integration for all-electron electronic structure calculation'
    'using numerically tabulated basis functions'
    Journal of Computational Physics 228, 8367-8379 (2009).
    http://doi.org/10.1016/j.jcp.2009.08.008


  The high-level electronic structure method used in your calculation
  employed our efficient localized resolution of identity for the Coulomb operator.
  Some calculations, especially large-scale hybrid density functional theory,
  are only possible thanks to this development. For this feature, please cite:

    Arvid Ihrig, Juergen Wieferink, Igor Ying Zhang, Matti Ropo, Xinguo Ren,
    Patrick Rinke, Matthias Scheffler, and Volker Blum,
    'Accurate localized resolution of identity approach for linear-scaling
    hybrid density functionals and for many-body perturbation theory'
    New Journal of Physics 117, 093020 (2015).
    http://doi.org/10.1088/1367-2630/17/9/093020

  Of course, there are many other important community references, e.g., those cited in the
  above references. Our list is limited to references that describe implementations in the
  FHI-aims code. The reason is purely practical (length of this list) - please credit others as well.

------------------------------------------------------------
          Leaving FHI-aims.
          Date     :  20230221, Time     :  144222.069

          Computational steps:
          | Number of self-consistency cycles          :           45
          | Number of SCF (re)initializations          :            1
          | Number of coupled perturbed self-consistency cycles          :            0
          | Number of CPSCF (re)initializations          :            0

          Detailed time accounting                     :  max(cpu_time)    wall_clock(cpu1)
          | Total time                                  :      538.880 s         559.550 s
          | GPU initialization                          :        2.045 s          12.130 s
          | Preparation time                            :        0.076 s           0.069 s
          | Boundary condition initalization            :        1.271 s           1.271 s
          | Grid partitioning                           :        0.406 s           0.406 s
          | Preloading free-atom quantities on grid     :        2.579 s           2.581 s
          | Free-atom superposition energy              :        0.327 s           0.327 s
          | Total time for integrations                 :       13.000 s          13.295 s
          | Product basis setup: Total time             :        0.000 s           0.000 s
          | Product basis: | 2-center integrations     :(       0.000 s)  (       0.000 s)
          | Product basis: | LVL 3-center & coefficient:(       0.000 s)  (       0.000 s)
          | Total time for solution of K.-S. equations  :        3.702 s          12.731 s
          | Total time for density update               :        9.450 s          10.259 s
          | Total time for mixing & preconditioning     :        8.073 s           8.078 s
          | Total time for Hartree multipole update     :        0.103 s           0.104 s
          | Total time for Hartree multipole sum        :       35.838 s          35.849 s
          | Total time for total energy evaluation      :        0.009 s           0.006 s
          | Total time for DFPT                         :      461.094 s         461.275 s
          | Total time first_order_DM                   :        0.312 s           0.312 s
          | Total time first_order_density              :       97.064 s          97.090 s
          | Total time first_order_potential            :       53.159 s          53.175 s
          | Total time first_order_H                    :      196.070 s         196.137 s
          | Total time solving of Sternheimer equations :        0.184 s           0.186 s
          | Total time for dielectric constant          :        0.000 s           0.000 s
          | Total time momentum matrix                  :        0.000 s           0.000 s

          GPU acceleration has been used for charge density update.
          GPU acceleration has been used for real-space Hamiltonian integration.
          Due to GPU usage, wall_clock(cpu1) will give a more reliable estimate for timings.

          Partial memory accounting:
          | Residual value for overall tracked memory usage across tasks:     0.000000 MB (should be 0.000000 MB)
          | Peak values for overall tracked memory usage:
          |   Minimum:      121.802 MB (on task  0 after allocating DFPT_pulay_mixing::pulay_mix::alphas)
          |   Maximum:      121.802 MB (on task  0 after allocating DFPT_pulay_mixing::pulay_mix::alphas)
          |   Average:      121.802 MB
          | Largest tracked array allocation:
          |   Minimum:       43.454 MB (DFPT_pulay_mixing::initialize_pulay_mixing::X_in_diffs on task  0)
          |   Maximum:       43.454 MB (DFPT_pulay_mixing::initialize_pulay_mixing::X_in_diffs on task  0)
          |   Average:       43.454 MB
          Note:  These values currently only include a subset of arrays which are explicitly tracked.
          The "true" memory usage will be greater.

          Have a nice day.
------------------------------------------------------------
