------------------------------------------------------------
          Invoking FHI-aims ...

          When using FHI-aims, please cite the following reference:

            Volker Blum, Ralf Gehrke, Felix Hanke, Paula Havu,
            Ville Havu, Xinguo Ren, Karsten Reuter, and Matthias Scheffler,
            'Ab Initio Molecular Simulations with Numeric Atom-Centered Orbitals',
            Computer Physics Communications 180, 2175-2196 (2009)

          In addition, many other developments in FHI-aims are likely important for
          your particular application. A partial list of references is given at the end of
          this file. Thank you for giving credit to the authors of these developments.

          For any questions about FHI-aims, please visit our slack channel at

            https://fhi-aims.slack.com

          and our main development and support site at

            https://aims-git.rz-berlin.mpg.de .

          The latter site, in particular, has a wiki to collect information, as well
          as an issue tracker to log discussions, suggest improvements, and report issues
          or bugs. https://aims-git.rz-berlin.mpg.de is also the main development site
          of the project and all new and updated code versions can be obtained there.
          Please send an email to aims-coordinators@fhi-berlin.mpg.de and we will add
          you to these sites. They are for you and everyone is welcome there.

------------------------------------------------------------



  Date     :  20230221, Time     :  124340.570
  Time zero on CPU 1             :   0.443121000000000E+00  s.
  Internal wall clock time zero  :           446215420.570  s.

  FHI-aims created a unique identifier for this run for later identification
  aims_uuid : F7E1ACFF-D569-4C77-A5D5-176046BFB069

  Build configuration of the current instance of FHI-aims
  -------------------------------------------------------
  FHI-aims version      : 221103
  Commit number         : 42523251a
  CMake host system     : Linux-5.3.18-150300.59.68-default
  CMake version         : 3.17.0
  Fortran compiler      : /mpcdf/soft/SLE_15/packages/x86_64/intel_oneapi/2021.3/mpi/2021.3.0/bin/mpiifort (Intel) version 20.2.3.20210609
  Fortran compiler flags: -O3 -ip -fp-model precise
  C compiler            : /mpcdf/soft/SLE_15/packages/x86_64/intel/2021.3.0/bin/icc (Intel) version 20.2.3.20210609
  C compiler flags      : -O3 -ip -fp-model precise -std=gnu99
  CUDA compiler         : /mpcdf/soft/SLE_15/packages/x86_64/cuda/11.6.2/bin/nvcc
  CUDA compiler flags   : -O3 -DAdd_ -lcublas
  HIP compiler          :
  HIP compiler flags    :
  HIP GPU arch          :
  ELPA2 kernel          : AVX512
  Using MPI
  Using ScaLAPACK
  Using LibXC
  Using CUDA
  Using i-PI
  Using RLSY
  Linking against: /mpcdf/soft/SLE_15/packages/x86_64/cuda/11.6.2/lib64/libcublas.so
                   /mpcdf/soft/SLE_15/packages/x86_64/cuda/11.6.2/lib64/libcudart.so
                   /mpcdf/soft/SLE_15/packages/x86_64/intel_oneapi/2021.3/mkl/latest/lib/intel64/libmkl_intel_lp64.so
                   /mpcdf/soft/SLE_15/packages/x86_64/intel_oneapi/2021.3/mkl/latest/lib/intel64/libmkl_sequential.so
                   /mpcdf/soft/SLE_15/packages/x86_64/intel_oneapi/2021.3/mkl/latest/lib/intel64/libmkl_core.so
                   /mpcdf/soft/SLE_15/packages/x86_64/intel_oneapi/2021.3/mkl/latest/lib/intel64/libmkl_blacs_intelmpi_lp64.so
                   /mpcdf/soft/SLE_15/packages/x86_64/intel_oneapi/2021.3/mkl/latest/lib/intel64/libmkl_scalapack_lp64.so

  Using       18 parallel tasks.
  Task        0 on host adag038 reporting.
  Task        1 on host adag038 reporting.
  Task        2 on host adag038 reporting.
  Task        3 on host adag038 reporting.
  Task        4 on host adag038 reporting.
  Task        5 on host adag038 reporting.
  Task        6 on host adag038 reporting.
  Task        7 on host adag038 reporting.
  Task        8 on host adag038 reporting.
  Task        9 on host adag038 reporting.
  Task       10 on host adag038 reporting.
  Task       11 on host adag038 reporting.
  Task       12 on host adag038 reporting.
  Task       13 on host adag038 reporting.
  Task       14 on host adag038 reporting.
  Task       15 on host adag038 reporting.
  Task       16 on host adag038 reporting.
  Task       17 on host adag038 reporting.

  Obtaining array dimensions for all initial allocations:
  
  -----------------------------------------------------------------------
  Parsing control.in (first pass over file, find array dimensions only).
  The contents of control.in will be repeated verbatim below
  unless switched off by setting 'verbatim_writeout .false.' .
  in the first line of control.in .
  -----------------------------------------------------------------------
  
  #########################################################################################
  #
  #  Volker Blum, 2017 : Test run input file control.in for simple H2O
  #
  #########################################################################################
  #
  #  Physical model
  #
    xc                 pw-lda
    spin               none
    relativistic       none
    charge             0.
  
    use_gpu
  
    DFPT dielectric
    ri_density_restart write
    ri_rho1 write
  #  ri_density_restart read 0
  #  ri_rho1 read
    ri_full_output .true.
    sc_accuracy_rho    1d-6
  #  use_calculate_fock_matrix_old .false.
  #  wave_threshold 1e-8
    k_grid 1 1 1
  #  output cube eigenstate 160
  #  output cube eigenstate 161
    wave_threshold 1e-8
    default_prodbas_acc 1e-6
    default_max_l_prodbas 6
  #
  #  Relaxation
  #
  #  relax_geometry   bfgs 1.e-2
  #
  
  ################################################################################
  
  
  ################################################################################
  #
  #  FHI-aims code project
  #  VB, Fritz-Haber Institut, 2009
  #
  #  Suggested "light" defaults for H atom (to be pasted into control.in file)
  #  Be sure to double-check any results obtained with these settings for post-processing,
  #  e.g., with the "tight" defaults and larger basis sets.
  #
  ################################################################################
    species        H
  #     global species definitions
      nucleus             1
      mass                1.00794
  #
      l_hartree           4
  #
      cut_pot             3.5  1.5  1.0
      basis_dep_cutoff    1e-4
  #
      radial_base         24 5.0
      radial_multiplier   1
      angular_grids       specified
        division   0.2421   50
        division   0.3822  110
        division   0.4799  194
        division   0.5341  302
  #      division   0.5626  434
  #      division   0.5922  590
  #      division   0.6542  770
  #      division   0.6868 1202
  #      outer_grid  770
        outer_grid  302
  ################################################################################
  #
  #  Definition of "minimal" basis
  #
  ################################################################################
  #     valence basis states
      valence      1  s   1.
  #     ion occupancy
      ion_occ      1  s   0.5
  ################################################################################
  #
  #  Suggested additional basis functions. For production calculations,
  #  uncomment them one after another (the most important basis functions are
  #  listed first).
  #
  #  Basis constructed for dimers: 0.5 A, 0.7 A, 1.0 A, 1.5 A, 2.5 A
  #
  ################################################################################
  #  "First tier" - improvements: -1014.90 meV to -62.69 meV
       hydro 2 s 2.1
       hydro 2 p 3.5
  #  "Second tier" - improvements: -12.89 meV to -1.83 meV
  #     hydro 1 s 0.85
  #     hydro 2 p 3.7
  #     hydro 2 s 1.2
  #     hydro 3 d 7
  #  "Third tier" - improvements: -0.25 meV to -0.12 meV
  #     hydro 4 f 11.2
  #     hydro 3 p 4.8
  #     hydro 4 d 9
  #     hydro 3 s 3.2
  ################################################################################
  #
  #  FHI-aims code project
  #  VB, Fritz-Haber Institut, 2009
  #
  #  Suggested "light" defaults for O atom (to be pasted into control.in file)
  #  Be sure to double-check any results obtained with these settings for post-processing,
  #  e.g., with the "tight" defaults and larger basis sets.
  #
  ################################################################################
    species        O
  #     global species definitions
      nucleus             8
      mass                15.9994
  #
      l_hartree           4
  #
      cut_pot             3.5  1.5  1.0
      basis_dep_cutoff    1e-4
  #
      radial_base         36 5.0
      radial_multiplier   1
       angular_grids specified
        division   0.2659   50
        division   0.4451  110
        division   0.6052  194
        division   0.7543  302
  #      division   0.8014  434
  #      division   0.8507  590
  #      division   0.8762  770
  #      division   0.9023  974
  #      division   1.2339 1202
  #      outer_grid 974
        outer_grid 302
  ################################################################################
  #
  #  Definition of "minimal" basis
  #
  ################################################################################
  #     valence basis states
      valence      2  s   2.
      valence      2  p   4.
  #     ion occupancy
      ion_occ      2  s   1.
      ion_occ      2  p   3.
  ################################################################################
  #
  #  Suggested additional basis functions. For production calculations,
  #  uncomment them one after another (the most important basis functions are
  #  listed first).
  #
  #  Constructed for dimers: 1.0 A, 1.208 A, 1.5 A, 2.0 A, 3.0 A
  #
  ################################################################################
  #  "First tier" - improvements: -699.05 meV to -159.38 meV
       hydro 2 p 1.8
       hydro 3 d 7.6
       hydro 3 s 6.4
  #  "Second tier" - improvements: -49.91 meV to -5.39 meV
  #     hydro 4 f 11.6
  #     hydro 3 p 6.2
  #     hydro 3 d 5.6
  #     hydro 5 g 17.6
  #     hydro 1 s 0.75
  #  "Third tier" - improvements: -2.83 meV to -0.50 meV
  #     ionic 2 p auto
  #     hydro 4 f 10.8
  #     hydro 4 d 4.7
  #     hydro 2 s 6.8
  #  "Fourth tier" - improvements: -0.40 meV to -0.12 meV
  #     hydro 3 p 5
  #     hydro 3 s 3.3
  #     hydro 5 g 15.6
  #     hydro 4 f 17.6
  #     hydro 4 d 14
  # Further basis functions - -0.08 meV and below
  #     hydro 3 s 2.1
  #     hydro 4 d 11.6
  #     hydro 3 p 16
  #     hydro 2 s 17.2
  
  -----------------------------------------------------------------------
  Completed first pass over input file control.in .
  -----------------------------------------------------------------------
  
  
  -----------------------------------------------------------------------
  Parsing geometry.in (first pass over file, find array dimensions only).
  The contents of geometry.in will be repeated verbatim below
  unless switched off by setting 'verbatim_writeout .false.' .
  in the first line of geometry.in .
  -----------------------------------------------------------------------
  
  #=======================================================
  # FHI-aims file: /ada/ptmp/mpsd/alewis/bulk_water/qmdata/data/geoms/338.in
  # Created using the Atomic Simulation Environment (ASE)
  # Tue Feb 21 11:23:37 2023
  #=======================================================
  lattice_vector 10.2801799999999997 0.0000000000000000 0.0000000000000000
  lattice_vector 0.0000000000000000 10.2801799999999997 0.0000000000000000
  lattice_vector 0.0000000000000000 0.0000000000000000 10.2801799999999997
  atom 25.8709999999999987 14.8740000000000006 20.1417999999999999 O
  atom 26.6956999999999987 14.3335000000000008 20.0515000000000008 H
  atom 26.2159000000000013 15.3961000000000006 20.8828999999999994 H
  atom 19.5011000000000010 24.4614000000000011 -3.1564700000000001 O
  atom 18.8304000000000009 24.1031000000000013 -2.6525799999999999 H
  atom 19.8963000000000001 23.7496000000000009 -3.5144700000000002 H
  atom -15.9872999999999994 9.0784300000000009 2.6743800000000002 O
  atom -15.8524999999999991 10.1732999999999993 2.8590900000000001 H
  atom -16.8478999999999992 9.1958400000000005 2.4208599999999998 H
  atom 5.6788200000000000 -18.9440999999999988 3.5017800000000001 O
  atom 5.2093800000000003 -18.3942000000000014 4.0536500000000002 H
  atom 6.2743799999999998 -18.4105999999999987 2.9439600000000001 H
  atom -6.4765499999999996 -5.9242200000000000 23.2649000000000008 O
  atom -6.7052300000000002 -6.5865400000000003 22.6569000000000003 H
  atom -6.5434099999999997 -6.1318400000000004 24.1485999999999983 H
  atom 16.4695000000000000 0.0040180000000000 18.5941000000000010 O
  atom 16.2955000000000005 -0.3092380000000000 17.7514000000000003 H
  atom 17.3405999999999985 -0.1654120000000000 18.9024000000000001 H
  atom 15.1837000000000000 6.2785200000000003 -12.6510999999999996 O
  atom 14.4289000000000005 5.8676199999999996 -13.2309000000000001 H
  atom 15.6760999999999999 5.6184900000000004 -12.2331000000000003 H
  atom -28.8863999999999983 -11.7691999999999997 -24.7291999999999987 O
  atom -28.7262999999999984 -11.8640000000000008 -23.7993999999999986 H
  atom -28.2769000000000013 -12.1517999999999997 -25.4286999999999992 H
  atom -12.1854999999999993 -0.6731610000000000 -0.5542830000000000 O
  atom -11.2859999999999996 -0.0373530000000000 -0.5660080000000000 H
  atom -12.1529000000000007 -0.8744940000000000 0.3908950000000000 H
  atom 4.1430499999999997 -13.1600999999999999 15.3697999999999997 O
  atom 4.6703999999999999 -12.6308000000000007 16.0357999999999983 H
  atom 4.3949699999999998 -12.6311999999999998 14.3826999999999998 H
  atom -15.7457999999999991 -6.8673299999999999 15.9562000000000008 O
  atom -16.0923000000000016 -7.4277300000000004 16.5212000000000003 H
  atom -16.2498000000000005 -6.1933400000000001 16.4148999999999994 H
  atom 18.7898999999999994 5.9297899999999997 11.6236999999999995 O
  atom 17.9494000000000007 6.2967800000000000 11.5843000000000007 H
  atom 19.2336999999999989 6.2578899999999997 11.0387000000000004 H
  atom -11.0159000000000002 -0.4318730000000000 -6.7392500000000002 O
  atom -11.6145999999999994 -0.2640490000000000 -5.9762599999999999 H
  atom -10.7518999999999991 -1.2877400000000001 -6.5363199999999999 H
  atom -7.2784100000000000 5.3372400000000004 -14.0932999999999993 O
  atom -7.3342599999999996 5.8946399999999999 -14.9049999999999994 H
  atom -8.1709999999999994 5.4768999999999997 -13.5382999999999996 H
  atom -7.6936299999999997 -1.8014399999999999 -1.5930299999999999 O
  atom -8.3497599999999998 -2.0931400000000000 -0.7775990000000000 H
  atom -6.9739800000000001 -2.4168599999999998 -1.6652899999999999 H
  atom -0.4324210000000000 11.2507000000000001 6.7420799999999996 O
  atom -1.2430699999999999 11.2401999999999997 6.3142899999999997 H
  atom 0.2619590000000000 10.5914999999999999 6.4660799999999998 H
  atom -13.2989999999999995 3.0952799999999998 19.2807999999999993 O
  atom -12.8567999999999998 3.1557599999999999 20.1351000000000013 H
  atom -13.4947999999999997 2.0170100000000000 19.2628999999999984 H
  atom 21.6438999999999986 -15.4135000000000009 18.5226000000000006 O
  atom 20.9283000000000001 -15.7706000000000000 18.0418999999999983 H
  atom 22.3564000000000007 -16.0635000000000012 18.7350999999999992 H
  atom 16.9878999999999998 18.2622000000000000 6.4005000000000001 O
  atom 17.3622000000000014 17.4266000000000005 6.1568399999999999 H
  atom 16.5418999999999983 17.7363000000000000 7.2204800000000002 H
  atom 0.4734390000000000 1.3160099999999999 -11.1594999999999995 O
  atom 0.0990740000000000 1.3309500000000001 -11.9657000000000000 H
  atom 1.3057200000000000 1.7257600000000000 -11.3271999999999995 H
  atom 43.9254000000000033 12.3070000000000004 21.6880999999999986 O
  atom 43.8830999999999989 11.3045000000000009 21.7662000000000013 H
  atom 43.8164999999999978 12.8529000000000000 20.8428000000000004 H
  atom -18.9544999999999995 16.1185000000000009 12.3353999999999999 O
  atom -19.4243999999999986 16.1556999999999995 13.0983000000000001 H
  atom -18.1091000000000015 15.7752999999999997 12.6143999999999998 H
  atom 28.1412000000000013 15.6407000000000007 15.4360999999999997 O
  atom 28.5848000000000013 14.9475999999999996 15.9856999999999996 H
  atom 27.3762000000000008 15.1638000000000002 15.0854999999999997 H
  atom -8.5526499999999999 -1.3217800000000000 1.5995100000000000 O
  atom -9.4541799999999991 -1.2970299999999999 1.9376300000000000 H
  atom -8.4756699999999991 -2.2302700000000000 2.0938699999999999 H
  atom -4.7308000000000003 17.0411999999999999 -8.4692100000000003 O
  atom -4.9956899999999997 18.0238000000000014 -8.1456900000000001 H
  atom -5.5203600000000002 16.6384000000000007 -8.1819100000000002 H
  atom 7.5792900000000003 3.2763700000000000 11.9795999999999996 O
  atom 7.8218100000000002 4.0719399999999997 12.0508000000000006 H
  atom 8.4118899999999996 2.8799500000000000 12.1694999999999993 H
  atom -17.0470000000000006 1.1006400000000001 28.4612000000000016 O
  atom -17.4395999999999987 0.2177070000000000 28.3355999999999995 H
  atom -16.1753999999999998 0.7275410000000000 28.8945000000000007 H
  atom -10.0321999999999996 6.8129499999999998 -0.0693670000000000 O
  atom -9.7314000000000007 6.4210500000000001 -0.9413530000000000 H
  atom -9.5582300000000000 6.6936400000000003 0.7068410000000001 H
  atom 9.5933899999999994 27.2667999999999999 13.8946000000000005 O
  atom 8.9635800000000003 27.0766999999999989 14.5967000000000002 H
  atom 9.1744500000000002 27.2463000000000015 13.1353000000000009 H
  atom -2.9495000000000000 10.5478000000000005 -15.3585999999999991 O
  atom -3.1721599999999999 9.6613100000000003 -15.3338999999999999 H
  atom -3.5371400000000000 10.8879000000000001 -16.2195999999999998 H
  atom 33.8031999999999968 13.7181999999999995 -1.1652499999999999 O
  atom 34.0670000000000002 12.8676999999999992 -1.6705800000000000 H
  atom 34.5882000000000005 13.9443999999999999 -0.9997390000000000 H
  atom 10.1216000000000008 2.0473499999999998 -18.4896999999999991 O
  atom 10.1390999999999991 1.3864799999999999 -17.7822999999999993 H
  atom 10.8521999999999998 1.9292899999999999 -19.1447000000000003 H
  
  -----------------------------------------------------------------------
  Completed first pass over input file geometry.in .
  -----------------------------------------------------------------------
  

  Basic array size parameters:
  | Number of species                 :        2
  | Number of atoms                   :       96
  | Number of lattice vectors         :        3
  | Max. basis fn. angular momentum   :        2
  | Max. atomic/ionic basis occupied n:        2
  | Max. number of basis fn. types    :        2
  | Max. radial fns per species/type  :        3
  | Max. logarithmic grid size        :     1301
  | Max. radial integration grid size :       36
  | Max. angular integration grid size:      302
  | Max. angular grid division number :        8
  | Radial grid for Hartree potential :     1301
  | Number of spin channels           :        1

------------------------------------------------------------
          Reading file control.in.
------------------------------------------------------------
  XC: Using Perdew-Wang parametrisation of Ceperley-Alder LDA.
  Spin treatment: No spin polarisation.
  Non-relativistic treatment of kinetic energy.
  Charge =   0.000000E+00: Neutral system requested explicitly.
  DFPT calculation will begin after the DFT/HF calculation.
  Convergence accuracy of self-consistent charge density:  0.1000E-05
  Found k-point grid:         1         1         1
  Threshold value for wave function integration:  0.1000E-07
 
  Reading configuration options for species H                   .
  | Found nuclear charge :   1.0000
  | Found atomic mass :    1.00794000000000      amu
  | Found l_max for Hartree potential  :   4
  | Found cutoff potl. onset [A], width [A], scale factor :    3.50000    1.50000    1.00000
  | Threshold for basis-dependent cutoff potential is   0.100000E-03
  | Found data for basic radial integration grid :    24 points, outermost radius =    5.000 A
  | Found multiplier for basic radial grid :   1
  | Found angular grid specification: user-specified.
  | Specified grid contains     5 separate shells.
  | Check grid settings after all constraints further below.
  | Found free-atom valence shell :  1 s   1.000
  | No ionic wave fns used. Skipping ion_occ.
  | Found hydrogenic basis function :  2 s   2.100
  | Found hydrogenic basis function :  2 p   3.500
  Species H                   : Missing cutoff potential type.
  Defaulting to exp(1/x)/(1-x)^2 type cutoff potential.
  Species H : No 'logarithmic' tag. Using default grid for free atom:
  | Default logarithmic grid data [bohr] : 0.1000E-03 0.1000E+03 0.1012E+01
  Species H : On-site basis accuracy parameter (for Gram-Schmidt orthonormalisation) not specified.
  Using default value basis_acc =  0.1000000E-03.
  Species H                   : Using default innermost maximum threshold i_radial=  2 for radial functions.
  Species H                   : Default cutoff onset for free atom density etc. : 0.35000000E+01 AA.
  Species H                   : Basic radial grid will be enhanced according to radial_multiplier =   1, to contain    24 grid points.
 
  Reading configuration options for species O                   .
  | Found nuclear charge :   8.0000
  | Found atomic mass :    15.9994000000000      amu
  | Found l_max for Hartree potential  :   4
  | Found cutoff potl. onset [A], width [A], scale factor :    3.50000    1.50000    1.00000
  | Threshold for basis-dependent cutoff potential is   0.100000E-03
  | Found data for basic radial integration grid :    36 points, outermost radius =    5.000 A
  | Found multiplier for basic radial grid :   1
  | Found angular grid specification: user-specified.
  | Specified grid contains     5 separate shells.
  | Check grid settings after all constraints further below.
  | Found free-atom valence shell :  2 s   2.000
  | Found free-atom valence shell :  2 p   4.000
  | No ionic wave fns used. Skipping ion_occ.
  | No ionic wave fns used. Skipping ion_occ.
  | Found hydrogenic basis function :  2 p   1.800
  | Found hydrogenic basis function :  3 d   7.600
  | Found hydrogenic basis function :  3 s   6.400
  Species O                   : Missing cutoff potential type.
  Defaulting to exp(1/x)/(1-x)^2 type cutoff potential.
  Species O : No 'logarithmic' tag. Using default grid for free atom:
  | Default logarithmic grid data [bohr] : 0.1000E-03 0.1000E+03 0.1012E+01
  Species O : On-site basis accuracy parameter (for Gram-Schmidt orthonormalisation) not specified.
  Using default value basis_acc =  0.1000000E-03.
  Species O                   : Using default innermost maximum threshold i_radial=  2 for radial functions.
  Species O                   : Default cutoff onset for free atom density etc. : 0.35000000E+01 AA.
  Species O                   : Basic radial grid will be enhanced according to radial_multiplier =   1, to contain    36 grid points.
 
  Finished reading input file 'control.in'.
 
------------------------------------------------------------


------------------------------------------------------------
          Reading geometry description geometry.in.
------------------------------------------------------------
  | The smallest distance between any two atoms is         0.80425932 AA.
  | The first atom of this pair is atom number                     34 .
  | The second atom of this pair is atom number                    36 .
  | Wigner-Seitz cell of the first atom image           0     0     0 .
  | (The Wigner-Seitz cell of the second atom is 0 0 0  by definition.)

  Symmetry information by spglib:
  | Precision set to  0.1E-04
  | Number of Operations  : 1
  | Space group           : 1
  | International         : P1
  | Schoenflies           : C1^1
  Input structure read successfully.
  The structure contains       96 atoms,  and a total of        320.000 electrons.

  Input geometry:
  | Unit cell:
  |       10.28018000        0.00000000        0.00000000
  |        0.00000000       10.28018000        0.00000000
  |        0.00000000        0.00000000       10.28018000
  | Atomic structure:
  |       Atom                x [A]            y [A]            z [A]
  |    1: Species O            25.87100000       14.87400000       20.14180000
  |    2: Species H            26.69570000       14.33350000       20.05150000
  |    3: Species H            26.21590000       15.39610000       20.88290000
  |    4: Species O            19.50110000       24.46140000       -3.15647000
  |    5: Species H            18.83040000       24.10310000       -2.65258000
  |    6: Species H            19.89630000       23.74960000       -3.51447000
  |    7: Species O           -15.98730000        9.07843000        2.67438000
  |    8: Species H           -15.85250000       10.17330000        2.85909000
  |    9: Species H           -16.84790000        9.19584000        2.42086000
  |   10: Species O             5.67882000      -18.94410000        3.50178000
  |   11: Species H             5.20938000      -18.39420000        4.05365000
  |   12: Species H             6.27438000      -18.41060000        2.94396000
  |   13: Species O            -6.47655000       -5.92422000       23.26490000
  |   14: Species H            -6.70523000       -6.58654000       22.65690000
  |   15: Species H            -6.54341000       -6.13184000       24.14860000
  |   16: Species O            16.46950000        0.00401800       18.59410000
  |   17: Species H            16.29550000       -0.30923800       17.75140000
  |   18: Species H            17.34060000       -0.16541200       18.90240000
  |   19: Species O            15.18370000        6.27852000      -12.65110000
  |   20: Species H            14.42890000        5.86762000      -13.23090000
  |   21: Species H            15.67610000        5.61849000      -12.23310000
  |   22: Species O           -28.88640000      -11.76920000      -24.72920000
  |   23: Species H           -28.72630000      -11.86400000      -23.79940000
  |   24: Species H           -28.27690000      -12.15180000      -25.42870000
  |   25: Species O           -12.18550000       -0.67316100       -0.55428300
  |   26: Species H           -11.28600000       -0.03735300       -0.56600800
  |   27: Species H           -12.15290000       -0.87449400        0.39089500
  |   28: Species O             4.14305000      -13.16010000       15.36980000
  |   29: Species H             4.67040000      -12.63080000       16.03580000
  |   30: Species H             4.39497000      -12.63120000       14.38270000
  |   31: Species O           -15.74580000       -6.86733000       15.95620000
  |   32: Species H           -16.09230000       -7.42773000       16.52120000
  |   33: Species H           -16.24980000       -6.19334000       16.41490000
  |   34: Species O            18.78990000        5.92979000       11.62370000
  |   35: Species H            17.94940000        6.29678000       11.58430000
  |   36: Species H            19.23370000        6.25789000       11.03870000
  |   37: Species O           -11.01590000       -0.43187300       -6.73925000
  |   38: Species H           -11.61460000       -0.26404900       -5.97626000
  |   39: Species H           -10.75190000       -1.28774000       -6.53632000
  |   40: Species O            -7.27841000        5.33724000      -14.09330000
  |   41: Species H            -7.33426000        5.89464000      -14.90500000
  |   42: Species H            -8.17100000        5.47690000      -13.53830000
  |   43: Species O            -7.69363000       -1.80144000       -1.59303000
  |   44: Species H            -8.34976000       -2.09314000       -0.77759900
  |   45: Species H            -6.97398000       -2.41686000       -1.66529000
  |   46: Species O            -0.43242100       11.25070000        6.74208000
  |   47: Species H            -1.24307000       11.24020000        6.31429000
  |   48: Species H             0.26195900       10.59150000        6.46608000
  |   49: Species O           -13.29900000        3.09528000       19.28080000
  |   50: Species H           -12.85680000        3.15576000       20.13510000
  |   51: Species H           -13.49480000        2.01701000       19.26290000
  |   52: Species O            21.64390000      -15.41350000       18.52260000
  |   53: Species H            20.92830000      -15.77060000       18.04190000
  |   54: Species H            22.35640000      -16.06350000       18.73510000
  |   55: Species O            16.98790000       18.26220000        6.40050000
  |   56: Species H            17.36220000       17.42660000        6.15684000
  |   57: Species H            16.54190000       17.73630000        7.22048000
  |   58: Species O             0.47343900        1.31601000      -11.15950000
  |   59: Species H             0.09907400        1.33095000      -11.96570000
  |   60: Species H             1.30572000        1.72576000      -11.32720000
  |   61: Species O            43.92540000       12.30700000       21.68810000
  |   62: Species H            43.88310000       11.30450000       21.76620000
  |   63: Species H            43.81650000       12.85290000       20.84280000
  |   64: Species O           -18.95450000       16.11850000       12.33540000
  |   65: Species H           -19.42440000       16.15570000       13.09830000
  |   66: Species H           -18.10910000       15.77530000       12.61440000
  |   67: Species O            28.14120000       15.64070000       15.43610000
  |   68: Species H            28.58480000       14.94760000       15.98570000
  |   69: Species H            27.37620000       15.16380000       15.08550000
  |   70: Species O            -8.55265000       -1.32178000        1.59951000
  |   71: Species H            -9.45418000       -1.29703000        1.93763000
  |   72: Species H            -8.47567000       -2.23027000        2.09387000
  |   73: Species O            -4.73080000       17.04120000       -8.46921000
  |   74: Species H            -4.99569000       18.02380000       -8.14569000
  |   75: Species H            -5.52036000       16.63840000       -8.18191000
  |   76: Species O             7.57929000        3.27637000       11.97960000
  |   77: Species H             7.82181000        4.07194000       12.05080000
  |   78: Species H             8.41189000        2.87995000       12.16950000
  |   79: Species O           -17.04700000        1.10064000       28.46120000
  |   80: Species H           -17.43960000        0.21770700       28.33560000
  |   81: Species H           -16.17540000        0.72754100       28.89450000
  |   82: Species O           -10.03220000        6.81295000       -0.06936700
  |   83: Species H            -9.73140000        6.42105000       -0.94135300
  |   84: Species H            -9.55823000        6.69364000        0.70684100
  |   85: Species O             9.59339000       27.26680000       13.89460000
  |   86: Species H             8.96358000       27.07670000       14.59670000
  |   87: Species H             9.17445000       27.24630000       13.13530000
  |   88: Species O            -2.94950000       10.54780000      -15.35860000
  |   89: Species H            -3.17216000        9.66131000      -15.33390000
  |   90: Species H            -3.53714000       10.88790000      -16.21960000
  |   91: Species O            33.80320000       13.71820000       -1.16525000
  |   92: Species H            34.06700000       12.86770000       -1.67058000
  |   93: Species H            34.58820000       13.94440000       -0.99973900
  |   94: Species O            10.12160000        2.04735000      -18.48970000
  |   95: Species H            10.13910000        1.38648000      -17.78230000
  |   96: Species H            10.85220000        1.92929000      -19.14470000

  Lattice parameters for 3D lattice (in Angstroms) :    10.280180   10.280180   10.280180
  Angle(s) between unit vectors (in degrees)       :    90.000000   90.000000   90.000000


  Quantities derived from the lattice vectors (in Angstrom^-1):
  | Reciprocal lattice vector 1:  0.611194  0.000000  0.000000
  | Reciprocal lattice vector 2:  0.000000  0.611194  0.000000
  | Reciprocal lattice vector 3:  0.000000  0.000000  0.611194
  | Unit cell volume                               :   0.108643E+04  Angstrom^3

  Fractional coordinates:
                         L1                L2                L3
       atom_frac         2.51659018        1.44686183        1.95928476  O
       atom_frac         2.59681251        1.39428492        1.95050087  H
       atom_frac         2.55014017        1.49764887        2.03137494  H
       atom_frac         1.89696095        2.37947195       -0.30704423  O
       atom_frac         1.83171890        2.34461848       -0.25802856  H
       atom_frac         1.93540385        2.31023192       -0.34186853  H
       atom_frac        -1.55515759        0.88310030        0.26014914  O
       atom_frac        -1.54204498        0.98960329        0.27811673  H
       atom_frac        -1.63887208        0.89452130        0.23548809  H
       atom_frac         0.55240472       -1.84277902        0.34063411  O
       atom_frac         0.50674015       -1.78928774        0.39431703  H
       atom_frac         0.61033756       -1.79088304        0.28637242  H
       atom_frac        -0.63000356       -0.57627590        2.26308294  O
       atom_frac        -0.65224831       -0.64070279        2.20394001  H
       atom_frac        -0.63650734       -0.59647205        2.34904447  H
       atom_frac         1.60206339        0.00039085        1.80873292  O
       atom_frac         1.58513761       -0.03008099        1.72675965  H
       atom_frac         1.68679926       -0.01609038        1.83872267  H
       atom_frac         1.47698776        0.61074028       -1.23063020  O
       atom_frac         1.40356492        0.57077016       -1.28702999  H
       atom_frac         1.52488575        0.54653615       -1.18996944  H
       atom_frac        -2.80991189       -1.14484377       -2.40552208  O
       atom_frac        -2.79433823       -1.15406540       -2.31507620  H
       atom_frac        -2.75062304       -1.18206101       -2.47356564  H
       atom_frac        -1.18533917       -0.06548144       -0.05391764  O
       atom_frac        -1.09784070       -0.00363350       -0.05505818  H
       atom_frac        -1.18216802       -0.08506602        0.03802414  H
       atom_frac         0.40301337       -1.28014295        1.49509055  O
       atom_frac         0.45431111       -1.22865553        1.55987541  H
       atom_frac         0.42751878       -1.22869444        1.39907083  H
       atom_frac        -1.53166579       -0.66801651        1.55213236  O
       atom_frac        -1.56537142       -0.72252918        1.60709248  H
       atom_frac        -1.58069217       -0.60245443        1.59675220  H
       atom_frac         1.82777928        0.57681772        1.13069032  O
       atom_frac         1.74602001        0.61251651        1.12685770  H
       atom_frac         1.87094973        0.60873350        1.07378470  H
       atom_frac        -1.07156684       -0.04201026       -0.65555759  O
       atom_frac        -1.12980512       -0.02568525       -0.58133807  H
       atom_frac        -1.04588636       -0.12526434       -0.63581766  H
       atom_frac        -0.70800414        0.51917768       -1.37091958  O
       atom_frac        -0.71343692        0.57339852       -1.44987734  H
       atom_frac        -0.79483044        0.53276305       -1.31693219  H
       atom_frac        -0.74839448       -0.17523429       -0.15496129  O
       atom_frac        -0.81221924       -0.20360928       -0.07564060  H
       atom_frac        -0.67839085       -0.23509900       -0.16199035  H
       atom_frac        -0.04206356        1.09440691        0.65583287  O
       atom_frac        -0.12091909        1.09338552        0.61421979  H
       atom_frac         0.02548195        1.03028352        0.62898510  H
       atom_frac        -1.29365439        0.30109200        1.87553136  O
       atom_frac        -1.25063958        0.30697517        1.95863302  H
       atom_frac        -1.31270075        0.19620376        1.87379015  H
       atom_frac         2.10540088       -1.49934145        1.80177779  O
       atom_frac         2.03579120       -1.53407820        1.75501791  H
       atom_frac         2.17470900       -1.56256992        1.82244863  H
       atom_frac         1.65249052        1.77644749        0.62260583  O
       atom_frac         1.68890039        1.69516487        0.59890391  H
       atom_frac         1.60910607        1.72529080        0.70236902  H
       atom_frac         0.04605357        0.12801430       -1.08553547  O
       atom_frac         0.00963738        0.12946758       -1.16395822  H
       atom_frac         0.12701334        0.16787255       -1.10184841  H
       atom_frac         4.27282402        1.19715803        2.10970041  O
       atom_frac         4.26870930        1.09964028        2.11729756  H
       atom_frac         4.26223082        1.25026021        2.02747423  H
       atom_frac        -1.84379067        1.56792002        1.19992062  O
       atom_frac        -1.88949999        1.57153863        1.27413139  H
       atom_frac        -1.76155476        1.53453539        1.22706023  H
       atom_frac         2.73742289        1.52144223        1.50153986  O
       atom_frac         2.78057388        1.45402123        1.55500196  H
       atom_frac         2.66300785        1.47505199        1.46743540  H
       atom_frac        -0.83195528       -0.12857557        0.15559163  O
       atom_frac        -0.91965121       -0.12616802        0.18848211  H
       atom_frac        -0.82446708       -0.21694854        0.20368029  H
       atom_frac        -0.46018649        1.65767525       -0.82383869  O
       atom_frac        -0.48595355        1.75325724       -0.79236842  H
       atom_frac        -0.53699060        1.61849306       -0.79589171  H
       atom_frac         0.73727211        0.31870745        1.16531034  O
       atom_frac         0.76086314        0.39609618        1.17223628  H
       atom_frac         0.81826291        0.28014587        1.18378277  H
       atom_frac        -1.65823945        0.10706427        2.76855075  O
       atom_frac        -1.69642944        0.02117735        2.75633306  H
       atom_frac        -1.57345494        0.07077123        2.81069981  H
       atom_frac        -0.97587785        0.66272672       -0.00674764  O
       atom_frac        -0.94661767        0.62460482       -0.09156970  H
       atom_frac        -0.92977263        0.65112089        0.06875765  H
       atom_frac         0.93319280        2.65236601        1.35159112  O
       atom_frac         0.87192831        2.63387412        1.41988759  H
       atom_frac         0.89244060        2.65037188        1.27773055  H
       atom_frac        -0.28691132        1.02603262       -1.49400108  O
       atom_frac        -0.30857047        0.93979969       -1.49159840  H
       atom_frac        -0.34407374        1.05911570       -1.57775448  H
       atom_frac         3.28819145        1.33443189       -0.11334918  O
       atom_frac         3.31385248        1.25169987       -0.16250494  H
       atom_frac         3.36455198        1.35643539       -0.09724917  H
       atom_frac         0.98457420        0.19915507       -1.79857746  O
       atom_frac         0.98627650        0.13486923       -1.72976543  H
       atom_frac         1.05564299        0.18767084       -1.86229229  H

 
  Finished reading input file 'geometry.in'.
 

 
  Consistency checks for stacksize environment parameter are next.
 
  | Maximum stacksize for task 0: unlimited
  | Maximum stacksize for task 1: unlimited
  | Maximum stacksize for task 2: unlimited
  | Maximum stacksize for task 3: unlimited
  | Maximum stacksize for task 4: unlimited
  | Maximum stacksize for task 5: unlimited
  | Maximum stacksize for task 6: unlimited
  | Maximum stacksize for task 7: unlimited
  | Maximum stacksize for task 8: unlimited
  | Maximum stacksize for task 9: unlimited
  | Maximum stacksize for task 10: unlimited
  | Maximum stacksize for task 11: unlimited
  | Maximum stacksize for task 12: unlimited
  | Maximum stacksize for task 13: unlimited
  | Maximum stacksize for task 14: unlimited
  | Maximum stacksize for task 15: unlimited
  | Maximum stacksize for task 16: unlimited
  | Maximum stacksize for task 17: unlimited
  | Current stacksize for task 0: unlimited
  | Current stacksize for task 1: unlimited
  | Current stacksize for task 2: unlimited
  | Current stacksize for task 3: unlimited
  | Current stacksize for task 4: unlimited
  | Current stacksize for task 5: unlimited
  | Current stacksize for task 6: unlimited
  | Current stacksize for task 7: unlimited
  | Current stacksize for task 8: unlimited
  | Current stacksize for task 9: unlimited
  | Current stacksize for task 10: unlimited
  | Current stacksize for task 11: unlimited
  | Current stacksize for task 12: unlimited
  | Current stacksize for task 13: unlimited
  | Current stacksize for task 14: unlimited
  | Current stacksize for task 15: unlimited
  | Current stacksize for task 16: unlimited
  | Current stacksize for task 17: unlimited
 
  Consistency checks for the contents of control.in are next.
 
  MPI_IN_PLACE appears to work with this MPI implementation.
  | Keeping use_mpi_in_place .true. (see manual).
  Explicit treatment of the Coulomb operator is needed, but the RI method is not specified.
  Coulomb operator: Defaulting to 'LVL fast' resolution of identity - RI_type = LVL_fast
  Species H: Using default value for prodbas_acc =   1.000000E-06.
  Species H: Using default value max_l_prodbas =     6.
  Species O: Using default value for prodbas_acc =   1.000000E-06.
  Species O: Using default value max_l_prodbas =     6.
  Target number of points in a grid batch is not set.  Since GPU acceleration is enabled, defaulting to  200
  Method for grid partitioning is not set. Defaulting to parallel hash+maxmin partitioning.
  Batch size limit is not set. Defaulting to    200
  By default, will store active basis functions for each batch.
  If in need of memory, prune_basis_once .false. can be used to disable this option.
  communication_type for Hartree potential was not specified.
  Defaulting to calc_hartree .
  Defaulting to Pulay charge density mixer.
  Pulay mixer: Number of relevant iterations not set.
  Defaulting to    8 iterations.
  Pulay mixer: Number of initial linear mixing iterations not set.
  Defaulting to    0 iterations.
  Work space size for distributed Hartree potential not set.
  Defaulting to   0.200000E+03 MB.
  Mixing parameter for charge density mixing has not been set.
  Using default: charge_mix_param =     0.0500.
  The mixing parameter will be adjusted in iteration number     2 of the first full s.c.f. cycle only.
  Algorithm-dependent basis array size parameters:
  | n_max_pulay                         :        8
  Maximum number of self-consistency iterations not provided.
  Presetting  1000 iterations.
  Presetting      1001 iterations before the initial mixing cycle
  is restarted anyway using the sc_init_iter criterion / keyword.
  Presetting a factor      1.000 between actual scf density residual
  and density convergence criterion sc_accuracy_rho below which sc_init_iter
  takes no effect.
  Calculation of forces was not defined in control.in. No forces will be calculated.
  Geometry relaxation not requested: no relaxation will be performed.
  No accuracy limit for integral partition fn. given. Defaulting to  0.1000E-14.
  No occupation type (smearing scheme) given. Defaulting to Gaussian broadening, width =  0.1000E-01 eV.
  The width will be adjusted in iteration number     2 of the first full s.c.f. cycle only.
  S.C.F. convergence parameters will be adjusted in iteration number     2 of the first full s.c.f. cycle only.
  No accuracy for occupation numbers given. Defaulting to  0.1000E-12.
  No threshold value for occupation numbers given. Defaulting to  0.0000E+00.
  No accuracy for fermi level given. Defaulting to  0.1000E-19.
  Maximum # of iterations to find E_F not set. Defaulting to  200.
  Preferred method for the eigenvalue solver ('KS_method') not specified in 'control.in'.
  Calling BLACS routine to test compilation state
  Since ScaLAPACK support is enabled, defaulting to ELPA (via ELSI).
  Will not use alltoall communication since running on < 1024 CPUs.
  Threshold for basis singularities not set.
  Default threshold for basis singularities:  0.1000E-04
  partition_type (choice of integration weights) for integrals was not specified.
  | Using a version of the partition function of Stratmann and coworkers ('stratmann_sparse').
  | At each grid point, the set of atoms used to build the partition table is smoothly restricted to
  | only those atoms whose free-atom density would be non-zero at that grid point.
  Partitioning for Hartree potential was not defined. Using partition_type for integrals.
  | Adjusted default value of keyword multip_moments_threshold to:       0.10000000E-11
  | This value may affect high angular momentum components of the Hartree potential in periodic systems.
  Angular momentum expansion for Kerker preconditioner not set explicitly.
  | Using default value of   0
  No explicit requirement for turning off preconditioner.
  | By default, it will be turned off when the charge convergence reaches
  | sc_accuracy_rho  =   0.100000E-05
  No special mixing parameter while Kerker preconditioner is on.
  Using default: charge_mix_param =     0.0500.
  Threshold for auxiliary basis singularities not set.
  Default threshold for auxiliary basis singularities:  0.1000E-04
  No q(lm)/r^(l+1) cutoff set for long-range Hartree potential.
  | Using default value of  0.100000E-09 .
  | Verify using the multipole_threshold keyword.
  Defaulting to new monopole extrapolation.
  Density update method: automatic selection selected.
  Using density matrix based charge density update.
  Using density matrix based charge density update.
  Using packed matrix style: index .
  Defaulting to use time-reversal symmetry for k-point grid.
  Charge integration errors on the 3D integration grid will be compensated
  by explicit normalization and distribution of residual charges.
  Use the "compensate_multipole_errors" flag to change this behaviour.
  Default to 1D ("use_logsbt") integrations for auxiliary 2-center integrals.
  Default onset of logarithmic r-grid for SBT is -38.000000000000
  Default onset of logarithmic k-grid for SBT is -25.000000000000
  Default range of logarithmic r- and k-grid for SBT is  45.000000000000
  Default number of logarithmic r- and k-grid for SBT is   4096
  Default of use_2d_corr is to use the efficient 2D distribution where possible
 
  Consistency checks for the contents of geometry.in are next.
 

  Range separation radius for Ewald summation (hartree_convergence_parameter):      3.12866439 bohr.
  Number of empty states per atom not set in control.in .
  | Since you are using a method that relies on the unoccupied spectrum
  | (MP2,GW,RPA et al.), will use the full Hamiltonian size (see below)
  | as the max. possible number of states (occupied plus empty).

  Structure-dependent array size parameters: 
  | Maximum number of distinct radial functions  :        9
  | Maximum number of basis functions            :      768
  | Number of Kohn-Sham states (occupied + empty):      768
------------------------------------------------------------

  Performing system and environment tests:
  | Environment variable OMP_NUM_THREADS correctly set to 1.
  | Checking for ScaLAPACK...
  | Testing pdtran()...
  | All pdtran() tests passed.
CUDA runtime version: 11060
CUDA driver version: 11060
  Initializing GPUs...

  Number of GPUs available to MPI task         0 :   1
  Number of GPUs available to MPI task         1 :   1
  Number of GPUs available to MPI task         2 :   1
  Number of GPUs available to MPI task         3 :   1
  Number of GPUs available to MPI task         4 :   1
  Number of GPUs available to MPI task         5 :   1
  Number of GPUs available to MPI task         6 :   1
  Number of GPUs available to MPI task         7 :   1
  Number of GPUs available to MPI task         8 :   1
  Number of GPUs available to MPI task         9 :   1
  Number of GPUs available to MPI task        10 :   1
  Number of GPUs available to MPI task        11 :   1
  Number of GPUs available to MPI task        12 :   1
  Number of GPUs available to MPI task        13 :   1
  Number of GPUs available to MPI task        14 :   1
  Number of GPUs available to MPI task        15 :   1
  Number of GPUs available to MPI task        16 :   1
  Number of GPUs available to MPI task        17 :   1

  | MPI task         0, GPU activated = T, Device Name = NVIDIA A100-SXM4-80GB
  | MPI task         1, GPU activated = T, Device Name = NVIDIA A100-SXM4-80GB
  | MPI task         2, GPU activated = T, Device Name = NVIDIA A100-SXM4-80GB
  | MPI task         3, GPU activated = T, Device Name = NVIDIA A100-SXM4-80GB
  | MPI task         4, GPU activated = T, Device Name = NVIDIA A100-SXM4-80GB
  | MPI task         5, GPU activated = T, Device Name = NVIDIA A100-SXM4-80GB
  | MPI task         6, GPU activated = T, Device Name = NVIDIA A100-SXM4-80GB
  | MPI task         7, GPU activated = T, Device Name = NVIDIA A100-SXM4-80GB
  | MPI task         8, GPU activated = T, Device Name = NVIDIA A100-SXM4-80GB
  | MPI task         9, GPU activated = T, Device Name = NVIDIA A100-SXM4-80GB
  | MPI task        10, GPU activated = T, Device Name = NVIDIA A100-SXM4-80GB
  | MPI task        11, GPU activated = T, Device Name = NVIDIA A100-SXM4-80GB
  | MPI task        12, GPU activated = T, Device Name = NVIDIA A100-SXM4-80GB
  | MPI task        13, GPU activated = T, Device Name = NVIDIA A100-SXM4-80GB
  | MPI task        14, GPU activated = T, Device Name = NVIDIA A100-SXM4-80GB
  | MPI task        15, GPU activated = T, Device Name = NVIDIA A100-SXM4-80GB
  | MPI task        16, GPU activated = T, Device Name = NVIDIA A100-SXM4-80GB
  | MPI task        17, GPU activated = T, Device Name = NVIDIA A100-SXM4-80GB

------------------------------------------------------------
          Preparing all fixed parts of the calculation.
------------------------------------------------------------
  Determining machine precision:
    2.225073858507201E-308
  Setting up grids for atomic and cluster calculations.

  Creating wave function, potential, and density for free atoms.
  Runtime choices for atomic solver:
  | atomic solver xc        : PW-LDA
  | compute density gradient: 0
  | compute kinetic density : F

  Species: H

  List of occupied orbitals and eigenvalues:
    n    l              occ      energy [Ha]    energy [eV]
    1    0           1.0000        -0.232375        -6.3233


  Species: O

  List of occupied orbitals and eigenvalues:
    n    l              occ      energy [Ha]    energy [eV]
    1    0           2.0000       -18.757744      -510.4242
    2    0           2.0000        -0.870917       -23.6989
    2    1           4.0000        -0.337950        -9.1961


  Adding cutoff potential to free-atom effective potential.
  Creating fixed part of basis set: Ionic, confined, hydrogenic.
 
  H                    hydrogenic:
 
  List of hydrogenic basis orbitals: 
    n    l      effective z      eigenvalue [eV]  inner max. [A]     outer max. [A]     outer radius [A]   
    2    0         2.100000       -14.9728           0.193243           1.317208           4.696947
    2    1         3.500000       -41.6669           0.602369           0.602369           3.862494
 
 
  O                    hydrogenic:
 
  List of hydrogenic basis orbitals: 
    n    l      effective z      eigenvalue [eV]  inner max. [A]     outer max. [A]     outer radius [A]   
    2    1         1.800000       -10.9749           1.164242           1.164242           4.691341
    3    2         7.600000       -87.3180           0.624125           0.624125           3.413946
    3    0         6.400000       -61.9207           0.061167           1.081902           4.151495
 
  Creating atomic-like basis functions for current effective potential.

  Species H                   :

  List of atomic basis orbitals and eigenvalues:
    n    l      energy [Ha]    energy [eV]    outer radius [A]
    1    0        -0.232375        -6.3233       4.696947


  Species O                   :

  List of atomic basis orbitals and eigenvalues:
    n    l      energy [Ha]    energy [eV]    outer radius [A]
    1    0       -18.757744      -510.4242       1.830144
    2    0        -0.870917       -23.6989       4.578029
    2    1        -0.337950        -9.1961       4.634338

  Assembling full basis from fixed parts.
  | Species H :   atomic orbital   1 s accepted.
  | Species H :    hydro orbital   2 s accepted.
  | Species H :    hydro orbital   2 p accepted.
  | Species O :   atomic orbital   1 s accepted.
  | Species O :    hydro orbital   3 s accepted.
  | Species O :   atomic orbital   2 s accepted.
  | Species O :   atomic orbital   2 p accepted.
  | Species O :    hydro orbital   2 p accepted.
  | Species O :    hydro orbital   3 d accepted.
 
  Basis size parameters after reduction:
  | Total number of radial functions:        9
  | Total number of basis functions :      768
 
  Per-task memory consumption for arrays in subroutine allocate_ext:
  |           2.268304MB.
  Testing on-site integration grid accuracy.
  |  Species  Function  <phi|h_atom|phi> (log., in eV)  <phi|h_atom|phi> (rad., in eV)
           1        1                 -6.3245358373                 -6.3232436907
           1        2                 14.1326137532                 14.1384481100
           1        3                 25.3627025200                 25.3628451197
           2        4               -510.4241781764               -510.4240769407
           2        5                 14.9072942213                 14.9072945271
           2        6                -21.2004736474                -21.2005650551
           2        7                 -9.1962086505                 -9.1963509834
           2        8                  8.1896755006                  8.1702200081
           2        9                 45.7920584937                 45.7920228520

  Preparing densities etc. for the partition functions (integrals / Hartree potential).

  Preparations completed.
  max(cpu_time)          :      0.067 s.
  Wall clock time (cpu1) :      0.060 s.
------------------------------------------------------------

  Initializing index lists of integration centers etc. from given atomic structure:
  Mapping all atomic coordinates to central unit cell.

  Initializing the k-points
  Using symmetry for reducing the k-points
  | k-points reduced from:        1 to        1
  | Number of k-points                             :         1
  | Consuming          0 KiB for k_phase_exx.
  The eigenvectors in the calculations are REAL.
  | Number of basis functions in the Hamiltonian integrals :      4331
  | Number of basis functions in a single unit cell        :       768
  | Number of centers in hartree potential         :      2567
  | Number of centers in hartree multipole         :      1816
  | Number of centers in electron density summation:      1395
  | Number of centers in basis integrals           :      1463
  | Number of centers in integrals                 :       675
  | Number of centers in hamiltonian               :      1395
  | Consuming          0 KiB for k_phase.
  | Number of super-cells (origin) [n_cells]                     :         125
  | Number of super-cells (after PM_index) [n_cells]             :          28
  | Number of super-cells in hamiltonian [n_cells_in_hamiltonian]:          28
  | Size of matrix packed + index [n_hamiltonian_matrix_size] :      700216
  | Size of matrix packed + index (no_symmetry):     1399663

------------------------------------------------------------
          Begin self-consistency loop: Initialization.

          Date     :  20230221, Time     :  124353.526
------------------------------------------------------------
  | Estimated reciprocal-space cutoff momentum G_max:         3.01483000 bohr^-1 .
  | Reciprocal lattice points for long-range Hartree potential:    3406
  Using simple linear distribution as default method for k-point parallelism.
  * Using 18 tasks for Scalapack Eigenvalue solver.
  Detailed listing of tasks and assigned k-points:
   Task     0 k-point     1 on adag038
   Task     1 k-point     1 on adag038
   Task     2 k-point     1 on adag038
   Task     3 k-point     1 on adag038
   Task     4 k-point     1 on adag038
   Task     5 k-point     1 on adag038
   Task     6 k-point     1 on adag038
   Task     7 k-point     1 on adag038
   Task     8 k-point     1 on adag038
   Task     9 k-point     1 on adag038
   Task    10 k-point     1 on adag038
   Task    11 k-point     1 on adag038
   Task    12 k-point     1 on adag038
   Task    13 k-point     1 on adag038
   Task    14 k-point     1 on adag038
   Task    15 k-point     1 on adag038
   Task    16 k-point     1 on adag038
   Task    17 k-point     1 on adag038
  K-point:     1 Tasks:    18 split into      6 X      3 BLACS grid
  Calculating block size based on n_basis =          768  max_nprow =            6  max_npcol =            3
  ScaLAPACK block size set to:           16
  Allocating        0.250 MB for ovlp
  Allocating        0.250 MB for ham
  Allocating        0.250 MB for eigenvec
  Required Scalapack workspace - INTEGER:            1  REAL:             1
  Partitioning the integration grid into batches with parallel hashing+maxmin method.
  | Number of batches:     3888
  | Maximal batch size:     200
  | Minimal batch size:      99
  | Average batch size:     131.062
  | Standard deviation of batch sizes:      29.530

  Integration load balanced across    18 MPI tasks.
  Work distribution over tasks is as follows:
  Task     0 has      28324 integration points.
  Task     1 has      28338 integration points.
  Task     2 has      28325 integration points.
  Task     3 has      28394 integration points.
  Task     4 has      28259 integration points.
  Task     5 has      28305 integration points.
  Task     6 has      28318 integration points.
  Task     7 has      28280 integration points.
  Task     8 has      28316 integration points.
  Task     9 has      28278 integration points.
  Task    10 has      28304 integration points.
  Task    11 has      28241 integration points.
  Task    12 has      28308 integration points.
  Task    13 has      28311 integration points.
  Task    14 has      28422 integration points.
  Task    15 has      28292 integration points.
  Task    16 has      28294 integration points.
  Task    17 has      28259 integration points.
  Initializing partition tables, free-atom densities, potentials, etc. across the integration grid (initialize_grid_storage).
  | initialize_grid_storage: Actual outermost partition radius vs. multipole_radius_free
  | (-- VB: in principle, multipole_radius_free should be larger, hence this output)
  | Species        1: Confinement radius =              4.999999999999999 AA, multipole_radius_free =              5.054417573612229 AA.
  | Species        1: outer_partition_radius set to              5.054417573612229 AA .
  | Species        2: Confinement radius =              4.999999999999999 AA, multipole_radius_free =              5.048384829883283 AA.
  | Species        2: outer_partition_radius set to              5.048384829883283 AA .
  | The sparse table of interatomic distances needs       4295.98 kbyte instead of     17122.95 kbyte of memory.
  | Net number of integration points:   509568
  | of which are non-zero points    :   411926
  | Numerical average free-atom electrostatic potential    :     -4.79670062 eV
  Renormalizing the initial density to the exact electron count on the 3D integration grid.
  | Initial density: Formal number of electrons (from input files) :     320.0000000000
  | Integrated number of electrons on 3D grid     :     319.9982763564
  | Charge integration error                      :      -0.0017236436
  | Normalization factor for density and gradient :       1.0000053864
  Renormalizing the free-atom superposition density to the exact electron count on the 3D integration grid.
  | Formal number of electrons (from input files) :     320.0000000000
  | Integrated number of electrons on 3D grid     :     319.9982763564
  | Charge integration error                      :      -0.0017236436
  | Normalization factor for density and gradient :       1.0000053864
  Obtaining max. number of non-zero basis functions in each batch (get_n_compute_maxes).
  | Maximal number of non-zero basis functions:      377 in task     0
  | Maximal number of non-zero basis functions:      396 in task     1
  | Maximal number of non-zero basis functions:      397 in task     2
  | Maximal number of non-zero basis functions:      391 in task     3
  | Maximal number of non-zero basis functions:      391 in task     4
  | Maximal number of non-zero basis functions:      386 in task     5
  | Maximal number of non-zero basis functions:      387 in task     6
  | Maximal number of non-zero basis functions:      380 in task     7
  | Maximal number of non-zero basis functions:      408 in task     8
  | Maximal number of non-zero basis functions:      403 in task     9
  | Maximal number of non-zero basis functions:      394 in task    10
  | Maximal number of non-zero basis functions:      388 in task    11
  | Maximal number of non-zero basis functions:      407 in task    12
  | Maximal number of non-zero basis functions:      400 in task    13
  | Maximal number of non-zero basis functions:      394 in task    14
  | Maximal number of non-zero basis functions:      378 in task    15
  | Maximal number of non-zero basis functions:      385 in task    16
  | Maximal number of non-zero basis functions:      386 in task    17
  Integrating Hamiltonian matrix: batch-based integration.
  GPU acceleration will be used when integrating the Hamiltonian matrix.
  Reporting GPU memory usage by myid 0.  Note that it is likely not the only MPI task binding to its GPU!
  Allocating        1.137 MB on GPU for hamiltonian_shell
  Allocating        0.603 MB on GPU for wave
  Allocating        0.002 MB on GPU for partition
  Allocating        0.603 MB on GPU for h_times_psi
  Time summed over all CPUs for integration: real work       11.063 s, elapsed       11.262 s
  Deallocating memory used on GPU for Hamiltonian integration.
  Integrating overlap matrix.
  Time summed over all CPUs for integration: real work        7.706 s, elapsed        8.039 s
  Deallocating overlap matrix.

  Updating Kohn-Sham eigenvalues and eigenvectors using ELSI and the ELPA eigensolver.
  Singularity check in k-point 1 (analysis for other k-points may follow below):
  Overlap matrix is not singular
  | Lowest and highest eigenvalues :  0.1990E-02,  0.6824E+01
  Finished singularity check of overlap matrix
  | Time :     0.126 s
  Starting ELPA eigensolver (GPU)
  Finished Cholesky decomposition
  | Time :     0.007 s
  Finished transformation to standard eigenproblem
  | Time :     0.024 s
  Finished solving standard eigenproblem
  | Time :     0.165 s
  Finished back-transformation of eigenvectors
  | Time :     0.013 s

  Obtaining occupation numbers and electronic chemical potential using ELSI.
  | Note that, for insulating systems, the printed 'chemical potential' value is not uniquely defined.
  | It can be anywhere in the energy gap, as long as it correctly separates occupied and unoccupied states.
  | In systems with a gap, the physically relevant chemical potential is the VBM or HOMO.

  | Chemical potential (Fermi level):    -6.53737378 eV
  Writing Kohn-Sham eigenvalues.

  State    Occupation    Eigenvalue [Ha]    Eigenvalue [eV]
      1       2.00000         -18.934168         -515.22493
      2       2.00000         -18.914585         -514.69204
      3       2.00000         -18.906913         -514.48327
      4       2.00000         -18.905547         -514.44612
      5       2.00000         -18.899361         -514.27778
      6       2.00000         -18.898672         -514.25903
      7       2.00000         -18.896893         -514.21062
      8       2.00000         -18.896343         -514.19564
      9       2.00000         -18.893925         -514.12987
     10       2.00000         -18.891008         -514.05049
     11       2.00000         -18.888048         -513.96994
     12       2.00000         -18.883171         -513.83723
     13       2.00000         -18.880035         -513.75189
     14       2.00000         -18.878947         -513.72228
     15       2.00000         -18.878468         -513.70925
     16       2.00000         -18.870639         -513.49621
     17       2.00000         -18.870354         -513.48846
     18       2.00000         -18.869999         -513.47879
     19       2.00000         -18.868725         -513.44414
     20       2.00000         -18.868243         -513.43102
     21       2.00000         -18.868183         -513.42939
     22       2.00000         -18.864639         -513.33294
     23       2.00000         -18.862599         -513.27744
     24       2.00000         -18.861304         -513.24221
     25       2.00000         -18.860613         -513.22340
     26       2.00000         -18.860070         -513.20861
     27       2.00000         -18.859466         -513.19219
     28       2.00000         -18.858928         -513.17754
     29       2.00000         -18.856839         -513.12071
     30       2.00000         -18.856439         -513.10981
     31       2.00000         -18.851932         -512.98718
     32       2.00000         -18.840668         -512.68065
     33       2.00000          -1.199122          -32.62978
     34       2.00000          -1.177327          -32.03669
     35       2.00000          -1.166665          -31.74658
     36       2.00000          -1.163347          -31.65629
     37       2.00000          -1.159424          -31.54955
     38       2.00000          -1.145220          -31.16302
     39       2.00000          -1.144560          -31.14506
     40       2.00000          -1.140297          -31.02906
     41       2.00000          -1.129786          -30.74303
     42       2.00000          -1.127082          -30.66947
     43       2.00000          -1.124581          -30.60141
     44       2.00000          -1.118760          -30.44300
     45       2.00000          -1.118618          -30.43914
     46       2.00000          -1.111056          -30.23337
     47       2.00000          -1.106133          -30.09941
     48       2.00000          -1.104581          -30.05718
     49       2.00000          -1.102689          -30.00568
     50       2.00000          -1.098972          -29.90455
     51       2.00000          -1.095969          -29.82282
     52       2.00000          -1.091951          -29.71349
     53       2.00000          -1.091294          -29.69563
     54       2.00000          -1.091075          -29.68967
     55       2.00000          -1.089216          -29.63909
     56       2.00000          -1.087266          -29.58600
     57       2.00000          -1.086801          -29.57336
     58       2.00000          -1.084589          -29.51317
     59       2.00000          -1.075802          -29.27407
     60       2.00000          -1.074029          -29.22581
     61       2.00000          -1.071969          -29.16976
     62       2.00000          -1.068093          -29.06429
     63       2.00000          -1.065692          -28.99895
     64       2.00000          -1.045751          -28.45632
     65       2.00000          -0.738871          -20.10569
     66       2.00000          -0.702197          -19.10775
     67       2.00000          -0.695083          -18.91416
     68       2.00000          -0.694768          -18.90559
     69       2.00000          -0.694244          -18.89134
     70       2.00000          -0.690033          -18.77674
     71       2.00000          -0.688157          -18.72570
     72       2.00000          -0.684963          -18.63878
     73       2.00000          -0.682309          -18.56658
     74       2.00000          -0.674527          -18.35482
     75       2.00000          -0.674023          -18.34110
     76       2.00000          -0.673289          -18.32114
     77       2.00000          -0.670002          -18.23169
     78       2.00000          -0.667467          -18.16269
     79       2.00000          -0.661318          -17.99539
     80       2.00000          -0.653655          -17.78687
     81       2.00000          -0.652539          -17.75648
     82       2.00000          -0.646397          -17.58935
     83       2.00000          -0.644445          -17.53625
     84       2.00000          -0.632799          -17.21934
     85       2.00000          -0.630550          -17.15813
     86       2.00000          -0.628798          -17.11045
     87       2.00000          -0.626519          -17.04844
     88       2.00000          -0.623051          -16.95407
     89       2.00000          -0.620965          -16.89731
     90       2.00000          -0.608958          -16.57059
     91       2.00000          -0.608395          -16.55527
     92       2.00000          -0.603008          -16.40869
     93       2.00000          -0.595721          -16.21041
     94       2.00000          -0.591278          -16.08950
     95       2.00000          -0.586092          -15.94838
     96       2.00000          -0.584895          -15.91580
     97       2.00000          -0.580419          -15.79401
     98       2.00000          -0.578811          -15.75025
     99       2.00000          -0.576027          -15.67449
    100       2.00000          -0.565593          -15.39057
    101       2.00000          -0.562129          -15.29631
    102       2.00000          -0.559241          -15.21771
    103       2.00000          -0.557112          -15.15980
    104       2.00000          -0.556366          -15.13950
    105       2.00000          -0.552820          -15.04300
    106       2.00000          -0.548255          -14.91879
    107       2.00000          -0.546011          -14.85771
    108       2.00000          -0.543161          -14.78016
    109       2.00000          -0.542578          -14.76430
    110       2.00000          -0.539409          -14.67806
    111       2.00000          -0.538501          -14.65334
    112       2.00000          -0.533854          -14.52690
    113       2.00000          -0.530918          -14.44700
    114       2.00000          -0.526199          -14.31860
    115       2.00000          -0.525033          -14.28687
    116       2.00000          -0.522871          -14.22804
    117       2.00000          -0.519867          -14.14630
    118       2.00000          -0.518725          -14.11523
    119       2.00000          -0.518602          -14.11188
    120       2.00000          -0.512339          -13.94147
    121       2.00000          -0.509280          -13.85822
    122       2.00000          -0.508997          -13.85052
    123       2.00000          -0.506945          -13.79468
    124       2.00000          -0.505058          -13.74332
    125       2.00000          -0.503762          -13.70807
    126       2.00000          -0.501831          -13.65552
    127       2.00000          -0.496942          -13.52248
    128       2.00000          -0.494145          -13.44636
    129       2.00000          -0.490581          -13.34939
    130       2.00000          -0.485423          -13.20904
    131       2.00000          -0.483354          -13.15273
    132       2.00000          -0.479630          -13.05139
    133       2.00000          -0.475995          -12.95248
    134       2.00000          -0.474531          -12.91263
    135       2.00000          -0.473448          -12.88317
    136       2.00000          -0.472221          -12.84979
    137       2.00000          -0.471152          -12.82069
    138       2.00000          -0.468893          -12.75922
    139       2.00000          -0.468419          -12.74633
    140       2.00000          -0.466567          -12.69594
    141       2.00000          -0.463064          -12.60062
    142       2.00000          -0.460836          -12.54000
    143       2.00000          -0.459920          -12.51506
    144       2.00000          -0.458138          -12.46657
    145       2.00000          -0.457464          -12.44824
    146       2.00000          -0.453951          -12.35263
    147       2.00000          -0.451405          -12.28335
    148       2.00000          -0.450928          -12.27038
    149       2.00000          -0.450445          -12.25723
    150       2.00000          -0.449725          -12.23765
    151       2.00000          -0.449305          -12.22620
    152       2.00000          -0.448843          -12.21365
    153       2.00000          -0.448150          -12.19477
    154       2.00000          -0.444785          -12.10321
    155       2.00000          -0.444118          -12.08507
    156       2.00000          -0.441952          -12.02613
    157       2.00000          -0.440500          -11.98663
    158       2.00000          -0.439899          -11.97025
    159       2.00000          -0.438139          -11.92236
    160       2.00000          -0.427891          -11.64350
    161       0.00000          -0.170234           -4.63230
    162       0.00000          -0.123433           -3.35879
    163       0.00000          -0.115348           -3.13877
    164       0.00000          -0.110116           -2.99641
    165       0.00000          -0.106582           -2.90025
    166       0.00000          -0.102610           -2.79217
    167       0.00000          -0.095425           -2.59665
    168       0.00000          -0.075740           -2.06099
    169       0.00000          -0.071640           -1.94944
    170       0.00000          -0.069631           -1.89475
    171       0.00000          -0.067657           -1.84103
    172       0.00000          -0.065317           -1.77736
    173       0.00000          -0.058883           -1.60228
    174       0.00000          -0.057366           -1.56100
    175       0.00000          -0.050990           -1.38751
    176       0.00000          -0.045869           -1.24815
    177       0.00000          -0.035480           -0.96547
    178       0.00000          -0.028554           -0.77699
    179       0.00000          -0.024153           -0.65724
    180       0.00000          -0.015694           -0.42705
    181       0.00000          -0.011631           -0.31649
    182       0.00000          -0.006136           -0.16697
    183       0.00000          -0.001923           -0.05234
    184       0.00000           0.001047            0.02848
    185       0.00000           0.003171            0.08628
    186       0.00000           0.007600            0.20680
    187       0.00000           0.013665            0.37185
    188       0.00000           0.016724            0.45507
    189       0.00000           0.020852            0.56742
    190       0.00000           0.023105            0.62871
    191       0.00000           0.026689            0.72624
    192       0.00000           0.031042            0.84470
    193       0.00000           0.036786            1.00101
    194       0.00000           0.042835            1.16559
    195       0.00000           0.046291            1.25965
    196       0.00000           0.047886            1.30304
    197       0.00000           0.051233            1.39412
    198       0.00000           0.055566            1.51202
    199       0.00000           0.055925            1.52179
    200       0.00000           0.058629            1.59538
    201       0.00000           0.061942            1.68554
    202       0.00000           0.063592            1.73043
    203       0.00000           0.066991            1.82293
    204       0.00000           0.071674            1.95035
    205       0.00000           0.072229            1.96546
    206       0.00000           0.077621            2.11218
    207       0.00000           0.081148            2.20816
    208       0.00000           0.083626            2.27559
    209       0.00000           0.085931            2.33831
    210       0.00000           0.090951            2.47491
    211       0.00000           0.092280            2.51107
    212       0.00000           0.092925            2.52861
    213       0.00000           0.098528            2.68109
    214       0.00000           0.101448            2.76053
    215       0.00000           0.101556            2.76348
    216       0.00000           0.103246            2.80946
    217       0.00000           0.105827            2.87970
    218       0.00000           0.108826            2.96130
    219       0.00000           0.114643            3.11959
    220       0.00000           0.121668            3.31075
    221       0.00000           0.123577            3.36270
    222       0.00000           0.127373            3.46601
    223       0.00000           0.135360            3.68333
    224       0.00000           0.139008            3.78261
    225       0.00000           0.140951            3.83547
    226       0.00000           0.152380            4.14648
    227       0.00000           0.153461            4.17588
    228       0.00000           0.161834            4.40371
    229       0.00000           0.164805            4.48457
    230       0.00000           0.173404            4.71856
    231       0.00000           0.174728            4.75460
    232       0.00000           0.183962            5.00587
    233       0.00000           0.186839            5.08414
    234       0.00000           0.188356            5.12544
    235       0.00000           0.193788            5.27325
    236       0.00000           0.199372            5.42519
    237       0.00000           0.205258            5.58535
    238       0.00000           0.207915            5.65766
    239       0.00000           0.216908            5.90236
    240       0.00000           0.222263            6.04807
    241       0.00000           0.231366            6.29579
    242       0.00000           0.234979            6.39411
    243       0.00000           0.241556            6.57307
    244       0.00000           0.245371            6.67687
    245       0.00000           0.249179            6.78051
    246       0.00000           0.249805            6.79753
    247       0.00000           0.260256            7.08191
    248       0.00000           0.266031            7.23907
    249       0.00000           0.270243            7.35368
    250       0.00000           0.278874            7.58854
    251       0.00000           0.284571            7.74357
    252       0.00000           0.291061            7.92019
    253       0.00000           0.295487            8.04060
    254       0.00000           0.302020            8.21839
    255       0.00000           0.307496            8.36741
    256       0.00000           0.317060            8.62763
    257       0.00000           0.320138            8.71141
    258       0.00000           0.328053            8.92678
    259       0.00000           0.334047            9.08988
[...]
  |    H      0     4.527807 A      4.527807 A        1.268855E-16 a.u.
  |    H      0     4.527807 A      4.583499 A       -4.900954E-17 a.u.
  |    H      0     4.527807 A      4.583499 A        4.713786E-16 a.u.
  |    H      2     3.678162 A  2.180220E+05 A            0.556529 a.u.
  |    H      1     3.958095 A  1.721251E+08 A            0.841931 a.u.
  |    H      0     4.527807 A  3.866455E+16 A            0.581436 a.u.
  |    O      0     2.043000 A      2.043000 A       -1.436841E-16 a.u.
  |    O      3     3.498446 A      3.498446 A        3.043453E-17 a.u.
  |    O      3     3.498446 A      3.498446 A        1.541443E-16 a.u.
  |    O      0     3.905335 A      3.905335 A        2.173090E-16 a.u.
  |    O      0     3.905335 A      3.905335 A        7.213445E-17 a.u.
  |    O      0     4.101052 A      4.101052 A        2.361718E-16 a.u.
  |    O      1     4.101052 A      4.101052 A        3.235185E-17 a.u.
  |    O      0     4.359549 A      4.359549 A       -5.329475E-17 a.u.
  |    O      1     4.413171 A      4.413171 A        3.261883E-17 a.u.
  |    O      1     4.522403 A      4.522403 A        6.417997E-16 a.u.
  |    O      1     4.522403 A      4.522403 A        4.224783E-16 a.u.
  |    O      2     4.522403 A      4.522403 A       -4.387647E-16 a.u.
  |    O      0     4.522403 A      4.578029 A        2.602039E-16 a.u.
  |    O      0     4.578029 A      4.578029 A        1.226235E-16 a.u.
  |    O      1     4.578029 A      4.578029 A       -6.107316E-16 a.u.
  |    O      1     4.578029 A      4.578029 A       -2.224438E-16 a.u.
  |    O      2     4.578029 A      4.578029 A       -7.020279E-16 a.u.
  |    O      2     4.522403 A      4.578029 A        1.323470E-15 a.u.
  |    O      2     4.578029 A      4.578029 A        7.923696E-16 a.u.
  |    O      2     4.522403 A      4.578029 A       -9.951815E-16 a.u.
  |    O      0     4.578029 A      4.634338 A       -8.813582E-18 a.u.
  |    O      1     4.578029 A      4.634338 A       -3.325386E-17 a.u.
  |    O      1     4.634338 A      4.634338 A        9.588032E-16 a.u.
  |    O      2     4.578029 A      4.634338 A        1.064715E-17 a.u.
  |    O      2     4.578029 A      4.634338 A       -3.770343E-15 a.u.
  |    O      4     3.251020 A  1.511584E+03 A            1.513372 a.u.
  |    O      3     3.541477 A  1.434166E+04 A            4.293220 a.u.
  |    O      2     4.634338 A  5.584435E+05 A            9.352428 a.u.
  |    O      1     4.634338 A  2.821283E+08 A            2.261940 a.u.
  |    O      0     4.578029 A  4.264100E+16 A            0.641234 a.u.

  | Shrink_full_auxil_basis : there are       38  radial auxiliary wave functions
                            accepted and       5 rejected.
  | Shrink_full_auxil_basis : there are totally                4544 partial auxiliary wave functions.
 
  | Maximal number of product basis functions per thread :   256   256
 
  | Minimal total memory requirement for three-center overlap :      10.450 Gbs
  | Number of local auxiliary basis functions on task:      0   256
  | Number of local auxiliary basis functions on task:      1   256
  | Number of local auxiliary basis functions on task:      2   256
  | Number of local auxiliary basis functions on task:      3   256
  | Number of local auxiliary basis functions on task:      4   256
  | Number of local auxiliary basis functions on task:      5   256
  | Number of local auxiliary basis functions on task:      6   256
  | Number of local auxiliary basis functions on task:      7   256
  | Number of local auxiliary basis functions on task:      8   256
  | Number of local auxiliary basis functions on task:      9   256
  | Number of local auxiliary basis functions on task:     10   256
  | Number of local auxiliary basis functions on task:     11   256
  | Number of local auxiliary basis functions on task:     12   256
  | Number of local auxiliary basis functions on task:     13   256
  | Number of local auxiliary basis functions on task:     14   240
  | Number of local auxiliary basis functions on task:     15   240
  | Number of local auxiliary basis functions on task:     16   240
  | Number of local auxiliary basis functions on task:     17   240
  | 2D aux task distribution:      3 X      6
  | 2D block size (nb_aux_2d):     64
 
  Basis pair condensation :    295296  -->     209821
 
 --------------------------------------------
  Constructing auxiliary basis (full product) ...
 
  Product basis:
  | charge radius: extent of product basis function
  | field radius: extent of its Coulomb potential
  | Species   l  charge radius    field radius  multipol momen
  |    H      1     3.910002 A      3.910002 A       -2.487223E-16 a.u.
  |    H      1     3.958095 A      3.958095 A       -2.441841E-16 a.u.
  |    H      0     4.527807 A      4.527807 A        1.268855E-16 a.u.
  |    H      0     4.527807 A      4.583499 A       -4.900954E-17 a.u.
  |    H      0     4.527807 A      4.583499 A        4.713786E-16 a.u.
  |    H      2     3.678162 A  2.180220E+05 A            0.556529 a.u.
  |    H      1     3.958095 A  1.721251E+08 A            0.841931 a.u.
  |    H      0     4.527807 A  3.866455E+16 A            0.581436 a.u.
  |    O      0     2.043000 A      2.043000 A       -1.436841E-16 a.u.
  |    O      3     3.498446 A      3.498446 A        3.043453E-17 a.u.
  |    O      3     3.498446 A      3.498446 A        1.541443E-16 a.u.
  |    O      0     3.905335 A      3.905335 A        2.173090E-16 a.u.
  |    O      0     3.905335 A      3.905335 A        7.213445E-17 a.u.
  |    O      0     4.101052 A      4.101052 A        2.361718E-16 a.u.
  |    O      1     4.101052 A      4.101052 A        3.235185E-17 a.u.
  |    O      0     4.359549 A      4.359549 A       -5.329475E-17 a.u.
  |    O      1     4.413171 A      4.413171 A        3.261883E-17 a.u.
  |    O      1     4.522403 A      4.522403 A        6.417997E-16 a.u.
  |    O      1     4.522403 A      4.522403 A        4.224783E-16 a.u.
  |    O      2     4.522403 A      4.522403 A       -4.387647E-16 a.u.
  |    O      0     4.522403 A      4.578029 A        2.602039E-16 a.u.
  |    O      0     4.578029 A      4.578029 A        1.226235E-16 a.u.
  |    O      1     4.578029 A      4.578029 A       -6.107316E-16 a.u.
  |    O      1     4.578029 A      4.578029 A       -2.224438E-16 a.u.
  |    O      2     4.578029 A      4.578029 A       -7.020279E-16 a.u.
  |    O      2     4.522403 A      4.578029 A        1.323470E-15 a.u.
  |    O      2     4.578029 A      4.578029 A        7.923696E-16 a.u.
  |    O      2     4.522403 A      4.578029 A       -9.951815E-16 a.u.
  |    O      0     4.578029 A      4.634338 A       -8.813582E-18 a.u.
  |    O      1     4.578029 A      4.634338 A       -3.325386E-17 a.u.
  |    O      1     4.634338 A      4.634338 A        9.588032E-16 a.u.
  |    O      2     4.578029 A      4.634338 A        1.064715E-17 a.u.
  |    O      2     4.578029 A      4.634338 A       -3.770343E-15 a.u.
  |    O      4     3.251020 A  1.511584E+03 A            1.513372 a.u.
  |    O      3     3.541477 A  1.434166E+04 A            4.293220 a.u.
  |    O      2     4.634338 A  5.584435E+05 A            9.352428 a.u.
  |    O      1     4.634338 A  2.821283E+08 A            2.261940 a.u.
  |    O      0     4.578029 A  4.264100E+16 A            0.641234 a.u.

  | Shrink_full_auxil_basis : there are       38  radial auxiliary wave functions
                            accepted and       5 rejected.
  | Shrink_full_auxil_basis : there are totally                4544 partial auxiliary wave functions.
 
  | Maximal number of product basis functions per thread :   256   256
 
  | Minimal total memory requirement for three-center overlap :      10.450 Gbs
  | Number of local auxiliary basis functions on task:      0   256
  | Number of local auxiliary basis functions on task:      1   256
  | Number of local auxiliary basis functions on task:      2   256
  | Number of local auxiliary basis functions on task:      3   256
  | Number of local auxiliary basis functions on task:      4   256
  | Number of local auxiliary basis functions on task:      5   256
  | Number of local auxiliary basis functions on task:      6   256
  | Number of local auxiliary basis functions on task:      7   256
  | Number of local auxiliary basis functions on task:      8   256
  | Number of local auxiliary basis functions on task:      9   256
  | Number of local auxiliary basis functions on task:     10   256
  | Number of local auxiliary basis functions on task:     11   256
  | Number of local auxiliary basis functions on task:     12   256
  | Number of local auxiliary basis functions on task:     13   256
  | Number of local auxiliary basis functions on task:     14   240
  | Number of local auxiliary basis functions on task:     15   240
  | Number of local auxiliary basis functions on task:     16   240
  | Number of local auxiliary basis functions on task:     17   240
  | 2D aux task distribution:      3 X      6
  | 2D block size (nb_aux_2d):     64
 
  Basis pair condensation :    295296  -->     209821
dP_dE (Bohr^3) at every cycle:--->
 (331.906722983788,0.000000000000000E+000) (-2.10511250482443,0.000000000000000E+000) (-10.7934821524022,0.000000000000000E+000)
 (-2.10391579947170,0.000000000000000E+000) (338.755584529609,0.000000000000000E+000) (-6.61283178010348,0.000000000000000E+000)
 (-10.7965458776361,0.000000000000000E+000) (-6.59907472655054,0.000000000000000E+000) (318.875212619333,0.000000000000000E+000)
DFPT polarizability (Bohr^3)        xx        yy        zz        xy        xz        yz
  | Polarizability:--->                       331.906722984                  338.755584530                  318.875212619                   -2.105112505                  -10.793482152                   -6.612831780

DFPT for dielectric_constant:--->  # PARSE DFPT_dielectric_tensor
               1.568888498065704            -0.003608165210885            -0.018500040599898
              -0.003606114056559             1.580627454490676            -0.011334401139949
              -0.018505291828409            -0.011310821534622             1.546552474582611

                                               :  max(cpu_time)    wall_clock(cpu1)
  | Time for  dielectric calculation            :        0.000 s           0.000 s
===========================================================================

------------------------------------------------------------------------------
  Final output of selected total energy values:

  The following output summarizes some interesting total energy values
  at the end of a run (AFTER all relaxation, molecular dynamics, etc.).

  | Total energy of the DFT / Hartree-Fock s.c.f. calculation      :         -66106.951580263 eV
  | Final zero-broadening corrected energy (caution - metals only) :         -66106.951580263 eV
  | For reference only, the value of 1 Hartree used in FHI-aims is :             27.211384500 eV
  | For reference only, the overall average (free atom contribution
  | + realspace contribution) of the electrostatic potential after
  | s.c.f. convergence is                                          :             -4.407700890 eV

  Before relying on these values, please be sure to understand exactly which
  total energy value is referred to by a given number. Different objects may
  all carry the same name 'total energy'. Definitions:

  Total energy of the DFT / Hartree-Fock s.c.f. calculation:
  | Note that this energy does not include ANY quantities calculated after the
  | s.c.f. cycle, in particular not ANY RPA, MP2, etc. many-body perturbation terms.

  Final zero-broadening corrected energy:
  | For metallic systems only, a broadening of the occupation numbers at the Fermi
  | level can be extrapolated back to zero broadening by an electron-gas inspired
  | formula. For all systems that are not real metals, this value can be
  | meaningless and should be avoided.

------------------------------------------------------------------------------
  Methods described in the following list of references were used in this FHI-aims run.
  If you publish the results, please make sure to cite these reference if they apply.
  FHI-aims is an academic code, and for our developers (often, Ph.D. students
  and postdocs), scientific credit in the community is essential.
  Thank you for helping us!

  For any use of FHI-aims, please cite:

    Volker Blum, Ralf Gehrke, Felix Hanke, Paula Havu, Ville Havu,
    Xinguo Ren, Karsten Reuter, and Matthias Scheffler
    'Ab initio molecular simulations with numeric atom-centered orbitals'
    Computer Physics Communications 180, 2175-2196 (2009)
    http://doi.org/10.1016/j.cpc.2009.06.022


  For Hartree-Fock, hybrid functionals, or many-body perturbation theory used in your run, please cite:

    Xinguo Ren, Patrick Rinke, Volker Blum, Juergen Wieferink, Alex Tkatchenko,
    Andrea Sanfilippo, Karsten Reuter, and Matthias Scheffler,
    'Resolution-of-identity approach to Hartree-Fock, hybrid density functionals,
    RPA, MP2, and GW with numeric atom-centered orbital basis functions'
    New Journal of Physics 14, 053020 (2012).
    http://doi.org/10.1088/1367-2630/14/5/053020


  The provided symmetry information was generated with SPGlib:

    Atsushi Togo, Yusuke Seto, Dimitar Pashov
    SPGlib 1.7.3 obtained from http://spglib.sourceforge.net
    Copyright (C) 2008 Atsushi Togo


  The DFPT (perturbation by an electric field) part of the code was used.
  Here is the corresponding reference:

    Honghui Shang, Nathaniel Raimbault, Mariana Rossi,
    Christian Carbogno, Patrick Rinke and Matthias Scheffler,
    'All-Electron, Real-Space Perturbation Theory for Homogeneous
    Electric Fields: Theory, Implementation, and Application within dft'
    New Journal of Physics, 20(7):073040, 2018


  The ELSI infrastructure was used in your run to solve the Kohn-Sham electronic structure.
  Please check out http://elsi-interchange.org to learn more.
  If scalability is important for your project, please acknowledge ELSI by citing:

    V. W-z. Yu, F. Corsetti, A. Garcia, W. P. Huhn, M. Jacquelin, W. Jia,
    B. Lange, L. Lin, J. Lu, W. Mi, A. Seifitokaldani, A. Vazquez-Mayagoitia,
    C. Yang, H. Yang, and V. Blum
    'ELSI: A unified software interface for Kohn-Sham electronic structure solvers'
    Computer Physics Communications 222, 267-285 (2018).
    http://doi.org/10.1016/j.cpc.2017.09.007


  For the real-space grid partitioning and parallelization used in this calculation, please cite:

    Ville Havu, Volker Blum, Paula Havu, and Matthias Scheffler,
    'Efficient O(N) integration for all-electron electronic structure calculation'
    'using numerically tabulated basis functions'
    Journal of Computational Physics 228, 8367-8379 (2009).
    http://doi.org/10.1016/j.jcp.2009.08.008


  The high-level electronic structure method used in your calculation
  employed our efficient localized resolution of identity for the Coulomb operator.
  Some calculations, especially large-scale hybrid density functional theory,
  are only possible thanks to this development. For this feature, please cite:

    Arvid Ihrig, Juergen Wieferink, Igor Ying Zhang, Matti Ropo, Xinguo Ren,
    Patrick Rinke, Matthias Scheffler, and Volker Blum,
    'Accurate localized resolution of identity approach for linear-scaling
    hybrid density functionals and for many-body perturbation theory'
    New Journal of Physics 117, 093020 (2015).
    http://doi.org/10.1088/1367-2630/17/9/093020

  Of course, there are many other important community references, e.g., those cited in the
  above references. Our list is limited to references that describe implementations in the
  FHI-aims code. The reason is purely practical (length of this list) - please credit others as well.

------------------------------------------------------------
          Leaving FHI-aims.
          Date     :  20230221, Time     :  125037.463

          Computational steps:
          | Number of self-consistency cycles          :           45
          | Number of SCF (re)initializations          :            1
          | Number of coupled perturbed self-consistency cycles          :            0
          | Number of CPSCF (re)initializations          :            0

          Detailed time accounting                     :  max(cpu_time)    wall_clock(cpu1)
          | Total time                                  :      403.532 s         416.893 s
          | GPU initialization                          :        2.214 s          11.487 s
          | Preparation time                            :        0.067 s           0.060 s
          | Boundary condition initalization            :        1.309 s           1.310 s
          | Grid partitioning                           :        0.423 s           0.424 s
          | Preloading free-atom quantities on grid     :        2.054 s           2.055 s
          | Free-atom superposition energy              :        0.284 s           0.283 s
          | Total time for integrations                 :       11.540 s          11.741 s
          | Product basis setup: Total time             :        0.000 s           0.000 s
          | Product basis: | 2-center integrations     :(       0.000 s)  (       0.000 s)
          | Product basis: | LVL 3-center & coefficient:(       0.000 s)  (       0.000 s)
          | Total time for solution of K.-S. equations  :        2.678 s           5.653 s
          | Total time for density update               :        8.400 s           8.743 s
          | Total time for mixing & preconditioning     :        8.716 s           8.721 s
          | Total time for Hartree multipole update     :        0.102 s           0.103 s
          | Total time for Hartree multipole sum        :       37.146 s          37.157 s
          | Total time for total energy evaluation      :        0.004 s           0.007 s
          | Total time for DFPT                         :      327.916 s         328.057 s
          | Total time first_order_DM                   :        0.262 s           0.259 s
          | Total time first_order_density              :       69.161 s          69.177 s
          | Total time first_order_potential            :       51.329 s          51.347 s
          | Total time first_order_H                    :      128.419 s         128.464 s
          | Total time solving of Sternheimer equations :        0.186 s           0.187 s
          | Total time for dielectric constant          :        0.000 s           0.000 s
          | Total time momentum matrix                  :        0.000 s           0.000 s

          GPU acceleration has been used for charge density update.
          GPU acceleration has been used for real-space Hamiltonian integration.
          Due to GPU usage, wall_clock(cpu1) will give a more reliable estimate for timings.

          Partial memory accounting:
          | Residual value for overall tracked memory usage across tasks:     0.000000 MB (should be 0.000000 MB)
          | Peak values for overall tracked memory usage:
          |   Minimum:      104.925 MB (on task  0 after allocating DFPT_pulay_mixing::pulay_mix::alphas)
          |   Maximum:      104.925 MB (on task  0 after allocating DFPT_pulay_mixing::pulay_mix::alphas)
          |   Average:      104.925 MB
          | Largest tracked array allocation:
          |   Minimum:       37.396 MB (DFPT_pulay_mixing::initialize_pulay_mixing::X_in_diffs on task  0)
          |   Maximum:       37.396 MB (DFPT_pulay_mixing::initialize_pulay_mixing::X_in_diffs on task  0)
          |   Average:       37.396 MB
          Note:  These values currently only include a subset of arrays which are explicitly tracked.
          The "true" memory usage will be greater.

          Have a nice day.
------------------------------------------------------------
