------------------------------------------------------------
          Invoking FHI-aims ...

          When using FHI-aims, please cite the following reference:

            Volker Blum, Ralf Gehrke, Felix Hanke, Paula Havu,
            Ville Havu, Xinguo Ren, Karsten Reuter, and Matthias Scheffler,
            'Ab Initio Molecular Simulations with Numeric Atom-Centered Orbitals',
            Computer Physics Communications 180, 2175-2196 (2009)

          In addition, many other developments in FHI-aims are likely important for
          your particular application. A partial list of references is given at the end of
          this file. Thank you for giving credit to the authors of these developments.

          For any questions about FHI-aims, please visit our slack channel at

            https://fhi-aims.slack.com

          and our main development and support site at

            https://aims-git.rz-berlin.mpg.de .

          The latter site, in particular, has a wiki to collect information, as well
          as an issue tracker to log discussions, suggest improvements, and report issues
          or bugs. https://aims-git.rz-berlin.mpg.de is also the main development site
          of the project and all new and updated code versions can be obtained there.
          Please send an email to aims-coordinators@fhi-berlin.mpg.de and we will add
          you to these sites. They are for you and everyone is welcome there.

------------------------------------------------------------



  Date     :  20230221, Time     :  143323.188
  Time zero on CPU 1             :   0.404907000000000E+00  s.
  Internal wall clock time zero  :           446222003.188  s.

  FHI-aims created a unique identifier for this run for later identification
  aims_uuid : FDCBFA42-FD20-4693-A485-925B2FECB905

  Build configuration of the current instance of FHI-aims
  -------------------------------------------------------
  FHI-aims version      : 221103
  Commit number         : 42523251a
  CMake host system     : Linux-5.3.18-150300.59.68-default
  CMake version         : 3.17.0
  Fortran compiler      : /mpcdf/soft/SLE_15/packages/x86_64/intel_oneapi/2021.3/mpi/2021.3.0/bin/mpiifort (Intel) version 20.2.3.20210609
  Fortran compiler flags: -O3 -ip -fp-model precise
  C compiler            : /mpcdf/soft/SLE_15/packages/x86_64/intel/2021.3.0/bin/icc (Intel) version 20.2.3.20210609
  C compiler flags      : -O3 -ip -fp-model precise -std=gnu99
  CUDA compiler         : /mpcdf/soft/SLE_15/packages/x86_64/cuda/11.6.2/bin/nvcc
  CUDA compiler flags   : -O3 -DAdd_ -lcublas
  HIP compiler          :
  HIP compiler flags    :
  HIP GPU arch          :
  ELPA2 kernel          : AVX512
  Using MPI
  Using ScaLAPACK
  Using LibXC
  Using CUDA
  Using i-PI
  Using RLSY
  Linking against: /mpcdf/soft/SLE_15/packages/x86_64/cuda/11.6.2/lib64/libcublas.so
                   /mpcdf/soft/SLE_15/packages/x86_64/cuda/11.6.2/lib64/libcudart.so
                   /mpcdf/soft/SLE_15/packages/x86_64/intel_oneapi/2021.3/mkl/latest/lib/intel64/libmkl_intel_lp64.so
                   /mpcdf/soft/SLE_15/packages/x86_64/intel_oneapi/2021.3/mkl/latest/lib/intel64/libmkl_sequential.so
                   /mpcdf/soft/SLE_15/packages/x86_64/intel_oneapi/2021.3/mkl/latest/lib/intel64/libmkl_core.so
                   /mpcdf/soft/SLE_15/packages/x86_64/intel_oneapi/2021.3/mkl/latest/lib/intel64/libmkl_blacs_intelmpi_lp64.so
                   /mpcdf/soft/SLE_15/packages/x86_64/intel_oneapi/2021.3/mkl/latest/lib/intel64/libmkl_scalapack_lp64.so

  Using       18 parallel tasks.
  Task        0 on host adag039 reporting.
  Task        1 on host adag039 reporting.
  Task        2 on host adag039 reporting.
  Task        3 on host adag039 reporting.
  Task        4 on host adag039 reporting.
  Task        5 on host adag039 reporting.
  Task        6 on host adag039 reporting.
  Task        7 on host adag039 reporting.
  Task        8 on host adag039 reporting.
  Task        9 on host adag039 reporting.
  Task       10 on host adag039 reporting.
  Task       11 on host adag039 reporting.
  Task       12 on host adag039 reporting.
  Task       13 on host adag039 reporting.
  Task       14 on host adag039 reporting.
  Task       15 on host adag039 reporting.
  Task       16 on host adag039 reporting.
  Task       17 on host adag039 reporting.

  Obtaining array dimensions for all initial allocations:
  
  -----------------------------------------------------------------------
  Parsing control.in (first pass over file, find array dimensions only).
  The contents of control.in will be repeated verbatim below
  unless switched off by setting 'verbatim_writeout .false.' .
  in the first line of control.in .
  -----------------------------------------------------------------------
  
  #########################################################################################
  #
  #  Volker Blum, 2017 : Test run input file control.in for simple H2O
  #
  #########################################################################################
  #
  #  Physical model
  #
    xc                 pw-lda
    spin               none
    relativistic       none
    charge             0.
  
    use_gpu
  
    DFPT dielectric
    ri_density_restart write
    ri_rho1 write
  #  ri_density_restart read 0
  #  ri_rho1 read
    ri_full_output .true.
    sc_accuracy_rho    1d-6
  #  use_calculate_fock_matrix_old .false.
  #  wave_threshold 1e-8
    k_grid 1 1 1
  #  output cube eigenstate 160
  #  output cube eigenstate 161
    wave_threshold 1e-8
    default_prodbas_acc 1e-6
    default_max_l_prodbas 6
  #
  #  Relaxation
  #
  #  relax_geometry   bfgs 1.e-2
  #
  
  ################################################################################
  
  
  ################################################################################
  #
  #  FHI-aims code project
  #  VB, Fritz-Haber Institut, 2009
  #
  #  Suggested "light" defaults for H atom (to be pasted into control.in file)
  #  Be sure to double-check any results obtained with these settings for post-processing,
  #  e.g., with the "tight" defaults and larger basis sets.
  #
  ################################################################################
    species        H
  #     global species definitions
      nucleus             1
      mass                1.00794
  #
      l_hartree           4
  #
      cut_pot             3.5  1.5  1.0
      basis_dep_cutoff    1e-4
  #
      radial_base         24 5.0
      radial_multiplier   1
      angular_grids       specified
        division   0.2421   50
        division   0.3822  110
        division   0.4799  194
        division   0.5341  302
  #      division   0.5626  434
  #      division   0.5922  590
  #      division   0.6542  770
  #      division   0.6868 1202
  #      outer_grid  770
        outer_grid  302
  ################################################################################
  #
  #  Definition of "minimal" basis
  #
  ################################################################################
  #     valence basis states
      valence      1  s   1.
  #     ion occupancy
      ion_occ      1  s   0.5
  ################################################################################
  #
  #  Suggested additional basis functions. For production calculations,
  #  uncomment them one after another (the most important basis functions are
  #  listed first).
  #
  #  Basis constructed for dimers: 0.5 A, 0.7 A, 1.0 A, 1.5 A, 2.5 A
  #
  ################################################################################
  #  "First tier" - improvements: -1014.90 meV to -62.69 meV
       hydro 2 s 2.1
       hydro 2 p 3.5
  #  "Second tier" - improvements: -12.89 meV to -1.83 meV
  #     hydro 1 s 0.85
  #     hydro 2 p 3.7
  #     hydro 2 s 1.2
  #     hydro 3 d 7
  #  "Third tier" - improvements: -0.25 meV to -0.12 meV
  #     hydro 4 f 11.2
  #     hydro 3 p 4.8
  #     hydro 4 d 9
  #     hydro 3 s 3.2
  ################################################################################
  #
  #  FHI-aims code project
  #  VB, Fritz-Haber Institut, 2009
  #
  #  Suggested "light" defaults for O atom (to be pasted into control.in file)
  #  Be sure to double-check any results obtained with these settings for post-processing,
  #  e.g., with the "tight" defaults and larger basis sets.
  #
  ################################################################################
    species        O
  #     global species definitions
      nucleus             8
      mass                15.9994
  #
      l_hartree           4
  #
      cut_pot             3.5  1.5  1.0
      basis_dep_cutoff    1e-4
  #
      radial_base         36 5.0
      radial_multiplier   1
       angular_grids specified
        division   0.2659   50
        division   0.4451  110
        division   0.6052  194
        division   0.7543  302
  #      division   0.8014  434
  #      division   0.8507  590
  #      division   0.8762  770
  #      division   0.9023  974
  #      division   1.2339 1202
  #      outer_grid 974
        outer_grid 302
  ################################################################################
  #
  #  Definition of "minimal" basis
  #
  ################################################################################
  #     valence basis states
      valence      2  s   2.
      valence      2  p   4.
  #     ion occupancy
      ion_occ      2  s   1.
      ion_occ      2  p   3.
  ################################################################################
  #
  #  Suggested additional basis functions. For production calculations,
  #  uncomment them one after another (the most important basis functions are
  #  listed first).
  #
  #  Constructed for dimers: 1.0 A, 1.208 A, 1.5 A, 2.0 A, 3.0 A
  #
  ################################################################################
  #  "First tier" - improvements: -699.05 meV to -159.38 meV
       hydro 2 p 1.8
       hydro 3 d 7.6
       hydro 3 s 6.4
  #  "Second tier" - improvements: -49.91 meV to -5.39 meV
  #     hydro 4 f 11.6
  #     hydro 3 p 6.2
  #     hydro 3 d 5.6
  #     hydro 5 g 17.6
  #     hydro 1 s 0.75
  #  "Third tier" - improvements: -2.83 meV to -0.50 meV
  #     ionic 2 p auto
  #     hydro 4 f 10.8
  #     hydro 4 d 4.7
  #     hydro 2 s 6.8
  #  "Fourth tier" - improvements: -0.40 meV to -0.12 meV
  #     hydro 3 p 5
  #     hydro 3 s 3.3
  #     hydro 5 g 15.6
  #     hydro 4 f 17.6
  #     hydro 4 d 14
  # Further basis functions - -0.08 meV and below
  #     hydro 3 s 2.1
  #     hydro 4 d 11.6
  #     hydro 3 p 16
  #     hydro 2 s 17.2
  
  -----------------------------------------------------------------------
  Completed first pass over input file control.in .
  -----------------------------------------------------------------------
  
  
  -----------------------------------------------------------------------
  Parsing geometry.in (first pass over file, find array dimensions only).
  The contents of geometry.in will be repeated verbatim below
  unless switched off by setting 'verbatim_writeout .false.' .
  in the first line of geometry.in .
  -----------------------------------------------------------------------
  
  #=======================================================
  # FHI-aims file: /ada/ptmp/mpsd/alewis/bulk_water/qmdata/data/geoms/339.in
  # Created using the Atomic Simulation Environment (ASE)
  # Tue Feb 21 11:23:37 2023
  #=======================================================
  lattice_vector 9.7089099999999995 0.0000000000000000 0.0000000000000000
  lattice_vector 0.0000000000000000 9.7089099999999995 0.0000000000000000
  lattice_vector 0.0000000000000000 0.0000000000000000 9.7089099999999995
  atom 10.8815000000000008 20.4771999999999998 -10.0020000000000007 O
  atom 10.9369999999999994 19.5350000000000001 -10.0696999999999992 H
  atom 10.3026999999999997 20.6188000000000002 -9.4071700000000007 H
  atom 18.3731000000000009 16.3166000000000011 5.3195899999999998 O
  atom 19.1382000000000012 16.0850000000000009 4.8064799999999996 H
  atom 18.1847999999999992 17.3404999999999987 5.3684300000000000 H
  atom -3.1206700000000001 2.0300099999999999 21.5105000000000004 O
  atom -2.4256099999999998 1.5514300000000001 20.9170000000000016 H
  atom -3.8111500000000000 1.8667199999999999 20.8737999999999992 H
  atom 22.4372000000000007 14.6953999999999994 -9.3515700000000006 O
  atom 22.7615000000000016 13.8094999999999999 -8.8378899999999998 H
  atom 22.1370000000000005 14.1448000000000000 -10.2653999999999996 H
  atom 1.2508400000000000 -11.1690000000000005 11.8864000000000001 O
  atom 1.4936700000000001 -10.8407000000000000 12.7425999999999995 H
  atom 0.2292430000000000 -10.8457000000000008 11.8634000000000004 H
  atom -5.4243699999999997 7.4205399999999999 12.9654000000000007 O
  atom -6.0424800000000003 8.2719100000000001 13.0054999999999996 H
  atom -4.6664599999999998 7.4385100000000000 12.1928999999999998 H
  atom 3.0762700000000001 8.9056499999999996 -2.2891800000000000 O
  atom 3.4317700000000002 8.3236299999999996 -2.8670499999999999 H
  atom 3.7312599999999998 9.7495499999999993 -2.3665699999999998 H
  atom -5.9078400000000002 -17.5324999999999989 -2.7404000000000002 O
  atom -5.3923600000000000 -17.6767000000000003 -3.4117000000000002 H
  atom -6.8087499999999999 -17.4625999999999983 -3.0239600000000002 H
  atom -9.5733599999999992 -25.9845000000000006 13.9968000000000004 O
  atom -9.2556700000000003 -25.1512999999999991 13.4519000000000002 H
  atom -10.4532000000000007 -25.9710999999999999 13.9232999999999993 H
  atom 10.4041999999999994 -33.2004000000000019 21.1895999999999987 O
  atom 10.9710000000000001 -33.6039999999999992 20.5813999999999986 H
  atom 10.7055000000000007 -32.2924000000000007 21.2591000000000001 H
  atom 1.1878500000000001 3.7206199999999998 -30.4562999999999988 O
  atom 0.8040860000000000 3.2549100000000002 -29.6082999999999998 H
  atom 0.5087360000000000 4.3662299999999998 -30.7469000000000001 H
  atom 11.8657000000000004 5.7415399999999996 4.5357399999999997 O
  atom 12.2989999999999995 5.9566100000000004 3.7146499999999998 H
  atom 11.5302000000000007 4.9796500000000004 4.0698999999999996 H
  atom 14.8336000000000006 15.8881999999999994 8.8536199999999994 O
  atom 14.0149000000000008 15.5789000000000009 9.4286100000000008 H
  atom 15.4030000000000005 15.1295000000000002 8.4698799999999999 H
  atom -16.7378000000000000 -28.9933000000000014 -5.4935499999999999 O
  atom -17.0496000000000016 -28.8258000000000010 -4.6069300000000002 H
  atom -15.7538999999999998 -28.5707999999999984 -5.4154499999999999 H
  atom 38.6921999999999997 20.8521999999999998 -7.6310099999999998 O
  atom 39.0991000000000000 21.1487000000000016 -6.8644200000000000 H
  atom 38.2712999999999965 19.9031999999999982 -7.5529599999999997 H
  atom -4.6183600000000000 10.9732000000000003 -5.2476900000000004 O
  atom -3.8932699999999998 10.3938000000000006 -5.0765000000000002 H
  atom -4.1318500000000000 11.2741000000000007 -6.1030800000000003 H
  atom -41.4879000000000033 -10.5117999999999991 -4.6208700000000000 O
  atom -42.0249000000000024 -11.0747999999999998 -4.0382199999999999 H
  atom -40.8096000000000032 -10.0531000000000006 -3.9690900000000000 H
  atom -12.1483000000000008 11.1440999999999999 17.6458000000000013 O
  atom -11.4987999999999992 10.4368999999999996 17.6738000000000000 H
  atom -13.0619999999999994 10.7525999999999993 18.1854000000000013 H
  atom -12.6727000000000007 -5.0499599999999996 -15.0946999999999996 O
  atom -13.5660000000000007 -5.0029000000000003 -14.7996999999999996 H
  atom -12.2713999999999999 -4.1579400000000000 -14.9235000000000007 H
  atom 17.1816999999999993 4.8227200000000003 1.4147200000000000 O
  atom 16.8101999999999983 4.6215299999999999 2.2839600000000000 H
  atom 18.0961999999999996 5.0570500000000003 1.2597900000000000 H
  atom -12.6704000000000008 3.9627800000000000 -10.7646999999999995 O
  atom -12.4899000000000004 3.0662799999999999 -11.0076999999999998 H
  atom -12.1870999999999992 4.0510000000000002 -9.9810300000000005 H
  atom 2.5610400000000002 12.3620999999999999 -6.5846200000000001 O
  atom 3.1058800000000000 12.2581000000000007 -7.4970100000000004 H
  atom 2.6135600000000001 11.5090000000000003 -6.1520500000000000 H
  atom 4.8696599999999997 17.3496999999999986 6.0464900000000004 O
  atom 4.4917699999999998 17.3338999999999999 5.1002700000000001 H
  atom 4.9532999999999996 16.4506000000000014 6.1921900000000001 H
  atom 8.8964800000000004 15.1629000000000005 36.8059000000000012 O
  atom 8.1227400000000003 14.9000000000000004 37.2620999999999967 H
  atom 8.5452800000000000 15.4666999999999994 35.7637000000000000 H
  atom 4.4558999999999997 -4.9139499999999998 15.6015999999999995 O
  atom 4.3360200000000004 -5.7694799999999997 15.8818999999999999 H
  atom 3.4623699999999999 -4.7194200000000004 15.4405999999999999 H
  atom 19.8562000000000012 7.7221399999999996 -10.6930999999999994 O
  atom 20.6933000000000007 7.5829399999999998 -11.0287000000000006 H
  atom 19.1160999999999994 6.9875100000000003 -10.8062000000000005 H
  atom 10.8952000000000009 21.3060000000000009 6.3474599999999999 O
  atom 10.5067000000000004 21.7195000000000000 5.5701000000000001 H
  atom 10.7920999999999996 21.8837000000000010 7.1172399999999998 H
  atom 14.9183000000000003 29.3211000000000013 9.1830599999999993 O
  atom 14.4466000000000001 28.6317999999999984 8.6234099999999998 H
  atom 14.3752999999999993 29.9031999999999982 9.8534100000000002 H
  atom 6.4708699999999997 7.3951599999999997 20.7223000000000006 O
  atom 6.6554000000000002 6.4398799999999996 20.9156000000000013 H
  atom 6.2037399999999998 7.2124899999999998 19.8677999999999990 H
  atom 19.0256000000000007 9.3904800000000002 6.3615300000000001 O
  atom 19.3444000000000003 10.2723999999999993 6.2926200000000003 H
  atom 19.4137999999999984 9.0862800000000004 7.2119900000000001 H
  atom -5.8647000000000000 12.1036999999999999 29.7902999999999984 O
  atom -6.6490900000000002 11.5574999999999992 29.4191000000000003 H
  atom -5.4831200000000004 12.2376000000000005 28.9354000000000013 H
  atom -20.7345000000000006 -0.8825530000000000 12.3394999999999992 O
  atom -21.4592999999999989 -0.6460920000000000 13.1181999999999999 H
  atom -21.4105999999999987 -1.3746100000000001 11.7402999999999995 H
  
  -----------------------------------------------------------------------
  Completed first pass over input file geometry.in .
  -----------------------------------------------------------------------
  

  Basic array size parameters:
  | Number of species                 :        2
  | Number of atoms                   :       96
  | Number of lattice vectors         :        3
  | Max. basis fn. angular momentum   :        2
  | Max. atomic/ionic basis occupied n:        2
  | Max. number of basis fn. types    :        2
  | Max. radial fns per species/type  :        3
  | Max. logarithmic grid size        :     1301
  | Max. radial integration grid size :       36
  | Max. angular integration grid size:      302
  | Max. angular grid division number :        8
  | Radial grid for Hartree potential :     1301
  | Number of spin channels           :        1

------------------------------------------------------------
          Reading file control.in.
------------------------------------------------------------
  XC: Using Perdew-Wang parametrisation of Ceperley-Alder LDA.
  Spin treatment: No spin polarisation.
  Non-relativistic treatment of kinetic energy.
  Charge =   0.000000E+00: Neutral system requested explicitly.
  DFPT calculation will begin after the DFT/HF calculation.
  Convergence accuracy of self-consistent charge density:  0.1000E-05
  Found k-point grid:         1         1         1
  Threshold value for wave function integration:  0.1000E-07
 
  Reading configuration options for species H                   .
  | Found nuclear charge :   1.0000
  | Found atomic mass :    1.00794000000000      amu
  | Found l_max for Hartree potential  :   4
  | Found cutoff potl. onset [A], width [A], scale factor :    3.50000    1.50000    1.00000
  | Threshold for basis-dependent cutoff potential is   0.100000E-03
  | Found data for basic radial integration grid :    24 points, outermost radius =    5.000 A
  | Found multiplier for basic radial grid :   1
  | Found angular grid specification: user-specified.
  | Specified grid contains     5 separate shells.
  | Check grid settings after all constraints further below.
  | Found free-atom valence shell :  1 s   1.000
  | No ionic wave fns used. Skipping ion_occ.
  | Found hydrogenic basis function :  2 s   2.100
  | Found hydrogenic basis function :  2 p   3.500
  Species H                   : Missing cutoff potential type.
  Defaulting to exp(1/x)/(1-x)^2 type cutoff potential.
  Species H : No 'logarithmic' tag. Using default grid for free atom:
  | Default logarithmic grid data [bohr] : 0.1000E-03 0.1000E+03 0.1012E+01
  Species H : On-site basis accuracy parameter (for Gram-Schmidt orthonormalisation) not specified.
  Using default value basis_acc =  0.1000000E-03.
  Species H                   : Using default innermost maximum threshold i_radial=  2 for radial functions.
  Species H                   : Default cutoff onset for free atom density etc. : 0.35000000E+01 AA.
  Species H                   : Basic radial grid will be enhanced according to radial_multiplier =   1, to contain    24 grid points.
 
  Reading configuration options for species O                   .
  | Found nuclear charge :   8.0000
  | Found atomic mass :    15.9994000000000      amu
  | Found l_max for Hartree potential  :   4
  | Found cutoff potl. onset [A], width [A], scale factor :    3.50000    1.50000    1.00000
  | Threshold for basis-dependent cutoff potential is   0.100000E-03
  | Found data for basic radial integration grid :    36 points, outermost radius =    5.000 A
  | Found multiplier for basic radial grid :   1
  | Found angular grid specification: user-specified.
  | Specified grid contains     5 separate shells.
  | Check grid settings after all constraints further below.
  | Found free-atom valence shell :  2 s   2.000
  | Found free-atom valence shell :  2 p   4.000
  | No ionic wave fns used. Skipping ion_occ.
  | No ionic wave fns used. Skipping ion_occ.
  | Found hydrogenic basis function :  2 p   1.800
  | Found hydrogenic basis function :  3 d   7.600
  | Found hydrogenic basis function :  3 s   6.400
  Species O                   : Missing cutoff potential type.
  Defaulting to exp(1/x)/(1-x)^2 type cutoff potential.
  Species O : No 'logarithmic' tag. Using default grid for free atom:
  | Default logarithmic grid data [bohr] : 0.1000E-03 0.1000E+03 0.1012E+01
  Species O : On-site basis accuracy parameter (for Gram-Schmidt orthonormalisation) not specified.
  Using default value basis_acc =  0.1000000E-03.
  Species O                   : Using default innermost maximum threshold i_radial=  2 for radial functions.
  Species O                   : Default cutoff onset for free atom density etc. : 0.35000000E+01 AA.
  Species O                   : Basic radial grid will be enhanced according to radial_multiplier =   1, to contain    36 grid points.
 
  Finished reading input file 'control.in'.
 
------------------------------------------------------------


------------------------------------------------------------
          Reading geometry description geometry.in.
------------------------------------------------------------
  | The smallest distance between any two atoms is         0.84195174 AA.
  | The first atom of this pair is atom number                      1 .
  | The second atom of this pair is atom number                     3 .
  | Wigner-Seitz cell of the first atom image           0     0     0 .
  | (The Wigner-Seitz cell of the second atom is 0 0 0  by definition.)

  Symmetry information by spglib:
  | Precision set to  0.1E-04
  | Number of Operations  : 1
  | Space group           : 1
  | International         : P1
  | Schoenflies           : C1^1
  Input structure read successfully.
  The structure contains       96 atoms,  and a total of        320.000 electrons.

  Input geometry:
  | Unit cell:
  |        9.70891000        0.00000000        0.00000000
  |        0.00000000        9.70891000        0.00000000
  |        0.00000000        0.00000000        9.70891000
  | Atomic structure:
  |       Atom                x [A]            y [A]            z [A]
  |    1: Species O            10.88150000       20.47720000      -10.00200000
  |    2: Species H            10.93700000       19.53500000      -10.06970000
  |    3: Species H            10.30270000       20.61880000       -9.40717000
  |    4: Species O            18.37310000       16.31660000        5.31959000
  |    5: Species H            19.13820000       16.08500000        4.80648000
  |    6: Species H            18.18480000       17.34050000        5.36843000
  |    7: Species O            -3.12067000        2.03001000       21.51050000
  |    8: Species H            -2.42561000        1.55143000       20.91700000
  |    9: Species H            -3.81115000        1.86672000       20.87380000
  |   10: Species O            22.43720000       14.69540000       -9.35157000
  |   11: Species H            22.76150000       13.80950000       -8.83789000
  |   12: Species H            22.13700000       14.14480000      -10.26540000
  |   13: Species O             1.25084000      -11.16900000       11.88640000
  |   14: Species H             1.49367000      -10.84070000       12.74260000
  |   15: Species H             0.22924300      -10.84570000       11.86340000
  |   16: Species O            -5.42437000        7.42054000       12.96540000
  |   17: Species H            -6.04248000        8.27191000       13.00550000
  |   18: Species H            -4.66646000        7.43851000       12.19290000
  |   19: Species O             3.07627000        8.90565000       -2.28918000
  |   20: Species H             3.43177000        8.32363000       -2.86705000
  |   21: Species H             3.73126000        9.74955000       -2.36657000
  |   22: Species O            -5.90784000      -17.53250000       -2.74040000
  |   23: Species H            -5.39236000      -17.67670000       -3.41170000
  |   24: Species H            -6.80875000      -17.46260000       -3.02396000
  |   25: Species O            -9.57336000      -25.98450000       13.99680000
  |   26: Species H            -9.25567000      -25.15130000       13.45190000
  |   27: Species H           -10.45320000      -25.97110000       13.92330000
  |   28: Species O            10.40420000      -33.20040000       21.18960000
  |   29: Species H            10.97100000      -33.60400000       20.58140000
  |   30: Species H            10.70550000      -32.29240000       21.25910000
  |   31: Species O             1.18785000        3.72062000      -30.45630000
  |   32: Species H             0.80408600        3.25491000      -29.60830000
  |   33: Species H             0.50873600        4.36623000      -30.74690000
  |   34: Species O            11.86570000        5.74154000        4.53574000
  |   35: Species H            12.29900000        5.95661000        3.71465000
  |   36: Species H            11.53020000        4.97965000        4.06990000
  |   37: Species O            14.83360000       15.88820000        8.85362000
  |   38: Species H            14.01490000       15.57890000        9.42861000
  |   39: Species H            15.40300000       15.12950000        8.46988000
  |   40: Species O           -16.73780000      -28.99330000       -5.49355000
  |   41: Species H           -17.04960000      -28.82580000       -4.60693000
  |   42: Species H           -15.75390000      -28.57080000       -5.41545000
  |   43: Species O            38.69220000       20.85220000       -7.63101000
  |   44: Species H            39.09910000       21.14870000       -6.86442000
  |   45: Species H            38.27130000       19.90320000       -7.55296000
  |   46: Species O            -4.61836000       10.97320000       -5.24769000
  |   47: Species H            -3.89327000       10.39380000       -5.07650000
  |   48: Species H            -4.13185000       11.27410000       -6.10308000
  |   49: Species O           -41.48790000      -10.51180000       -4.62087000
  |   50: Species H           -42.02490000      -11.07480000       -4.03822000
  |   51: Species H           -40.80960000      -10.05310000       -3.96909000
  |   52: Species O           -12.14830000       11.14410000       17.64580000
  |   53: Species H           -11.49880000       10.43690000       17.67380000
  |   54: Species H           -13.06200000       10.75260000       18.18540000
  |   55: Species O           -12.67270000       -5.04996000      -15.09470000
  |   56: Species H           -13.56600000       -5.00290000      -14.79970000
  |   57: Species H           -12.27140000       -4.15794000      -14.92350000
  |   58: Species O            17.18170000        4.82272000        1.41472000
  |   59: Species H            16.81020000        4.62153000        2.28396000
  |   60: Species H            18.09620000        5.05705000        1.25979000
  |   61: Species O           -12.67040000        3.96278000      -10.76470000
  |   62: Species H           -12.48990000        3.06628000      -11.00770000
  |   63: Species H           -12.18710000        4.05100000       -9.98103000
  |   64: Species O             2.56104000       12.36210000       -6.58462000
  |   65: Species H             3.10588000       12.25810000       -7.49701000
  |   66: Species H             2.61356000       11.50900000       -6.15205000
  |   67: Species O             4.86966000       17.34970000        6.04649000
  |   68: Species H             4.49177000       17.33390000        5.10027000
  |   69: Species H             4.95330000       16.45060000        6.19219000
  |   70: Species O             8.89648000       15.16290000       36.80590000
  |   71: Species H             8.12274000       14.90000000       37.26210000
  |   72: Species H             8.54528000       15.46670000       35.76370000
  |   73: Species O             4.45590000       -4.91395000       15.60160000
  |   74: Species H             4.33602000       -5.76948000       15.88190000
  |   75: Species H             3.46237000       -4.71942000       15.44060000
  |   76: Species O            19.85620000        7.72214000      -10.69310000
  |   77: Species H            20.69330000        7.58294000      -11.02870000
  |   78: Species H            19.11610000        6.98751000      -10.80620000
  |   79: Species O            10.89520000       21.30600000        6.34746000
  |   80: Species H            10.50670000       21.71950000        5.57010000
  |   81: Species H            10.79210000       21.88370000        7.11724000
  |   82: Species O            14.91830000       29.32110000        9.18306000
  |   83: Species H            14.44660000       28.63180000        8.62341000
  |   84: Species H            14.37530000       29.90320000        9.85341000
  |   85: Species O             6.47087000        7.39516000       20.72230000
  |   86: Species H             6.65540000        6.43988000       20.91560000
  |   87: Species H             6.20374000        7.21249000       19.86780000
  |   88: Species O            19.02560000        9.39048000        6.36153000
  |   89: Species H            19.34440000       10.27240000        6.29262000
  |   90: Species H            19.41380000        9.08628000        7.21199000
  |   91: Species O            -5.86470000       12.10370000       29.79030000
  |   92: Species H            -6.64909000       11.55750000       29.41910000
  |   93: Species H            -5.48312000       12.23760000       28.93540000
  |   94: Species O           -20.73450000       -0.88255300       12.33950000
  |   95: Species H           -21.45930000       -0.64609200       13.11820000
  |   96: Species H           -21.41060000       -1.37461000       11.74030000

  Lattice parameters for 3D lattice (in Angstroms) :     9.708910    9.708910    9.708910
  Angle(s) between unit vectors (in degrees)       :    90.000000   90.000000   90.000000


  Quantities derived from the lattice vectors (in Angstrom^-1):
  | Reciprocal lattice vector 1:  0.647157  0.000000  0.000000
  | Reciprocal lattice vector 2:  0.000000  0.647157  0.000000
  | Reciprocal lattice vector 3:  0.000000  0.000000  0.647157
  | Unit cell volume                               :   0.915190E+03  Angstrom^3

  Fractional coordinates:
                         L1                L2                L3
       atom_frac         1.12077463        2.10911421       -1.03018773  O
       atom_frac         1.12649103        2.01206933       -1.03716071  H
       atom_frac         1.06115929        2.12369875       -0.96892133  H
       atom_frac         1.89239575        1.68058000        0.54790806  O
       atom_frac         1.97119965        1.65672563        0.49505866  H
       atom_frac         1.87300119        1.78603983        0.55293849  H
       atom_frac        -0.32142331        0.20908732        2.21554222  O
       atom_frac        -0.24983340        0.15979446        2.15441280  H
       atom_frac        -0.39254149        0.19226875        2.14996328  H
       atom_frac         2.31099063        1.51359936       -0.96319463  O
       atom_frac         2.34439293        1.42235328       -0.91028653  H
       atom_frac         2.28007057        1.45688857       -1.05731745  H
       atom_frac         0.12883424       -1.15038660        1.22427749  O
       atom_frac         0.15384528       -1.11657230        1.31246453  H
       atom_frac         0.02361161       -1.11708729        1.22190854  H
       atom_frac        -0.55870020        0.76430207        1.33541252  O
       atom_frac        -0.62236441        0.85199162        1.33954275  H
       atom_frac        -0.48063686        0.76615295        1.25584643  H
       atom_frac         0.31685019        0.91726569       -0.23578136  O
       atom_frac         0.35346604        0.85731869       -0.29530091  H
       atom_frac         0.38431297        1.00418585       -0.24375239  H
       atom_frac        -0.60849673       -1.80581548       -0.28225620  O
       atom_frac        -0.55540323       -1.82066782       -0.35139887  H
       atom_frac        -0.70128882       -1.79861591       -0.31146236  H
       atom_frac        -0.98603860       -2.67635605        1.44164484  O
       atom_frac        -0.95331711       -2.59053797        1.38552113  H
       atom_frac        -1.07666051       -2.67497587        1.43407447  H
       atom_frac         1.07161360       -3.41958057        2.18249010  O
       atom_frac         1.12999297       -3.46115063        2.11984662  H
       atom_frac         1.10264695       -3.32605823        2.18964848  H
       atom_frac         0.12234638        0.38321707       -3.13694328  O
       atom_frac         0.08281939        0.33524979       -3.04960083  H
       atom_frac         0.05239888        0.44971372       -3.16687455  H
       atom_frac         1.22214543        0.59136814        0.46717294  O
       atom_frac         1.26677454        0.61351995        0.38260217  H
       atom_frac         1.18758954        0.51289486        0.41919227  H
       atom_frac         1.52783371        1.63645559        0.91190669  O
       atom_frac         1.44350911        1.60459825        0.97112961  H
       atom_frac         1.58648087        1.55831087        0.87238217  H
       atom_frac        -1.72396283       -2.98625695       -0.56582562  O
       atom_frac        -1.75607766       -2.96900476       -0.47450538  H
       atom_frac        -1.62262293       -2.94274023       -0.55778146  H
       atom_frac         3.98522594        2.14773852       -0.78598009  O
       atom_frac         4.02713590        2.17827748       -0.70702272  H
       atom_frac         3.94187401        2.04999325       -0.77794109  H
       atom_frac        -0.47568265        1.13021956       -0.54050249  O
       atom_frac        -0.40099970        1.07054242       -0.52287023  H
       atom_frac        -0.42557300        1.16121171       -0.62860609  H
       atom_frac        -4.27317794       -1.08269620       -0.47594117  O
       atom_frac        -4.32848796       -1.14068418       -0.41592929  H
       atom_frac        -4.20331428       -1.03545094       -0.40880902  H
       atom_frac        -1.25125272        1.14782195        1.81748518  O
       atom_frac        -1.18435540        1.07498164        1.82036912  H
       atom_frac        -1.34536215        1.10749816        1.87306299  H
       atom_frac        -1.30526496       -0.52013666       -1.55472653  O
       atom_frac        -1.39727323       -0.51528956       -1.52434207  H
       atom_frac        -1.26393179       -0.42826023       -1.53709325  H
       atom_frac         1.76968372        0.49673135        0.14571358  O
       atom_frac         1.73141990        0.47600915        0.23524371  H
       atom_frac         1.86387555        0.52086692        0.12975607  H
       atom_frac        -1.30502806        0.40815910       -1.10874444  O
       atom_frac        -1.28643689        0.31582124       -1.13377300  H
       atom_frac        -1.25524904        0.41724560       -1.02802786  H
       atom_frac         0.26378244        1.27327372       -0.67820384  O
       atom_frac         0.31989997        1.26256191       -0.77217834  H
       atom_frac         0.26919191        1.18540598       -0.63364992  H
       atom_frac         0.50156609        1.78698742        0.62277743  O
       atom_frac         0.46264411        1.78536005        0.52531850  H
       atom_frac         0.51018085        1.69438176        0.63778426  H
       atom_frac         0.91632119        1.56175101        3.79094049  O
       atom_frac         0.83662739        1.53467279        3.83792825  H
       atom_frac         0.88014823        1.59304186        3.68359579  H
       atom_frac         0.45894956       -0.50612788        1.60693631  O
       atom_frac         0.44660214       -0.59424590        1.63580670  H
       atom_frac         0.35661779       -0.48609164        1.59035360  H
       atom_frac         2.04515234        0.79536632       -1.10136977  O
       atom_frac         2.13137211        0.78102897       -1.13593596  H
       atom_frac         1.96892339        0.71970077       -1.11301887  H
       atom_frac         1.12218570        2.19447909        0.65377679  O
       atom_frac         1.08217091        2.23706884        0.57371013  H
       atom_frac         1.11156659        2.25398114        0.73306272  H
       atom_frac         1.53655766        3.02001976        0.94583841  O
       atom_frac         1.48797342        2.94902311        0.88819548  H
       atom_frac         1.48062965        3.07997499        1.01488324  H
       atom_frac         0.66648779        0.76168798        2.13435906  O
       atom_frac         0.68549405        0.66329588        2.15426860  H
       atom_frac         0.63897389        0.74287330        2.04634712  H
       atom_frac         1.95960206        0.96720229        0.65522597  O
       atom_frac         1.99243787        1.05803844        0.64812837  H
       atom_frac         1.99958595        0.93587025        0.74282180  H
       atom_frac        -0.60405339        1.24665900        3.06834650  O
       atom_frac        -0.68484413        1.19040139        3.03011358  H
       atom_frac        -0.56475135        1.26045045        2.98029336  H
       atom_frac        -2.13561564       -0.09090135        1.27094597  O
       atom_frac        -2.21026871       -0.06654630        1.35115064  H
       atom_frac        -2.20525270       -0.14158232        1.20922946  H

 
  Finished reading input file 'geometry.in'.
 

 
  Consistency checks for stacksize environment parameter are next.
 
  | Maximum stacksize for task 0: unlimited
  | Maximum stacksize for task 1: unlimited
  | Maximum stacksize for task 2: unlimited
  | Maximum stacksize for task 3: unlimited
  | Maximum stacksize for task 4: unlimited
  | Maximum stacksize for task 5: unlimited
  | Maximum stacksize for task 6: unlimited
  | Maximum stacksize for task 7: unlimited
  | Maximum stacksize for task 8: unlimited
  | Maximum stacksize for task 9: unlimited
  | Maximum stacksize for task 10: unlimited
  | Maximum stacksize for task 11: unlimited
  | Maximum stacksize for task 12: unlimited
  | Maximum stacksize for task 13: unlimited
  | Maximum stacksize for task 14: unlimited
  | Maximum stacksize for task 15: unlimited
  | Maximum stacksize for task 16: unlimited
  | Maximum stacksize for task 17: unlimited
  | Current stacksize for task 0: unlimited
  | Current stacksize for task 1: unlimited
  | Current stacksize for task 2: unlimited
  | Current stacksize for task 3: unlimited
  | Current stacksize for task 4: unlimited
  | Current stacksize for task 5: unlimited
  | Current stacksize for task 6: unlimited
  | Current stacksize for task 7: unlimited
  | Current stacksize for task 8: unlimited
  | Current stacksize for task 9: unlimited
  | Current stacksize for task 10: unlimited
  | Current stacksize for task 11: unlimited
  | Current stacksize for task 12: unlimited
  | Current stacksize for task 13: unlimited
  | Current stacksize for task 14: unlimited
  | Current stacksize for task 15: unlimited
  | Current stacksize for task 16: unlimited
  | Current stacksize for task 17: unlimited
 
  Consistency checks for the contents of control.in are next.
 
  MPI_IN_PLACE appears to work with this MPI implementation.
  | Keeping use_mpi_in_place .true. (see manual).
  Explicit treatment of the Coulomb operator is needed, but the RI method is not specified.
  Coulomb operator: Defaulting to 'LVL fast' resolution of identity - RI_type = LVL_fast
  Species H: Using default value for prodbas_acc =   1.000000E-06.
  Species H: Using default value max_l_prodbas =     6.
  Species O: Using default value for prodbas_acc =   1.000000E-06.
  Species O: Using default value max_l_prodbas =     6.
  Target number of points in a grid batch is not set.  Since GPU acceleration is enabled, defaulting to  200
  Method for grid partitioning is not set. Defaulting to parallel hash+maxmin partitioning.
  Batch size limit is not set. Defaulting to    200
  By default, will store active basis functions for each batch.
  If in need of memory, prune_basis_once .false. can be used to disable this option.
  communication_type for Hartree potential was not specified.
  Defaulting to calc_hartree .
  Defaulting to Pulay charge density mixer.
  Pulay mixer: Number of relevant iterations not set.
  Defaulting to    8 iterations.
  Pulay mixer: Number of initial linear mixing iterations not set.
  Defaulting to    0 iterations.
  Work space size for distributed Hartree potential not set.
  Defaulting to   0.200000E+03 MB.
  Mixing parameter for charge density mixing has not been set.
  Using default: charge_mix_param =     0.0500.
  The mixing parameter will be adjusted in iteration number     2 of the first full s.c.f. cycle only.
  Algorithm-dependent basis array size parameters:
  | n_max_pulay                         :        8
  Maximum number of self-consistency iterations not provided.
  Presetting  1000 iterations.
  Presetting      1001 iterations before the initial mixing cycle
  is restarted anyway using the sc_init_iter criterion / keyword.
  Presetting a factor      1.000 between actual scf density residual
  and density convergence criterion sc_accuracy_rho below which sc_init_iter
  takes no effect.
  Calculation of forces was not defined in control.in. No forces will be calculated.
  Geometry relaxation not requested: no relaxation will be performed.
  No accuracy limit for integral partition fn. given. Defaulting to  0.1000E-14.
  No occupation type (smearing scheme) given. Defaulting to Gaussian broadening, width =  0.1000E-01 eV.
  The width will be adjusted in iteration number     2 of the first full s.c.f. cycle only.
  S.C.F. convergence parameters will be adjusted in iteration number     2 of the first full s.c.f. cycle only.
  No accuracy for occupation numbers given. Defaulting to  0.1000E-12.
  No threshold value for occupation numbers given. Defaulting to  0.0000E+00.
  No accuracy for fermi level given. Defaulting to  0.1000E-19.
  Maximum # of iterations to find E_F not set. Defaulting to  200.
  Preferred method for the eigenvalue solver ('KS_method') not specified in 'control.in'.
  Calling BLACS routine to test compilation state
  Since ScaLAPACK support is enabled, defaulting to ELPA (via ELSI).
  Will not use alltoall communication since running on < 1024 CPUs.
  Threshold for basis singularities not set.
  Default threshold for basis singularities:  0.1000E-04
  partition_type (choice of integration weights) for integrals was not specified.
  | Using a version of the partition function of Stratmann and coworkers ('stratmann_sparse').
  | At each grid point, the set of atoms used to build the partition table is smoothly restricted to
  | only those atoms whose free-atom density would be non-zero at that grid point.
  Partitioning for Hartree potential was not defined. Using partition_type for integrals.
  | Adjusted default value of keyword multip_moments_threshold to:       0.10000000E-11
  | This value may affect high angular momentum components of the Hartree potential in periodic systems.
  Angular momentum expansion for Kerker preconditioner not set explicitly.
  | Using default value of   0
  No explicit requirement for turning off preconditioner.
  | By default, it will be turned off when the charge convergence reaches
  | sc_accuracy_rho  =   0.100000E-05
  No special mixing parameter while Kerker preconditioner is on.
  Using default: charge_mix_param =     0.0500.
  Threshold for auxiliary basis singularities not set.
  Default threshold for auxiliary basis singularities:  0.1000E-04
  No q(lm)/r^(l+1) cutoff set for long-range Hartree potential.
  | Using default value of  0.100000E-09 .
  | Verify using the multipole_threshold keyword.
  Defaulting to new monopole extrapolation.
  Density update method: automatic selection selected.
  Using density matrix based charge density update.
  Using density matrix based charge density update.
  Using packed matrix style: index .
  Defaulting to use time-reversal symmetry for k-point grid.
  Charge integration errors on the 3D integration grid will be compensated
  by explicit normalization and distribution of residual charges.
  Use the "compensate_multipole_errors" flag to change this behaviour.
  Default to 1D ("use_logsbt") integrations for auxiliary 2-center integrals.
  Default onset of logarithmic r-grid for SBT is -38.000000000000
  Default onset of logarithmic k-grid for SBT is -25.000000000000
  Default range of logarithmic r- and k-grid for SBT is  45.000000000000
  Default number of logarithmic r- and k-grid for SBT is   4096
  Default of use_2d_corr is to use the efficient 2D distribution where possible
 
  Consistency checks for the contents of geometry.in are next.
 

  Range separation radius for Ewald summation (hartree_convergence_parameter):      2.91813456 bohr.
  Number of empty states per atom not set in control.in .
  | Since you are using a method that relies on the unoccupied spectrum
  | (MP2,GW,RPA et al.), will use the full Hamiltonian size (see below)
  | as the max. possible number of states (occupied plus empty).

  Structure-dependent array size parameters: 
  | Maximum number of distinct radial functions  :        9
  | Maximum number of basis functions            :      768
  | Number of Kohn-Sham states (occupied + empty):      768
------------------------------------------------------------

  Performing system and environment tests:
  | Environment variable OMP_NUM_THREADS correctly set to 1.
  | Checking for ScaLAPACK...
  | Testing pdtran()...
  | All pdtran() tests passed.
CUDA runtime version: 11060
CUDA driver version: 11060
  Initializing GPUs...

  Number of GPUs available to MPI task         0 :   1
  Number of GPUs available to MPI task         1 :   1
  Number of GPUs available to MPI task         2 :   1
  Number of GPUs available to MPI task         3 :   1
  Number of GPUs available to MPI task         4 :   1
  Number of GPUs available to MPI task         5 :   1
  Number of GPUs available to MPI task         6 :   1
  Number of GPUs available to MPI task         7 :   1
  Number of GPUs available to MPI task         8 :   1
  Number of GPUs available to MPI task         9 :   1
  Number of GPUs available to MPI task        10 :   1
  Number of GPUs available to MPI task        11 :   1
  Number of GPUs available to MPI task        12 :   1
  Number of GPUs available to MPI task        13 :   1
  Number of GPUs available to MPI task        14 :   1
  Number of GPUs available to MPI task        15 :   1
  Number of GPUs available to MPI task        16 :   1
  Number of GPUs available to MPI task        17 :   1

  | MPI task         0, GPU activated = T, Device Name = NVIDIA A100-SXM4-80GB
  | MPI task         1, GPU activated = T, Device Name = NVIDIA A100-SXM4-80GB
  | MPI task         2, GPU activated = T, Device Name = NVIDIA A100-SXM4-80GB
  | MPI task         3, GPU activated = T, Device Name = NVIDIA A100-SXM4-80GB
  | MPI task         4, GPU activated = T, Device Name = NVIDIA A100-SXM4-80GB
  | MPI task         5, GPU activated = T, Device Name = NVIDIA A100-SXM4-80GB
  | MPI task         6, GPU activated = T, Device Name = NVIDIA A100-SXM4-80GB
  | MPI task         7, GPU activated = T, Device Name = NVIDIA A100-SXM4-80GB
  | MPI task         8, GPU activated = T, Device Name = NVIDIA A100-SXM4-80GB
  | MPI task         9, GPU activated = T, Device Name = NVIDIA A100-SXM4-80GB
  | MPI task        10, GPU activated = T, Device Name = NVIDIA A100-SXM4-80GB
  | MPI task        11, GPU activated = T, Device Name = NVIDIA A100-SXM4-80GB
  | MPI task        12, GPU activated = T, Device Name = NVIDIA A100-SXM4-80GB
  | MPI task        13, GPU activated = T, Device Name = NVIDIA A100-SXM4-80GB
  | MPI task        14, GPU activated = T, Device Name = NVIDIA A100-SXM4-80GB
  | MPI task        15, GPU activated = T, Device Name = NVIDIA A100-SXM4-80GB
  | MPI task        16, GPU activated = T, Device Name = NVIDIA A100-SXM4-80GB
  | MPI task        17, GPU activated = T, Device Name = NVIDIA A100-SXM4-80GB

------------------------------------------------------------
          Preparing all fixed parts of the calculation.
------------------------------------------------------------
  Determining machine precision:
    2.225073858507201E-308
  Setting up grids for atomic and cluster calculations.

  Creating wave function, potential, and density for free atoms.
  Runtime choices for atomic solver:
  | atomic solver xc        : PW-LDA
  | compute density gradient: 0
  | compute kinetic density : F

  Species: H

  List of occupied orbitals and eigenvalues:
    n    l              occ      energy [Ha]    energy [eV]
    1    0           1.0000        -0.232375        -6.3233


  Species: O

  List of occupied orbitals and eigenvalues:
    n    l              occ      energy [Ha]    energy [eV]
    1    0           2.0000       -18.757744      -510.4242
    2    0           2.0000        -0.870917       -23.6989
    2    1           4.0000        -0.337950        -9.1961


  Adding cutoff potential to free-atom effective potential.
  Creating fixed part of basis set: Ionic, confined, hydrogenic.
 
  H                    hydrogenic:
 
  List of hydrogenic basis orbitals: 
    n    l      effective z      eigenvalue [eV]  inner max. [A]     outer max. [A]     outer radius [A]   
    2    0         2.100000       -14.9728           0.193243           1.317208           4.696947
    2    1         3.500000       -41.6669           0.602369           0.602369           3.862494
 
 
  O                    hydrogenic:
 
  List of hydrogenic basis orbitals: 
    n    l      effective z      eigenvalue [eV]  inner max. [A]     outer max. [A]     outer radius [A]   
    2    1         1.800000       -10.9749           1.164242           1.164242           4.691341
    3    2         7.600000       -87.3180           0.624125           0.624125           3.413946
    3    0         6.400000       -61.9207           0.061167           1.081902           4.151495
 
  Creating atomic-like basis functions for current effective potential.

  Species H                   :

  List of atomic basis orbitals and eigenvalues:
    n    l      energy [Ha]    energy [eV]    outer radius [A]
    1    0        -0.232375        -6.3233       4.696947


  Species O                   :

  List of atomic basis orbitals and eigenvalues:
    n    l      energy [Ha]    energy [eV]    outer radius [A]
    1    0       -18.757744      -510.4242       1.830144
    2    0        -0.870917       -23.6989       4.578029
    2    1        -0.337950        -9.1961       4.634338

  Assembling full basis from fixed parts.
  | Species H :   atomic orbital   1 s accepted.
  | Species H :    hydro orbital   2 s accepted.
  | Species H :    hydro orbital   2 p accepted.
  | Species O :   atomic orbital   1 s accepted.
  | Species O :    hydro orbital   3 s accepted.
  | Species O :   atomic orbital   2 s accepted.
  | Species O :   atomic orbital   2 p accepted.
  | Species O :    hydro orbital   2 p accepted.
  | Species O :    hydro orbital   3 d accepted.
 
  Basis size parameters after reduction:
  | Total number of radial functions:        9
  | Total number of basis functions :      768
 
  Per-task memory consumption for arrays in subroutine allocate_ext:
  |           2.268304MB.
  Testing on-site integration grid accuracy.
  |  Species  Function  <phi|h_atom|phi> (log., in eV)  <phi|h_atom|phi> (rad., in eV)
           1        1                 -6.3245358373                 -6.3232436907
           1        2                 14.1326137532                 14.1384481100
           1        3                 25.3627025200                 25.3628451197
           2        4               -510.4241781764               -510.4240769407
           2        5                 14.9072942213                 14.9072945271
           2        6                -21.2004736474                -21.2005650551
           2        7                 -9.1962086505                 -9.1963509834
           2        8                  8.1896755006                  8.1702200081
           2        9                 45.7920584937                 45.7920228520

  Preparing densities etc. for the partition functions (integrals / Hartree potential).

  Preparations completed.
  max(cpu_time)          :      0.068 s.
  Wall clock time (cpu1) :      0.063 s.
------------------------------------------------------------

  Initializing index lists of integration centers etc. from given atomic structure:
  Mapping all atomic coordinates to central unit cell.

  Initializing the k-points
  Using symmetry for reducing the k-points
  | k-points reduced from:        1 to        1
  | Number of k-points                             :         1
  | Consuming          0 KiB for k_phase_exx.
  The eigenvectors in the calculations are REAL.
  | Number of basis functions in the Hamiltonian integrals :      4496
  | Number of basis functions in a single unit cell        :       768
  | Number of centers in hartree potential         :      2653
  | Number of centers in hartree multipole         :      1969
  | Number of centers in electron density summation:      1553
  | Number of centers in basis integrals           :      1634
  | Number of centers in integrals                 :       712
  | Number of centers in hamiltonian               :      1553
  | Consuming          0 KiB for k_phase.
  | Number of super-cells (origin) [n_cells]                     :         125
  | Number of super-cells (after PM_index) [n_cells]             :          28
  | Number of super-cells in hamiltonian [n_cells_in_hamiltonian]:          28
  | Size of matrix packed + index [n_hamiltonian_matrix_size] :      828304
  | Size of matrix packed + index (no_symmetry):     1655839

------------------------------------------------------------
          Begin self-consistency loop: Initialization.

          Date     :  20230221, Time     :  143334.278
------------------------------------------------------------
  | Estimated reciprocal-space cutoff momentum G_max:         3.24291698 bohr^-1 .
  | Reciprocal lattice points for long-range Hartree potential:    3574
  Using simple linear distribution as default method for k-point parallelism.
  * Using 18 tasks for Scalapack Eigenvalue solver.
  Detailed listing of tasks and assigned k-points:
   Task     0 k-point     1 on adag039
   Task     1 k-point     1 on adag039
   Task     2 k-point     1 on adag039
   Task     3 k-point     1 on adag039
   Task     4 k-point     1 on adag039
   Task     5 k-point     1 on adag039
   Task     6 k-point     1 on adag039
   Task     7 k-point     1 on adag039
   Task     8 k-point     1 on adag039
   Task     9 k-point     1 on adag039
   Task    10 k-point     1 on adag039
   Task    11 k-point     1 on adag039
   Task    12 k-point     1 on adag039
   Task    13 k-point     1 on adag039
   Task    14 k-point     1 on adag039
   Task    15 k-point     1 on adag039
   Task    16 k-point     1 on adag039
   Task    17 k-point     1 on adag039
  K-point:     1 Tasks:    18 split into      6 X      3 BLACS grid
  Calculating block size based on n_basis =          768  max_nprow =            6  max_npcol =            3
  ScaLAPACK block size set to:           16
  Allocating        0.250 MB for ovlp
  Allocating        0.250 MB for ham
  Allocating        0.250 MB for eigenvec
  Required Scalapack workspace - INTEGER:            1  REAL:             1
  Partitioning the integration grid into batches with parallel hashing+maxmin method.
  | Number of batches:     4096
  | Maximal batch size:     194
  | Minimal batch size:     100
  | Average batch size:     124.406
  | Standard deviation of batch sizes:      20.393

  Integration load balanced across    18 MPI tasks.
  Work distribution over tasks is as follows:
  Task     0 has      28323 integration points.
  Task     1 has      28294 integration points.
  Task     2 has      28257 integration points.
  Task     3 has      28331 integration points.
  Task     4 has      28326 integration points.
  Task     5 has      28346 integration points.
  Task     6 has      28305 integration points.
  Task     7 has      28337 integration points.
  Task     8 has      28298 integration points.
  Task     9 has      28353 integration points.
  Task    10 has      28333 integration points.
  Task    11 has      28344 integration points.
  Task    12 has      28338 integration points.
  Task    13 has      28305 integration points.
  Task    14 has      28291 integration points.
  Task    15 has      28252 integration points.
  Task    16 has      28238 integration points.
  Task    17 has      28297 integration points.
  Initializing partition tables, free-atom densities, potentials, etc. across the integration grid (initialize_grid_storage).
  | initialize_grid_storage: Actual outermost partition radius vs. multipole_radius_free
  | (-- VB: in principle, multipole_radius_free should be larger, hence this output)
  | Species        1: Confinement radius =              4.999999999999999 AA, multipole_radius_free =              5.054417573612229 AA.
  | Species        1: outer_partition_radius set to              5.054417573612229 AA .
  | Species        2: Confinement radius =              4.999999999999999 AA, multipole_radius_free =              5.048384829883283 AA.
  | Species        2: outer_partition_radius set to              5.048384829883283 AA .
  | The sparse table of interatomic distances needs       5700.47 kbyte instead of     21359.65 kbyte of memory.
  | Net number of integration points:   509568
  | of which are non-zero points    :   404556
  | Numerical average free-atom electrostatic potential    :     -5.69423302 eV
  Renormalizing the initial density to the exact electron count on the 3D integration grid.
  | Initial density: Formal number of electrons (from input files) :     320.0000000000
  | Integrated number of electrons on 3D grid     :     319.9995397009
  | Charge integration error                      :      -0.0004602991
  | Normalization factor for density and gradient :       1.0000014384
  Renormalizing the free-atom superposition density to the exact electron count on the 3D integration grid.
  | Formal number of electrons (from input files) :     320.0000000000
  | Integrated number of electrons on 3D grid     :     319.9995397009
  | Charge integration error                      :      -0.0004602991
  | Normalization factor for density and gradient :       1.0000014384
  Obtaining max. number of non-zero basis functions in each batch (get_n_compute_maxes).
  | Maximal number of non-zero basis functions:      432 in task     0
  | Maximal number of non-zero basis functions:      423 in task     1
  | Maximal number of non-zero basis functions:      423 in task     2
  | Maximal number of non-zero basis functions:      440 in task     3
  | Maximal number of non-zero basis functions:      440 in task     4
  | Maximal number of non-zero basis functions:      426 in task     5
  | Maximal number of non-zero basis functions:      442 in task     6
  | Maximal number of non-zero basis functions:      426 in task     7
  | Maximal number of non-zero basis functions:      408 in task     8
  | Maximal number of non-zero basis functions:      429 in task     9
  | Maximal number of non-zero basis functions:      427 in task    10
  | Maximal number of non-zero basis functions:      439 in task    11
  | Maximal number of non-zero basis functions:      424 in task    12
  | Maximal number of non-zero basis functions:      427 in task    13
  | Maximal number of non-zero basis functions:      423 in task    14
  | Maximal number of non-zero basis functions:      425 in task    15
  | Maximal number of non-zero basis functions:      425 in task    16
  | Maximal number of non-zero basis functions:      421 in task    17
  Integrating Hamiltonian matrix: batch-based integration.
  GPU acceleration will be used when integrating the Hamiltonian matrix.
  Reporting GPU memory usage by myid 0.  Note that it is likely not the only MPI task binding to its GPU!
  Allocating        1.493 MB on GPU for hamiltonian_shell
  Allocating        0.670 MB on GPU for wave
  Allocating        0.002 MB on GPU for partition
  Allocating        0.670 MB on GPU for h_times_psi
  Time summed over all CPUs for integration: real work       13.571 s, elapsed       14.706 s
  Deallocating memory used on GPU for Hamiltonian integration.
  Integrating overlap matrix.
  Time summed over all CPUs for integration: real work       11.938 s, elapsed       12.437 s
  Deallocating overlap matrix.

  Updating Kohn-Sham eigenvalues and eigenvectors using ELSI and the ELPA eigensolver.
  Singularity check in k-point 1 (analysis for other k-points may follow below):
  Overlap matrix is not singular
  | Lowest and highest eigenvalues :  0.2068E-02,  0.7603E+01
  Finished singularity check of overlap matrix
  | Time :     0.232 s
  Starting ELPA eigensolver (GPU)
  Finished Cholesky decomposition
  | Time :     0.010 s
  Finished transformation to standard eigenproblem
  | Time :     0.067 s
  Finished solving standard eigenproblem
  | Time :     0.352 s
  Finished back-transformation of eigenvectors
  | Time :     0.017 s

  Obtaining occupation numbers and electronic chemical potential using ELSI.
  | Note that, for insulating systems, the printed 'chemical potential' value is not uniquely defined.
  | It can be anywhere in the energy gap, as long as it correctly separates occupied and unoccupied states.
  | In systems with a gap, the physically relevant chemical potential is the VBM or HOMO.

  | Chemical potential (Fermi level):    -8.79528061 eV
  Writing Kohn-Sham eigenvalues.

  State    Occupation    Eigenvalue [Ha]    Eigenvalue [eV]
      1       2.00000         -18.910750         -514.58769
      2       2.00000         -18.906492         -514.47181
      3       2.00000         -18.889884         -514.01988
      4       2.00000         -18.884680         -513.87829
      5       2.00000         -18.883857         -513.85591
      6       2.00000         -18.883445         -513.84469
      7       2.00000         -18.879184         -513.72872
      8       2.00000         -18.878885         -513.72059
      9       2.00000         -18.878870         -513.72020
     10       2.00000         -18.878474         -513.70943
     11       2.00000         -18.878338         -513.70573
     12       2.00000         -18.877294         -513.67732
     13       2.00000         -18.874390         -513.59829
     14       2.00000         -18.872376         -513.54349
     15       2.00000         -18.872360         -513.54304
     16       2.00000         -18.871716         -513.52553
     17       2.00000         -18.871436         -513.51789
     18       2.00000         -18.870304         -513.48709
     19       2.00000         -18.868912         -513.44923
     20       2.00000         -18.864218         -513.32148
     21       2.00000         -18.862114         -513.26424
     22       2.00000         -18.860578         -513.22244
     23       2.00000         -18.860567         -513.22214
     24       2.00000         -18.860292         -513.21466
     25       2.00000         -18.857193         -513.13032
     26       2.00000         -18.856888         -513.12202
     27       2.00000         -18.856188         -513.10299
     28       2.00000         -18.850621         -512.95150
     29       2.00000         -18.849746         -512.92770
     30       2.00000         -18.847678         -512.87140
     31       2.00000         -18.839019         -512.63579
     32       2.00000         -18.836151         -512.55776
     33       2.00000          -1.165381          -31.71162
     34       2.00000          -1.157186          -31.48863
     35       2.00000          -1.135492          -30.89830
     36       2.00000          -1.131451          -30.78835
     37       2.00000          -1.129447          -30.73381
     38       2.00000          -1.124825          -30.60806
     39       2.00000          -1.122821          -30.55350
     40       2.00000          -1.121286          -30.51175
     41       2.00000          -1.117109          -30.39808
     42       2.00000          -1.114960          -30.33961
     43       2.00000          -1.114612          -30.33014
     44       2.00000          -1.111813          -30.25396
     45       2.00000          -1.105501          -30.08221
     46       2.00000          -1.102659          -30.00488
     47       2.00000          -1.102192          -29.99217
     48       2.00000          -1.098661          -29.89609
     49       2.00000          -1.098315          -29.88666
     50       2.00000          -1.093988          -29.76893
     51       2.00000          -1.093832          -29.76468
     52       2.00000          -1.091593          -29.70376
     53       2.00000          -1.088236          -29.61240
     54       2.00000          -1.084647          -29.51475
     55       2.00000          -1.082573          -29.45830
     56       2.00000          -1.080813          -29.41041
     57       2.00000          -1.072224          -29.17670
     58       2.00000          -1.070407          -29.12725
     59       2.00000          -1.069613          -29.10565
     60       2.00000          -1.059592          -28.83297
     61       2.00000          -1.058402          -28.80057
     62       2.00000          -1.057540          -28.77712
     63       2.00000          -1.039095          -28.27522
     64       2.00000          -1.037377          -28.22848
     65       2.00000          -0.710594          -19.33624
     66       2.00000          -0.701016          -19.07562
     67       2.00000          -0.686244          -18.67365
     68       2.00000          -0.673057          -18.31481
     69       2.00000          -0.671049          -18.26016
     70       2.00000          -0.668239          -18.18371
     71       2.00000          -0.666027          -18.12352
     72       2.00000          -0.660350          -17.96903
     73       2.00000          -0.656509          -17.86452
     74       2.00000          -0.654064          -17.79799
     75       2.00000          -0.653696          -17.78796
     76       2.00000          -0.650811          -17.70947
     77       2.00000          -0.649698          -17.67917
     78       2.00000          -0.646345          -17.58795
     79       2.00000          -0.643815          -17.51911
     80       2.00000          -0.642530          -17.48413
     81       2.00000          -0.635060          -17.28086
     82       2.00000          -0.633066          -17.22660
     83       2.00000          -0.631244          -17.17702
     84       2.00000          -0.630665          -17.16128
     85       2.00000          -0.628725          -17.10848
     86       2.00000          -0.626395          -17.04508
     87       2.00000          -0.623393          -16.96337
     88       2.00000          -0.621911          -16.92307
     89       2.00000          -0.614668          -16.72596
     90       2.00000          -0.614447          -16.71997
     91       2.00000          -0.612076          -16.65545
     92       2.00000          -0.610004          -16.59906
     93       2.00000          -0.601551          -16.36902
     94       2.00000          -0.600596          -16.34305
     95       2.00000          -0.598663          -16.29045
     96       2.00000          -0.575025          -15.64722
     97       2.00000          -0.574350          -15.62887
     98       2.00000          -0.573269          -15.59943
     99       2.00000          -0.563379          -15.33033
    100       2.00000          -0.560244          -15.24503
    101       2.00000          -0.558082          -15.18619
    102       2.00000          -0.557091          -15.15922
    103       2.00000          -0.555269          -15.10965
    104       2.00000          -0.551956          -15.01948
    105       2.00000          -0.548441          -14.92384
    106       2.00000          -0.546405          -14.86844
    107       2.00000          -0.545068          -14.83204
    108       2.00000          -0.543124          -14.77916
    109       2.00000          -0.539638          -14.68429
    110       2.00000          -0.538257          -14.64673
    111       2.00000          -0.534418          -14.54225
    112       2.00000          -0.529978          -14.42143
    113       2.00000          -0.523544          -14.24635
    114       2.00000          -0.522351          -14.21389
    115       2.00000          -0.519704          -14.14186
    116       2.00000          -0.519370          -14.13279
    117       2.00000          -0.514761          -14.00736
    118       2.00000          -0.512592          -13.94833
    119       2.00000          -0.509308          -13.85897
    120       2.00000          -0.509079          -13.85273
    121       2.00000          -0.505167          -13.74629
    122       2.00000          -0.504337          -13.72370
    123       2.00000          -0.503963          -13.71353
    124       2.00000          -0.495440          -13.48161
    125       2.00000          -0.492093          -13.39052
    126       2.00000          -0.487596          -13.26816
    127       2.00000          -0.486108          -13.22767
    128       2.00000          -0.483989          -13.17002
    129       2.00000          -0.482938          -13.14140
    130       2.00000          -0.479620          -13.05113
    131       2.00000          -0.471585          -12.83247
    132       2.00000          -0.470937          -12.81485
    133       2.00000          -0.469026          -12.76286
    134       2.00000          -0.468952          -12.76082
    135       2.00000          -0.467573          -12.72331
    136       2.00000          -0.467325          -12.71655
    137       2.00000          -0.464622          -12.64301
    138       2.00000          -0.463571          -12.61441
    139       2.00000          -0.462639          -12.58904
    140       2.00000          -0.460846          -12.54025
    141       2.00000          -0.459602          -12.50641
    142       2.00000          -0.459268          -12.49733
    143       2.00000          -0.456770          -12.42934
    144       2.00000          -0.455539          -12.39584
    145       2.00000          -0.454741          -12.37413
    146       2.00000          -0.453625          -12.34378
    147       2.00000          -0.452898          -12.32399
    148       2.00000          -0.452383          -12.30996
    149       2.00000          -0.449052          -12.21933
    150       2.00000          -0.448417          -12.20204
    151       2.00000          -0.448162          -12.19511
    152       2.00000          -0.445974          -12.13558
    153       2.00000          -0.443832          -12.07729
    154       2.00000          -0.442640          -12.04483
    155       2.00000          -0.439628          -11.96290
    156       2.00000          -0.436668          -11.88233
    157       2.00000          -0.435306          -11.84527
    158       2.00000          -0.434486          -11.82296
    159       2.00000          -0.429894          -11.69801
    160       2.00000          -0.429361          -11.68352
    161       0.00000          -0.177883           -4.84044
    162       0.00000          -0.125354           -3.41105
    163       0.00000          -0.115292           -3.13725
    164       0.00000          -0.110197           -2.99862
    165       0.00000          -0.104329           -2.83895
    166       0.00000          -0.101344           -2.75772
    167       0.00000          -0.095710           -2.60441
    168       0.00000          -0.081939           -2.22967
    169       0.00000          -0.068503           -1.86407
    170       0.00000          -0.063464           -1.72694
    171       0.00000          -0.059586           -1.62143
    172       0.00000          -0.053359           -1.45198
    173       0.00000          -0.052571           -1.43052
    174       0.00000          -0.050577           -1.37626
    175       0.00000          -0.048314           -1.31468
    176       0.00000          -0.039211           -1.06697
    177       0.00000          -0.037018           -1.00731
    178       0.00000          -0.033695           -0.91689
    179       0.00000          -0.024108           -0.65601
    180       0.00000          -0.020458           -0.55670
    181       0.00000          -0.014722           -0.40061
    182       0.00000          -0.007844           -0.21344
    183       0.00000          -0.004096           -0.11147
    184       0.00000           0.003214            0.08747
    185       0.00000           0.006184            0.16827
    186       0.00000           0.015306            0.41650
    187       0.00000           0.018722            0.50946
    188       0.00000           0.021642            0.58892
    189       0.00000           0.025390            0.69091
    190       0.00000           0.027641            0.75215
    191       0.00000           0.032556            0.88591
    192       0.00000           0.036249            0.98640
    193       0.00000           0.037228            1.01303
    194       0.00000           0.041734            1.13564
    195       0.00000           0.047267            1.28619
    196       0.00000           0.048722            1.32579
    197       0.00000           0.052042            1.41612
    198       0.00000           0.054639            1.48682
    199       0.00000           0.056534            1.53838
    200       0.00000           0.058507            1.59205
    201       0.00000           0.062391            1.69774
    202       0.00000           0.064617            1.75832
    203       0.00000           0.069874            1.90137
    204       0.00000           0.071518            1.94609
    205       0.00000           0.076411            2.07925
    206       0.00000           0.076979            2.09471
    207       0.00000           0.078408            2.13359
    208       0.00000           0.082794            2.25293
    209       0.00000           0.086339            2.34940
    210       0.00000           0.090627            2.46609
    211       0.00000           0.092257            2.51043
    212       0.00000           0.095039            2.58613
    213       0.00000           0.095720            2.60467
    214       0.00000           0.097890            2.66373
    215       0.00000           0.101310            2.75679
    216       0.00000           0.103848            2.82586
    217       0.00000           0.111582            3.03631
    218       0.00000           0.113237            3.08133
    219       0.00000           0.118177            3.21575
    220       0.00000           0.120706            3.28458
    221       0.00000           0.123515            3.36101
    222       0.00000           0.124551            3.38920
    223       0.00000           0.131911            3.58948
    224       0.00000           0.135519            3.68767
    225       0.00000           0.140657            3.82747
    226       0.00000           0.149686            4.07315
    227       0.00000           0.152018            4.13661
    228       0.00000           0.161948            4.40682
    229       0.00000           0.166045            4.51833
    230       0.00000           0.171080            4.65533
    231       0.00000           0.184594            5.02305
    232       0.00000           0.187266            5.09578
    233       0.00000           0.192602            5.24095
    234       0.00000           0.197862            5.38410
    235       0.00000           0.206090            5.60798
    236       0.00000           0.209856            5.71048
    237       0.00000           0.212541            5.78353
    238       0.00000           0.215525            5.86473
    239       0.00000           0.217466            5.91755
    240       0.00000           0.224676            6.11374
    241       0.00000           0.233132            6.34383
    242       0.00000           0.240382            6.54114
    243       0.00000           0.245726            6.68653
    244       0.00000           0.252300            6.86542
    245       0.00000           0.256394            6.97685
    246       0.00000           0.263193            7.16184
    247       0.00000           0.269331            7.32887
    248       0.00000           0.270264            7.35425
    249       0.00000           0.274207            7.46155
    250       0.00000           0.280218            7.62513
    251       0.00000           0.289308            7.87247
    252       0.00000           0.291140            7.92231
    253       0.00000           0.299083            8.13847
    254       0.00000           0.308154            8.38529
    255       0.00000           0.314396            8.55514
    256       0.00000           0.323134            8.79292
    257       0.00000           0.327729            8.91795
    258       0.00000           0.342553            9.32134
    259       0.00000           0.346364            9.42506
[...]
  |    H      0     4.527807 A      4.527807 A        1.268855E-16 a.u.
  |    H      0     4.527807 A      4.583499 A       -4.900954E-17 a.u.
  |    H      0     4.527807 A      4.583499 A        4.713786E-16 a.u.
  |    H      2     3.678162 A  2.180220E+05 A            0.556529 a.u.
  |    H      1     3.958095 A  1.721251E+08 A            0.841931 a.u.
  |    H      0     4.527807 A  3.866455E+16 A            0.581436 a.u.
  |    O      0     2.043000 A      2.043000 A       -1.436841E-16 a.u.
  |    O      3     3.498446 A      3.498446 A        3.043453E-17 a.u.
  |    O      3     3.498446 A      3.498446 A        1.541443E-16 a.u.
  |    O      0     3.905335 A      3.905335 A        2.173090E-16 a.u.
  |    O      0     3.905335 A      3.905335 A        7.213445E-17 a.u.
  |    O      0     4.101052 A      4.101052 A        2.361718E-16 a.u.
  |    O      1     4.101052 A      4.101052 A        3.235185E-17 a.u.
  |    O      0     4.359549 A      4.359549 A       -5.329475E-17 a.u.
  |    O      1     4.413171 A      4.413171 A        3.261883E-17 a.u.
  |    O      1     4.522403 A      4.522403 A        6.417997E-16 a.u.
  |    O      1     4.522403 A      4.522403 A        4.224783E-16 a.u.
  |    O      2     4.522403 A      4.522403 A       -4.387647E-16 a.u.
  |    O      0     4.522403 A      4.578029 A        2.602039E-16 a.u.
  |    O      0     4.578029 A      4.578029 A        1.226235E-16 a.u.
  |    O      1     4.578029 A      4.578029 A       -6.107316E-16 a.u.
  |    O      1     4.578029 A      4.578029 A       -2.224438E-16 a.u.
  |    O      2     4.578029 A      4.578029 A       -7.020279E-16 a.u.
  |    O      2     4.522403 A      4.578029 A        1.323470E-15 a.u.
  |    O      2     4.578029 A      4.578029 A        7.923696E-16 a.u.
  |    O      2     4.522403 A      4.578029 A       -9.951815E-16 a.u.
  |    O      0     4.578029 A      4.634338 A       -8.813582E-18 a.u.
  |    O      1     4.578029 A      4.634338 A       -3.325386E-17 a.u.
  |    O      1     4.634338 A      4.634338 A        9.588032E-16 a.u.
  |    O      2     4.578029 A      4.634338 A        1.064715E-17 a.u.
  |    O      2     4.578029 A      4.634338 A       -3.770343E-15 a.u.
  |    O      4     3.251020 A  1.511584E+03 A            1.513372 a.u.
  |    O      3     3.541477 A  1.434166E+04 A            4.293220 a.u.
  |    O      2     4.634338 A  5.584435E+05 A            9.352428 a.u.
  |    O      1     4.634338 A  2.821283E+08 A            2.261940 a.u.
  |    O      0     4.578029 A  4.264100E+16 A            0.641234 a.u.

  | Shrink_full_auxil_basis : there are       38  radial auxiliary wave functions
                            accepted and       5 rejected.
  | Shrink_full_auxil_basis : there are totally                4544 partial auxiliary wave functions.
 
  | Maximal number of product basis functions per thread :   256   256
 
  | Minimal total memory requirement for three-center overlap :      10.450 Gbs
  | Number of local auxiliary basis functions on task:      0   256
  | Number of local auxiliary basis functions on task:      1   256
  | Number of local auxiliary basis functions on task:      2   256
  | Number of local auxiliary basis functions on task:      3   256
  | Number of local auxiliary basis functions on task:      4   256
  | Number of local auxiliary basis functions on task:      5   256
  | Number of local auxiliary basis functions on task:      6   256
  | Number of local auxiliary basis functions on task:      7   256
  | Number of local auxiliary basis functions on task:      8   256
  | Number of local auxiliary basis functions on task:      9   256
  | Number of local auxiliary basis functions on task:     10   256
  | Number of local auxiliary basis functions on task:     11   256
  | Number of local auxiliary basis functions on task:     12   256
  | Number of local auxiliary basis functions on task:     13   256
  | Number of local auxiliary basis functions on task:     14   240
  | Number of local auxiliary basis functions on task:     15   240
  | Number of local auxiliary basis functions on task:     16   240
  | Number of local auxiliary basis functions on task:     17   240
  | 2D aux task distribution:      3 X      6
  | 2D block size (nb_aux_2d):     64
 
  Basis pair condensation :    295296  -->     223471
 
 --------------------------------------------
  Constructing auxiliary basis (full product) ...
 
  Product basis:
  | charge radius: extent of product basis function
  | field radius: extent of its Coulomb potential
  | Species   l  charge radius    field radius  multipol momen
  |    H      1     3.910002 A      3.910002 A       -2.487223E-16 a.u.
  |    H      1     3.958095 A      3.958095 A       -2.441841E-16 a.u.
  |    H      0     4.527807 A      4.527807 A        1.268855E-16 a.u.
  |    H      0     4.527807 A      4.583499 A       -4.900954E-17 a.u.
  |    H      0     4.527807 A      4.583499 A        4.713786E-16 a.u.
  |    H      2     3.678162 A  2.180220E+05 A            0.556529 a.u.
  |    H      1     3.958095 A  1.721251E+08 A            0.841931 a.u.
  |    H      0     4.527807 A  3.866455E+16 A            0.581436 a.u.
  |    O      0     2.043000 A      2.043000 A       -1.436841E-16 a.u.
  |    O      3     3.498446 A      3.498446 A        3.043453E-17 a.u.
  |    O      3     3.498446 A      3.498446 A        1.541443E-16 a.u.
  |    O      0     3.905335 A      3.905335 A        2.173090E-16 a.u.
  |    O      0     3.905335 A      3.905335 A        7.213445E-17 a.u.
  |    O      0     4.101052 A      4.101052 A        2.361718E-16 a.u.
  |    O      1     4.101052 A      4.101052 A        3.235185E-17 a.u.
  |    O      0     4.359549 A      4.359549 A       -5.329475E-17 a.u.
  |    O      1     4.413171 A      4.413171 A        3.261883E-17 a.u.
  |    O      1     4.522403 A      4.522403 A        6.417997E-16 a.u.
  |    O      1     4.522403 A      4.522403 A        4.224783E-16 a.u.
  |    O      2     4.522403 A      4.522403 A       -4.387647E-16 a.u.
  |    O      0     4.522403 A      4.578029 A        2.602039E-16 a.u.
  |    O      0     4.578029 A      4.578029 A        1.226235E-16 a.u.
  |    O      1     4.578029 A      4.578029 A       -6.107316E-16 a.u.
  |    O      1     4.578029 A      4.578029 A       -2.224438E-16 a.u.
  |    O      2     4.578029 A      4.578029 A       -7.020279E-16 a.u.
  |    O      2     4.522403 A      4.578029 A        1.323470E-15 a.u.
  |    O      2     4.578029 A      4.578029 A        7.923696E-16 a.u.
  |    O      2     4.522403 A      4.578029 A       -9.951815E-16 a.u.
  |    O      0     4.578029 A      4.634338 A       -8.813582E-18 a.u.
  |    O      1     4.578029 A      4.634338 A       -3.325386E-17 a.u.
  |    O      1     4.634338 A      4.634338 A        9.588032E-16 a.u.
  |    O      2     4.578029 A      4.634338 A        1.064715E-17 a.u.
  |    O      2     4.578029 A      4.634338 A       -3.770343E-15 a.u.
  |    O      4     3.251020 A  1.511584E+03 A            1.513372 a.u.
  |    O      3     3.541477 A  1.434166E+04 A            4.293220 a.u.
  |    O      2     4.634338 A  5.584435E+05 A            9.352428 a.u.
  |    O      1     4.634338 A  2.821283E+08 A            2.261940 a.u.
  |    O      0     4.578029 A  4.264100E+16 A            0.641234 a.u.

  | Shrink_full_auxil_basis : there are       38  radial auxiliary wave functions
                            accepted and       5 rejected.
  | Shrink_full_auxil_basis : there are totally                4544 partial auxiliary wave functions.
 
  | Maximal number of product basis functions per thread :   256   256
 
  | Minimal total memory requirement for three-center overlap :      10.450 Gbs
  | Number of local auxiliary basis functions on task:      0   256
  | Number of local auxiliary basis functions on task:      1   256
  | Number of local auxiliary basis functions on task:      2   256
  | Number of local auxiliary basis functions on task:      3   256
  | Number of local auxiliary basis functions on task:      4   256
  | Number of local auxiliary basis functions on task:      5   256
  | Number of local auxiliary basis functions on task:      6   256
  | Number of local auxiliary basis functions on task:      7   256
  | Number of local auxiliary basis functions on task:      8   256
  | Number of local auxiliary basis functions on task:      9   256
  | Number of local auxiliary basis functions on task:     10   256
  | Number of local auxiliary basis functions on task:     11   256
  | Number of local auxiliary basis functions on task:     12   256
  | Number of local auxiliary basis functions on task:     13   256
  | Number of local auxiliary basis functions on task:     14   240
  | Number of local auxiliary basis functions on task:     15   240
  | Number of local auxiliary basis functions on task:     16   240
  | Number of local auxiliary basis functions on task:     17   240
  | 2D aux task distribution:      3 X      6
  | 2D block size (nb_aux_2d):     64
 
  Basis pair condensation :    295296  -->     223471
dP_dE (Bohr^3) at every cycle:--->
 (380.361415790770,0.000000000000000E+000) (9.68994061641613,0.000000000000000E+000) (-3.34504454291479,0.000000000000000E+000)
 (9.68734295472344,0.000000000000000E+000) (369.928544248723,0.000000000000000E+000) (5.11354552729241,0.000000000000000E+000)
 (-3.34357539648513,0.000000000000000E+000) (5.11398678758364,0.000000000000000E+000) (354.326972858562,0.000000000000000E+000)
DFPT polarizability (Bohr^3)        xx        yy        zz        xy        xz        yz
  | Polarizability:--->                       380.361415791                  369.928544249                  354.326972859                    9.689940616                   -3.345044543                    5.113545527

DFPT for dielectric_constant:--->  # PARSE DFPT_dielectric_tensor
               1.773923956271061             0.019716187990040            -0.006806184852303
               0.019710902510149             1.752696121680368             0.010404565817557
              -0.006803195570083             0.010405463652869             1.720951498400910

                                               :  max(cpu_time)    wall_clock(cpu1)
  | Time for  dielectric calculation            :        0.000 s           0.000 s
===========================================================================

------------------------------------------------------------------------------
  Final output of selected total energy values:

  The following output summarizes some interesting total energy values
  at the end of a run (AFTER all relaxation, molecular dynamics, etc.).

  | Total energy of the DFT / Hartree-Fock s.c.f. calculation      :         -66111.536637461 eV
  | Final zero-broadening corrected energy (caution - metals only) :         -66111.536637461 eV
  | For reference only, the value of 1 Hartree used in FHI-aims is :             27.211384500 eV
  | For reference only, the overall average (free atom contribution
  | + realspace contribution) of the electrostatic potential after
  | s.c.f. convergence is                                          :             -5.277340550 eV

  Before relying on these values, please be sure to understand exactly which
  total energy value is referred to by a given number. Different objects may
  all carry the same name 'total energy'. Definitions:

  Total energy of the DFT / Hartree-Fock s.c.f. calculation:
  | Note that this energy does not include ANY quantities calculated after the
  | s.c.f. cycle, in particular not ANY RPA, MP2, etc. many-body perturbation terms.

  Final zero-broadening corrected energy:
  | For metallic systems only, a broadening of the occupation numbers at the Fermi
  | level can be extrapolated back to zero broadening by an electron-gas inspired
  | formula. For all systems that are not real metals, this value can be
  | meaningless and should be avoided.

------------------------------------------------------------------------------
  Methods described in the following list of references were used in this FHI-aims run.
  If you publish the results, please make sure to cite these reference if they apply.
  FHI-aims is an academic code, and for our developers (often, Ph.D. students
  and postdocs), scientific credit in the community is essential.
  Thank you for helping us!

  For any use of FHI-aims, please cite:

    Volker Blum, Ralf Gehrke, Felix Hanke, Paula Havu, Ville Havu,
    Xinguo Ren, Karsten Reuter, and Matthias Scheffler
    'Ab initio molecular simulations with numeric atom-centered orbitals'
    Computer Physics Communications 180, 2175-2196 (2009)
    http://doi.org/10.1016/j.cpc.2009.06.022


  For Hartree-Fock, hybrid functionals, or many-body perturbation theory used in your run, please cite:

    Xinguo Ren, Patrick Rinke, Volker Blum, Juergen Wieferink, Alex Tkatchenko,
    Andrea Sanfilippo, Karsten Reuter, and Matthias Scheffler,
    'Resolution-of-identity approach to Hartree-Fock, hybrid density functionals,
    RPA, MP2, and GW with numeric atom-centered orbital basis functions'
    New Journal of Physics 14, 053020 (2012).
    http://doi.org/10.1088/1367-2630/14/5/053020


  The provided symmetry information was generated with SPGlib:

    Atsushi Togo, Yusuke Seto, Dimitar Pashov
    SPGlib 1.7.3 obtained from http://spglib.sourceforge.net
    Copyright (C) 2008 Atsushi Togo


  The DFPT (perturbation by an electric field) part of the code was used.
  Here is the corresponding reference:

    Honghui Shang, Nathaniel Raimbault, Mariana Rossi,
    Christian Carbogno, Patrick Rinke and Matthias Scheffler,
    'All-Electron, Real-Space Perturbation Theory for Homogeneous
    Electric Fields: Theory, Implementation, and Application within dft'
    New Journal of Physics, 20(7):073040, 2018


  The ELSI infrastructure was used in your run to solve the Kohn-Sham electronic structure.
  Please check out http://elsi-interchange.org to learn more.
  If scalability is important for your project, please acknowledge ELSI by citing:

    V. W-z. Yu, F. Corsetti, A. Garcia, W. P. Huhn, M. Jacquelin, W. Jia,
    B. Lange, L. Lin, J. Lu, W. Mi, A. Seifitokaldani, A. Vazquez-Mayagoitia,
    C. Yang, H. Yang, and V. Blum
    'ELSI: A unified software interface for Kohn-Sham electronic structure solvers'
    Computer Physics Communications 222, 267-285 (2018).
    http://doi.org/10.1016/j.cpc.2017.09.007


  For the real-space grid partitioning and parallelization used in this calculation, please cite:

    Ville Havu, Volker Blum, Paula Havu, and Matthias Scheffler,
    'Efficient O(N) integration for all-electron electronic structure calculation'
    'using numerically tabulated basis functions'
    Journal of Computational Physics 228, 8367-8379 (2009).
    http://doi.org/10.1016/j.jcp.2009.08.008


  The high-level electronic structure method used in your calculation
  employed our efficient localized resolution of identity for the Coulomb operator.
  Some calculations, especially large-scale hybrid density functional theory,
  are only possible thanks to this development. For this feature, please cite:

    Arvid Ihrig, Juergen Wieferink, Igor Ying Zhang, Matti Ropo, Xinguo Ren,
    Patrick Rinke, Matthias Scheffler, and Volker Blum,
    'Accurate localized resolution of identity approach for linear-scaling
    hybrid density functionals and for many-body perturbation theory'
    New Journal of Physics 117, 093020 (2015).
    http://doi.org/10.1088/1367-2630/17/9/093020

  Of course, there are many other important community references, e.g., those cited in the
  above references. Our list is limited to references that describe implementations in the
  FHI-aims code. The reason is purely practical (length of this list) - please credit others as well.

------------------------------------------------------------
          Leaving FHI-aims.
          Date     :  20230221, Time     :  144222.862

          Computational steps:
          | Number of self-consistency cycles          :           45
          | Number of SCF (re)initializations          :            1
          | Number of coupled perturbed self-consistency cycles          :            0
          | Number of CPSCF (re)initializations          :            0

          Detailed time accounting                     :  max(cpu_time)    wall_clock(cpu1)
          | Total time                                  :      527.953 s         539.674 s
          | GPU initialization                          :        2.138 s           9.620 s
          | Preparation time                            :        0.068 s           0.063 s
          | Boundary condition initalization            :        1.314 s           1.315 s
          | Grid partitioning                           :        0.425 s           0.425 s
          | Preloading free-atom quantities on grid     :        2.604 s           2.605 s
          | Free-atom superposition energy              :        0.275 s           0.276 s
          | Total time for integrations                 :       17.569 s          17.769 s
          | Product basis setup: Total time             :        0.000 s           0.000 s
          | Product basis: | 2-center integrations     :(       0.000 s)  (       0.000 s)
          | Product basis: | LVL 3-center & coefficient:(       0.000 s)  (       0.000 s)
          | Total time for solution of K.-S. equations  :        2.672 s           5.750 s
          | Total time for density update               :       12.509 s          12.881 s
          | Total time for mixing & preconditioning     :        9.490 s           9.493 s
          | Total time for Hartree multipole update     :        0.104 s           0.106 s
          | Total time for Hartree multipole sum        :       38.963 s          38.980 s
          | Total time for total energy evaluation      :        0.005 s           0.005 s
          | Total time for DFPT                         :      439.104 s         439.261 s
          | Total time first_order_DM                   :        0.300 s           0.298 s
          | Total time first_order_density              :       96.078 s          96.095 s
          | Total time first_order_potential            :       52.635 s          52.653 s
          | Total time first_order_H                    :      189.064 s         189.122 s
          | Total time solving of Sternheimer equations :        0.177 s           0.177 s
          | Total time for dielectric constant          :        0.000 s           0.000 s
          | Total time momentum matrix                  :        0.000 s           0.000 s

          GPU acceleration has been used for charge density update.
          GPU acceleration has been used for real-space Hamiltonian integration.
          Due to GPU usage, wall_clock(cpu1) will give a more reliable estimate for timings.

          Partial memory accounting:
          | Residual value for overall tracked memory usage across tasks:     0.000000 MB (should be 0.000000 MB)
          | Peak values for overall tracked memory usage:
          |   Minimum:      123.981 MB (on task  0 after allocating DFPT_pulay_mixing::pulay_mix::alphas)
          |   Maximum:      123.981 MB (on task  0 after allocating DFPT_pulay_mixing::pulay_mix::alphas)
          |   Average:      123.981 MB
          | Largest tracked array allocation:
          |   Minimum:       44.236 MB (DFPT_pulay_mixing::initialize_pulay_mixing::X_in_diffs on task  0)
          |   Maximum:       44.236 MB (DFPT_pulay_mixing::initialize_pulay_mixing::X_in_diffs on task  0)
          |   Average:       44.236 MB
          Note:  These values currently only include a subset of arrays which are explicitly tracked.
          The "true" memory usage will be greater.

          Have a nice day.
------------------------------------------------------------
