------------------------------------------------------------
          Invoking FHI-aims ...

          When using FHI-aims, please cite the following reference:

            Volker Blum, Ralf Gehrke, Felix Hanke, Paula Havu,
            Ville Havu, Xinguo Ren, Karsten Reuter, and Matthias Scheffler,
            'Ab Initio Molecular Simulations with Numeric Atom-Centered Orbitals',
            Computer Physics Communications 180, 2175-2196 (2009)

          In addition, many other developments in FHI-aims are likely important for
          your particular application. A partial list of references is given at the end of
          this file. Thank you for giving credit to the authors of these developments.

          For any questions about FHI-aims, please visit our slack channel at

            https://fhi-aims.slack.com

          and our main development and support site at

            https://aims-git.rz-berlin.mpg.de .

          The latter site, in particular, has a wiki to collect information, as well
          as an issue tracker to log discussions, suggest improvements, and report issues
          or bugs. https://aims-git.rz-berlin.mpg.de is also the main development site
          of the project and all new and updated code versions can be obtained there.
          Please send an email to aims-coordinators@fhi-berlin.mpg.de and we will add
          you to these sites. They are for you and everyone is welcome there.

------------------------------------------------------------



  Date     :  20230221, Time     :  133549.237
  Time zero on CPU 1             :   0.397309000000000E+00  s.
  Internal wall clock time zero  :           446218549.237  s.

  FHI-aims created a unique identifier for this run for later identification
  aims_uuid : B82F74B5-4087-4307-AAE5-B8D9B25EFF5B

  Build configuration of the current instance of FHI-aims
  -------------------------------------------------------
  FHI-aims version      : 221103
  Commit number         : 42523251a
  CMake host system     : Linux-5.3.18-150300.59.68-default
  CMake version         : 3.17.0
  Fortran compiler      : /mpcdf/soft/SLE_15/packages/x86_64/intel_oneapi/2021.3/mpi/2021.3.0/bin/mpiifort (Intel) version 20.2.3.20210609
  Fortran compiler flags: -O3 -ip -fp-model precise
  C compiler            : /mpcdf/soft/SLE_15/packages/x86_64/intel/2021.3.0/bin/icc (Intel) version 20.2.3.20210609
  C compiler flags      : -O3 -ip -fp-model precise -std=gnu99
  CUDA compiler         : /mpcdf/soft/SLE_15/packages/x86_64/cuda/11.6.2/bin/nvcc
  CUDA compiler flags   : -O3 -DAdd_ -lcublas
  HIP compiler          :
  HIP compiler flags    :
  HIP GPU arch          :
  ELPA2 kernel          : AVX512
  Using MPI
  Using ScaLAPACK
  Using LibXC
  Using CUDA
  Using i-PI
  Using RLSY
  Linking against: /mpcdf/soft/SLE_15/packages/x86_64/cuda/11.6.2/lib64/libcublas.so
                   /mpcdf/soft/SLE_15/packages/x86_64/cuda/11.6.2/lib64/libcudart.so
                   /mpcdf/soft/SLE_15/packages/x86_64/intel_oneapi/2021.3/mkl/latest/lib/intel64/libmkl_intel_lp64.so
                   /mpcdf/soft/SLE_15/packages/x86_64/intel_oneapi/2021.3/mkl/latest/lib/intel64/libmkl_sequential.so
                   /mpcdf/soft/SLE_15/packages/x86_64/intel_oneapi/2021.3/mkl/latest/lib/intel64/libmkl_core.so
                   /mpcdf/soft/SLE_15/packages/x86_64/intel_oneapi/2021.3/mkl/latest/lib/intel64/libmkl_blacs_intelmpi_lp64.so
                   /mpcdf/soft/SLE_15/packages/x86_64/intel_oneapi/2021.3/mkl/latest/lib/intel64/libmkl_scalapack_lp64.so

  Using       18 parallel tasks.
  Task        0 on host adag040 reporting.
  Task        1 on host adag040 reporting.
  Task        2 on host adag040 reporting.
  Task        3 on host adag040 reporting.
  Task        4 on host adag040 reporting.
  Task        5 on host adag040 reporting.
  Task        6 on host adag040 reporting.
  Task        7 on host adag040 reporting.
  Task        8 on host adag040 reporting.
  Task        9 on host adag040 reporting.
  Task       10 on host adag040 reporting.
  Task       11 on host adag040 reporting.
  Task       12 on host adag040 reporting.
  Task       13 on host adag040 reporting.
  Task       14 on host adag040 reporting.
  Task       15 on host adag040 reporting.
  Task       16 on host adag040 reporting.
  Task       17 on host adag040 reporting.

  Obtaining array dimensions for all initial allocations:
  
  -----------------------------------------------------------------------
  Parsing control.in (first pass over file, find array dimensions only).
  The contents of control.in will be repeated verbatim below
  unless switched off by setting 'verbatim_writeout .false.' .
  in the first line of control.in .
  -----------------------------------------------------------------------
  
  #########################################################################################
  #
  #  Volker Blum, 2017 : Test run input file control.in for simple H2O
  #
  #########################################################################################
  #
  #  Physical model
  #
    xc                 pw-lda
    spin               none
    relativistic       none
    charge             0.
  
    use_gpu
  
    DFPT dielectric
    ri_density_restart write
    ri_rho1 write
  #  ri_density_restart read 0
  #  ri_rho1 read
    ri_full_output .true.
    sc_accuracy_rho    1d-6
  #  use_calculate_fock_matrix_old .false.
  #  wave_threshold 1e-8
    k_grid 1 1 1
  #  output cube eigenstate 160
  #  output cube eigenstate 161
    wave_threshold 1e-8
    default_prodbas_acc 1e-6
    default_max_l_prodbas 6
  #
  #  Relaxation
  #
  #  relax_geometry   bfgs 1.e-2
  #
  
  ################################################################################
  
  
  ################################################################################
  #
  #  FHI-aims code project
  #  VB, Fritz-Haber Institut, 2009
  #
  #  Suggested "light" defaults for H atom (to be pasted into control.in file)
  #  Be sure to double-check any results obtained with these settings for post-processing,
  #  e.g., with the "tight" defaults and larger basis sets.
  #
  ################################################################################
    species        H
  #     global species definitions
      nucleus             1
      mass                1.00794
  #
      l_hartree           4
  #
      cut_pot             3.5  1.5  1.0
      basis_dep_cutoff    1e-4
  #
      radial_base         24 5.0
      radial_multiplier   1
      angular_grids       specified
        division   0.2421   50
        division   0.3822  110
        division   0.4799  194
        division   0.5341  302
  #      division   0.5626  434
  #      division   0.5922  590
  #      division   0.6542  770
  #      division   0.6868 1202
  #      outer_grid  770
        outer_grid  302
  ################################################################################
  #
  #  Definition of "minimal" basis
  #
  ################################################################################
  #     valence basis states
      valence      1  s   1.
  #     ion occupancy
      ion_occ      1  s   0.5
  ################################################################################
  #
  #  Suggested additional basis functions. For production calculations,
  #  uncomment them one after another (the most important basis functions are
  #  listed first).
  #
  #  Basis constructed for dimers: 0.5 A, 0.7 A, 1.0 A, 1.5 A, 2.5 A
  #
  ################################################################################
  #  "First tier" - improvements: -1014.90 meV to -62.69 meV
       hydro 2 s 2.1
       hydro 2 p 3.5
  #  "Second tier" - improvements: -12.89 meV to -1.83 meV
  #     hydro 1 s 0.85
  #     hydro 2 p 3.7
  #     hydro 2 s 1.2
  #     hydro 3 d 7
  #  "Third tier" - improvements: -0.25 meV to -0.12 meV
  #     hydro 4 f 11.2
  #     hydro 3 p 4.8
  #     hydro 4 d 9
  #     hydro 3 s 3.2
  ################################################################################
  #
  #  FHI-aims code project
  #  VB, Fritz-Haber Institut, 2009
  #
  #  Suggested "light" defaults for O atom (to be pasted into control.in file)
  #  Be sure to double-check any results obtained with these settings for post-processing,
  #  e.g., with the "tight" defaults and larger basis sets.
  #
  ################################################################################
    species        O
  #     global species definitions
      nucleus             8
      mass                15.9994
  #
      l_hartree           4
  #
      cut_pot             3.5  1.5  1.0
      basis_dep_cutoff    1e-4
  #
      radial_base         36 5.0
      radial_multiplier   1
       angular_grids specified
        division   0.2659   50
        division   0.4451  110
        division   0.6052  194
        division   0.7543  302
  #      division   0.8014  434
  #      division   0.8507  590
  #      division   0.8762  770
  #      division   0.9023  974
  #      division   1.2339 1202
  #      outer_grid 974
        outer_grid 302
  ################################################################################
  #
  #  Definition of "minimal" basis
  #
  ################################################################################
  #     valence basis states
      valence      2  s   2.
      valence      2  p   4.
  #     ion occupancy
      ion_occ      2  s   1.
      ion_occ      2  p   3.
  ################################################################################
  #
  #  Suggested additional basis functions. For production calculations,
  #  uncomment them one after another (the most important basis functions are
  #  listed first).
  #
  #  Constructed for dimers: 1.0 A, 1.208 A, 1.5 A, 2.0 A, 3.0 A
  #
  ################################################################################
  #  "First tier" - improvements: -699.05 meV to -159.38 meV
       hydro 2 p 1.8
       hydro 3 d 7.6
       hydro 3 s 6.4
  #  "Second tier" - improvements: -49.91 meV to -5.39 meV
  #     hydro 4 f 11.6
  #     hydro 3 p 6.2
  #     hydro 3 d 5.6
  #     hydro 5 g 17.6
  #     hydro 1 s 0.75
  #  "Third tier" - improvements: -2.83 meV to -0.50 meV
  #     ionic 2 p auto
  #     hydro 4 f 10.8
  #     hydro 4 d 4.7
  #     hydro 2 s 6.8
  #  "Fourth tier" - improvements: -0.40 meV to -0.12 meV
  #     hydro 3 p 5
  #     hydro 3 s 3.3
  #     hydro 5 g 15.6
  #     hydro 4 f 17.6
  #     hydro 4 d 14
  # Further basis functions - -0.08 meV and below
  #     hydro 3 s 2.1
  #     hydro 4 d 11.6
  #     hydro 3 p 16
  #     hydro 2 s 17.2
  
  -----------------------------------------------------------------------
  Completed first pass over input file control.in .
  -----------------------------------------------------------------------
  
  
  -----------------------------------------------------------------------
  Parsing geometry.in (first pass over file, find array dimensions only).
  The contents of geometry.in will be repeated verbatim below
  unless switched off by setting 'verbatim_writeout .false.' .
  in the first line of geometry.in .
  -----------------------------------------------------------------------
  
  #=======================================================
  # FHI-aims file: /ada/ptmp/mpsd/alewis/bulk_water/qmdata/data/geoms/379.in
  # Created using the Atomic Simulation Environment (ASE)
  # Tue Feb 21 11:23:37 2023
  #=======================================================
  lattice_vector 9.6227000000000000 0.0000000000000000 0.0000000000000000
  lattice_vector 0.0000000000000000 9.6227000000000000 0.0000000000000000
  lattice_vector 0.0000000000000000 0.0000000000000000 9.6227000000000000
  atom 7.5361700000000003 20.4644000000000013 2.7500800000000001 O
  atom 7.7107200000000002 21.3773000000000017 2.4834700000000001 H
  atom 7.5400200000000002 20.3241000000000014 3.8627300000000000 H
  atom 6.6544800000000004 27.1661999999999999 -9.9660100000000007 O
  atom 6.2771900000000000 27.9963000000000015 -9.7801500000000008 H
  atom 5.9613100000000001 26.4853999999999985 -10.1341000000000001 H
  atom 14.7241999999999997 10.0587000000000000 -7.6098699999999999 O
  atom 15.6494000000000000 10.4065999999999992 -7.1993999999999998 H
  atom 13.9937000000000005 10.8033999999999999 -7.6138500000000002 H
  atom 14.0337999999999994 6.1755899999999997 -29.6840000000000011 O
  atom 13.6179000000000006 7.0477800000000004 -29.5189999999999984 H
  atom 14.0398999999999994 5.9458099999999998 -30.5934999999999988 H
  atom -22.5900999999999996 -6.5952099999999998 29.5238000000000014 O
  atom -23.2351999999999990 -6.1353400000000002 29.7456999999999994 H
  atom -22.1982999999999997 -6.0389799999999996 28.9479000000000006 H
  atom 4.5350500000000000 -0.6414069999999999 4.3786500000000004 O
  atom 4.7930500000000000 -0.3752880000000000 3.3775499999999998 H
  atom 3.8706299999999998 -0.1495300000000000 4.8097899999999996 H
  atom -9.0807900000000004 2.0418500000000002 5.7227899999999998 O
  atom -8.5321999999999996 1.3076900000000000 5.2193800000000001 H
  atom -10.0167000000000002 1.8712400000000000 5.4624499999999996 H
  atom -18.6702000000000012 -11.4647000000000006 -4.6711200000000002 O
  atom -18.4479000000000006 -11.7851999999999997 -3.7879000000000000 H
  atom -19.6522000000000006 -11.4434000000000005 -4.3643400000000003 H
  atom 5.0283400000000000 -7.8185200000000004 17.8191999999999986 O
  atom 5.2392700000000003 -7.5346599999999997 18.6377999999999986 H
  atom 5.5687699999999998 -7.5570100000000000 17.0345000000000013 H
  atom 8.5350500000000000 -1.0720000000000001 -2.3899900000000001 O
  atom 9.1439100000000000 -0.4397290000000000 -1.9625900000000001 H
  atom 8.2337100000000003 -1.2572399999999999 -1.4994700000000001 H
  atom 10.6452000000000009 -2.8347600000000002 7.5320999999999998 O
  atom 9.9370399999999997 -2.2831399999999999 7.7657499999999997 H
  atom 10.5780999999999992 -3.7827199999999999 7.5551599999999999 H
  atom 4.7859800000000003 -4.5337800000000001 -17.6113999999999997 O
  atom 4.2830599999999999 -4.0079700000000003 -17.1946000000000012 H
  atom 4.7142900000000001 -4.1927000000000003 -18.4659000000000013 H
  atom 4.2324299999999999 14.5408000000000008 6.4971800000000002 O
  atom 3.6693300000000000 14.5289999999999999 5.6261400000000004 H
  atom 5.0610999999999997 14.7518999999999991 5.9274800000000001 H
  atom -6.7567599999999999 -7.1629399999999999 11.3909000000000002 O
  atom -6.7800000000000002 -6.6303299999999998 10.5539000000000005 H
  atom -7.5037399999999996 -7.6453800000000003 11.5638000000000005 H
  atom -12.3226999999999993 -12.3388000000000009 -17.0574000000000012 O
  atom -12.9070999999999998 -13.2033000000000005 -16.9055000000000000 H
  atom -12.4492999999999991 -11.9489000000000001 -17.9277000000000015 H
  atom 7.9502800000000002 43.3577000000000012 18.1143999999999998 O
  atom 8.7861499999999992 42.8479999999999990 17.9782000000000011 H
  atom 7.9313399999999996 43.7152000000000029 18.9105999999999987 H
  atom -8.9454799999999999 -18.5644999999999989 8.0988799999999994 O
  atom -9.0578000000000003 -17.9880999999999993 8.8100100000000001 H
  atom -9.0235800000000008 -18.1162999999999990 7.0975400000000004 H
  atom 3.4327200000000002 8.7617600000000007 37.3907999999999987 O
  atom 4.0027400000000002 9.5535499999999995 37.6482000000000028 H
  atom 2.7765300000000002 9.0406600000000008 36.7012000000000000 H
  atom 2.8088799999999998 23.1468999999999987 4.1928900000000002 O
  atom 3.2833000000000001 23.0103000000000009 3.4935299999999998 H
  atom 2.2440500000000001 22.2713999999999999 4.2380699999999996 H
  atom -7.6561599999999999 -18.9729999999999990 -5.3845400000000003 O
  atom -8.2138799999999996 -19.7987000000000002 -5.2223699999999997 H
  atom -7.8618699999999997 -18.9026999999999994 -6.2971599999999999 H
  atom 10.1372999999999998 4.0067300000000001 -11.4720999999999993 O
  atom 10.3646999999999991 3.6411600000000002 -12.2960999999999991 H
  atom 11.0077999999999996 3.9334500000000001 -11.0513999999999992 H
  atom 14.7457999999999991 40.9080000000000013 14.7334999999999994 O
  atom 13.6969999999999992 41.2942999999999998 14.6011000000000006 H
  atom 15.3588000000000005 41.4795000000000016 14.2510999999999992 H
  atom 3.2963499999999999 16.5155999999999992 2.9967999999999999 O
  atom 2.4904400000000000 16.8841000000000001 2.5543300000000002 H
  atom 3.5826300000000000 17.2672999999999988 3.5071599999999998 H
  atom -12.5696999999999992 15.3549000000000007 6.0255999999999998 O
  atom -12.1628000000000007 16.1833999999999989 5.8530800000000003 H
  atom -12.0252999999999997 15.2477000000000000 6.6941100000000002 H
  atom 7.6455099999999998 4.0435499999999998 13.3041000000000000 O
  atom 8.5835100000000004 3.9408300000000001 13.2195999999999998 H
  atom 7.5678799999999997 4.4768600000000003 14.0716999999999999 H
  atom -0.5022489999999999 -3.5035699999999999 -8.4286300000000001 O
  atom -1.2565299999999999 -3.4142000000000001 -7.8422000000000001 H
  atom 0.2741920000000000 -3.7374900000000002 -7.7594799999999999 H
  atom -18.6555000000000000 5.2621399999999996 32.6450999999999993 O
  atom -17.7212999999999994 5.1971499999999997 32.7460999999999984 H
  atom -18.8869000000000007 6.1448700000000001 32.8153999999999968 H
  atom 3.0073799999999999 -5.9437300000000004 8.8066700000000004 O
  atom 3.4599000000000002 -4.9430699999999996 8.8355399999999999 H
  atom 3.7042600000000001 -6.5643200000000004 8.4544400000000000 H
  atom 10.3424999999999994 0.7358780000000000 -17.4470999999999989 O
  atom 9.3465199999999999 0.5758410000000000 -17.3237999999999985 H
  atom 10.4431999999999992 -0.0441070000000000 -17.9728999999999992 H
  atom 11.4764999999999997 -1.6262900000000000 0.9202090000000001 O
  atom 11.9261999999999997 -1.6282399999999999 0.1193600000000000 H
  atom 10.8672000000000004 -2.4651900000000002 0.7252250000000000 H
  atom 36.4784000000000006 -8.6072699999999998 34.2385000000000019 O
  atom 36.6552000000000007 -9.4579500000000003 34.6015999999999977 H
  atom 35.5658000000000030 -8.3891299999999998 34.5471000000000004 H
  atom 16.5622000000000007 8.0532199999999996 4.7466400000000002 O
  atom 15.5869999999999997 8.2618299999999998 4.8368399999999996 H
  atom 16.7176000000000009 7.8110400000000002 3.7492700000000001 H
  
  -----------------------------------------------------------------------
  Completed first pass over input file geometry.in .
  -----------------------------------------------------------------------
  

  Basic array size parameters:
  | Number of species                 :        2
  | Number of atoms                   :       96
  | Number of lattice vectors         :        3
  | Max. basis fn. angular momentum   :        2
  | Max. atomic/ionic basis occupied n:        2
  | Max. number of basis fn. types    :        2
  | Max. radial fns per species/type  :        3
  | Max. logarithmic grid size        :     1301
  | Max. radial integration grid size :       36
  | Max. angular integration grid size:      302
  | Max. angular grid division number :        8
  | Radial grid for Hartree potential :     1301
  | Number of spin channels           :        1

------------------------------------------------------------
          Reading file control.in.
------------------------------------------------------------
  XC: Using Perdew-Wang parametrisation of Ceperley-Alder LDA.
  Spin treatment: No spin polarisation.
  Non-relativistic treatment of kinetic energy.
  Charge =   0.000000E+00: Neutral system requested explicitly.
  DFPT calculation will begin after the DFT/HF calculation.
  Convergence accuracy of self-consistent charge density:  0.1000E-05
  Found k-point grid:         1         1         1
  Threshold value for wave function integration:  0.1000E-07
 
  Reading configuration options for species H                   .
  | Found nuclear charge :   1.0000
  | Found atomic mass :    1.00794000000000      amu
  | Found l_max for Hartree potential  :   4
  | Found cutoff potl. onset [A], width [A], scale factor :    3.50000    1.50000    1.00000
  | Threshold for basis-dependent cutoff potential is   0.100000E-03
  | Found data for basic radial integration grid :    24 points, outermost radius =    5.000 A
  | Found multiplier for basic radial grid :   1
  | Found angular grid specification: user-specified.
  | Specified grid contains     5 separate shells.
  | Check grid settings after all constraints further below.
  | Found free-atom valence shell :  1 s   1.000
  | No ionic wave fns used. Skipping ion_occ.
  | Found hydrogenic basis function :  2 s   2.100
  | Found hydrogenic basis function :  2 p   3.500
  Species H                   : Missing cutoff potential type.
  Defaulting to exp(1/x)/(1-x)^2 type cutoff potential.
  Species H : No 'logarithmic' tag. Using default grid for free atom:
  | Default logarithmic grid data [bohr] : 0.1000E-03 0.1000E+03 0.1012E+01
  Species H : On-site basis accuracy parameter (for Gram-Schmidt orthonormalisation) not specified.
  Using default value basis_acc =  0.1000000E-03.
  Species H                   : Using default innermost maximum threshold i_radial=  2 for radial functions.
  Species H                   : Default cutoff onset for free atom density etc. : 0.35000000E+01 AA.
  Species H                   : Basic radial grid will be enhanced according to radial_multiplier =   1, to contain    24 grid points.
 
  Reading configuration options for species O                   .
  | Found nuclear charge :   8.0000
  | Found atomic mass :    15.9994000000000      amu
  | Found l_max for Hartree potential  :   4
  | Found cutoff potl. onset [A], width [A], scale factor :    3.50000    1.50000    1.00000
  | Threshold for basis-dependent cutoff potential is   0.100000E-03
  | Found data for basic radial integration grid :    36 points, outermost radius =    5.000 A
  | Found multiplier for basic radial grid :   1
  | Found angular grid specification: user-specified.
  | Specified grid contains     5 separate shells.
  | Check grid settings after all constraints further below.
  | Found free-atom valence shell :  2 s   2.000
  | Found free-atom valence shell :  2 p   4.000
  | No ionic wave fns used. Skipping ion_occ.
  | No ionic wave fns used. Skipping ion_occ.
  | Found hydrogenic basis function :  2 p   1.800
  | Found hydrogenic basis function :  3 d   7.600
  | Found hydrogenic basis function :  3 s   6.400
  Species O                   : Missing cutoff potential type.
  Defaulting to exp(1/x)/(1-x)^2 type cutoff potential.
  Species O : No 'logarithmic' tag. Using default grid for free atom:
  | Default logarithmic grid data [bohr] : 0.1000E-03 0.1000E+03 0.1012E+01
  Species O : On-site basis accuracy parameter (for Gram-Schmidt orthonormalisation) not specified.
  Using default value basis_acc =  0.1000000E-03.
  Species O                   : Using default innermost maximum threshold i_radial=  2 for radial functions.
  Species O                   : Default cutoff onset for free atom density etc. : 0.35000000E+01 AA.
  Species O                   : Basic radial grid will be enhanced according to radial_multiplier =   1, to contain    36 grid points.
 
  Finished reading input file 'control.in'.
 
------------------------------------------------------------


------------------------------------------------------------
          Reading geometry description geometry.in.
------------------------------------------------------------
  | The smallest distance between any two atoms is         0.82272355 AA.
  | The first atom of this pair is atom number                     13 .
  | The second atom of this pair is atom number                    14 .
  | Wigner-Seitz cell of the first atom image           0     0     0 .
  | (The Wigner-Seitz cell of the second atom is 0 0 0  by definition.)

  Symmetry information by spglib:
  | Precision set to  0.1E-04
  | Number of Operations  : 1
  | Space group           : 1
  | International         : P1
  | Schoenflies           : C1^1
  Input structure read successfully.
  The structure contains       96 atoms,  and a total of        320.000 electrons.

  Input geometry:
  | Unit cell:
  |        9.62270000        0.00000000        0.00000000
  |        0.00000000        9.62270000        0.00000000
  |        0.00000000        0.00000000        9.62270000
  | Atomic structure:
  |       Atom                x [A]            y [A]            z [A]
  |    1: Species O             7.53617000       20.46440000        2.75008000
  |    2: Species H             7.71072000       21.37730000        2.48347000
  |    3: Species H             7.54002000       20.32410000        3.86273000
  |    4: Species O             6.65448000       27.16620000       -9.96601000
  |    5: Species H             6.27719000       27.99630000       -9.78015000
  |    6: Species H             5.96131000       26.48540000      -10.13410000
  |    7: Species O            14.72420000       10.05870000       -7.60987000
  |    8: Species H            15.64940000       10.40660000       -7.19940000
  |    9: Species H            13.99370000       10.80340000       -7.61385000
  |   10: Species O            14.03380000        6.17559000      -29.68400000
  |   11: Species H            13.61790000        7.04778000      -29.51900000
  |   12: Species H            14.03990000        5.94581000      -30.59350000
  |   13: Species O           -22.59010000       -6.59521000       29.52380000
  |   14: Species H           -23.23520000       -6.13534000       29.74570000
  |   15: Species H           -22.19830000       -6.03898000       28.94790000
  |   16: Species O             4.53505000       -0.64140700        4.37865000
  |   17: Species H             4.79305000       -0.37528800        3.37755000
  |   18: Species H             3.87063000       -0.14953000        4.80979000
  |   19: Species O            -9.08079000        2.04185000        5.72279000
  |   20: Species H            -8.53220000        1.30769000        5.21938000
  |   21: Species H           -10.01670000        1.87124000        5.46245000
  |   22: Species O           -18.67020000      -11.46470000       -4.67112000
  |   23: Species H           -18.44790000      -11.78520000       -3.78790000
  |   24: Species H           -19.65220000      -11.44340000       -4.36434000
  |   25: Species O             5.02834000       -7.81852000       17.81920000
  |   26: Species H             5.23927000       -7.53466000       18.63780000
  |   27: Species H             5.56877000       -7.55701000       17.03450000
  |   28: Species O             8.53505000       -1.07200000       -2.38999000
  |   29: Species H             9.14391000       -0.43972900       -1.96259000
  |   30: Species H             8.23371000       -1.25724000       -1.49947000
  |   31: Species O            10.64520000       -2.83476000        7.53210000
  |   32: Species H             9.93704000       -2.28314000        7.76575000
  |   33: Species H            10.57810000       -3.78272000        7.55516000
  |   34: Species O             4.78598000       -4.53378000      -17.61140000
  |   35: Species H             4.28306000       -4.00797000      -17.19460000
  |   36: Species H             4.71429000       -4.19270000      -18.46590000
  |   37: Species O             4.23243000       14.54080000        6.49718000
  |   38: Species H             3.66933000       14.52900000        5.62614000
  |   39: Species H             5.06110000       14.75190000        5.92748000
  |   40: Species O            -6.75676000       -7.16294000       11.39090000
  |   41: Species H            -6.78000000       -6.63033000       10.55390000
  |   42: Species H            -7.50374000       -7.64538000       11.56380000
  |   43: Species O           -12.32270000      -12.33880000      -17.05740000
  |   44: Species H           -12.90710000      -13.20330000      -16.90550000
  |   45: Species H           -12.44930000      -11.94890000      -17.92770000
  |   46: Species O             7.95028000       43.35770000       18.11440000
  |   47: Species H             8.78615000       42.84800000       17.97820000
  |   48: Species H             7.93134000       43.71520000       18.91060000
  |   49: Species O            -8.94548000      -18.56450000        8.09888000
  |   50: Species H            -9.05780000      -17.98810000        8.81001000
  |   51: Species H            -9.02358000      -18.11630000        7.09754000
  |   52: Species O             3.43272000        8.76176000       37.39080000
  |   53: Species H             4.00274000        9.55355000       37.64820000
  |   54: Species H             2.77653000        9.04066000       36.70120000
  |   55: Species O             2.80888000       23.14690000        4.19289000
  |   56: Species H             3.28330000       23.01030000        3.49353000
  |   57: Species H             2.24405000       22.27140000        4.23807000
  |   58: Species O            -7.65616000      -18.97300000       -5.38454000
  |   59: Species H            -8.21388000      -19.79870000       -5.22237000
  |   60: Species H            -7.86187000      -18.90270000       -6.29716000
  |   61: Species O            10.13730000        4.00673000      -11.47210000
  |   62: Species H            10.36470000        3.64116000      -12.29610000
  |   63: Species H            11.00780000        3.93345000      -11.05140000
  |   64: Species O            14.74580000       40.90800000       14.73350000
  |   65: Species H            13.69700000       41.29430000       14.60110000
  |   66: Species H            15.35880000       41.47950000       14.25110000
  |   67: Species O             3.29635000       16.51560000        2.99680000
  |   68: Species H             2.49044000       16.88410000        2.55433000
  |   69: Species H             3.58263000       17.26730000        3.50716000
  |   70: Species O           -12.56970000       15.35490000        6.02560000
  |   71: Species H           -12.16280000       16.18340000        5.85308000
  |   72: Species H           -12.02530000       15.24770000        6.69411000
  |   73: Species O             7.64551000        4.04355000       13.30410000
  |   74: Species H             8.58351000        3.94083000       13.21960000
  |   75: Species H             7.56788000        4.47686000       14.07170000
  |   76: Species O            -0.50224900       -3.50357000       -8.42863000
  |   77: Species H            -1.25653000       -3.41420000       -7.84220000
  |   78: Species H             0.27419200       -3.73749000       -7.75948000
  |   79: Species O           -18.65550000        5.26214000       32.64510000
  |   80: Species H           -17.72130000        5.19715000       32.74610000
  |   81: Species H           -18.88690000        6.14487000       32.81540000
  |   82: Species O             3.00738000       -5.94373000        8.80667000
  |   83: Species H             3.45990000       -4.94307000        8.83554000
  |   84: Species H             3.70426000       -6.56432000        8.45444000
  |   85: Species O            10.34250000        0.73587800      -17.44710000
  |   86: Species H             9.34652000        0.57584100      -17.32380000
  |   87: Species H            10.44320000       -0.04410700      -17.97290000
  |   88: Species O            11.47650000       -1.62629000        0.92020900
  |   89: Species H            11.92620000       -1.62824000        0.11936000
  |   90: Species H            10.86720000       -2.46519000        0.72522500
  |   91: Species O            36.47840000       -8.60727000       34.23850000
  |   92: Species H            36.65520000       -9.45795000       34.60160000
  |   93: Species H            35.56580000       -8.38913000       34.54710000
  |   94: Species O            16.56220000        8.05322000        4.74664000
  |   95: Species H            15.58700000        8.26183000        4.83684000
  |   96: Species H            16.71760000        7.81104000        3.74927000

  Lattice parameters for 3D lattice (in Angstroms) :     9.622700    9.622700    9.622700
  Angle(s) between unit vectors (in degrees)       :    90.000000   90.000000   90.000000


  Quantities derived from the lattice vectors (in Angstrom^-1):
  | Reciprocal lattice vector 1:  0.652955  0.000000  0.000000
  | Reciprocal lattice vector 2:  0.000000  0.652955  0.000000
  | Reciprocal lattice vector 3:  0.000000  0.000000  0.652955
  | Unit cell volume                               :   0.891027E+03  Angstrom^3

  Fractional coordinates:
                         L1                L2                L3
       atom_frac         0.78316585        2.12667962        0.28579089  O
       atom_frac         0.80130525        2.22154905        0.25808453  H
       atom_frac         0.78356594        2.11209951        0.40141852  H
       atom_frac         0.69153980        2.82313696       -1.03567710  O
       atom_frac         0.65233147        2.90940173       -1.01636235  H
       atom_frac         0.61950492        2.75238758       -1.05314517  H
       atom_frac         1.53015266        1.04530953       -0.79082482  O
       atom_frac         1.62630031        1.08146362       -0.74816839  H
       atom_frac         1.45423842        1.12269945       -0.79123843  H
       atom_frac         1.45840564        0.64177310       -3.08478909  O
       atom_frac         1.41518493        0.73241190       -3.06764214  H
       atom_frac         1.45903956        0.61789415       -3.17930518  H
       atom_frac        -2.34758436       -0.68538040        3.06814096  O
       atom_frac        -2.41462375       -0.63759028        3.09120101  H
       atom_frac        -2.30686813       -0.62757646        3.00829289  H
       atom_frac         0.47128665       -0.06665562        0.45503341  O
       atom_frac         0.49809825       -0.03900028        0.35099816  H
       atom_frac         0.40223950       -0.01553930        0.49983788  H
       atom_frac        -0.94368421        0.21219097        0.59471770  O
       atom_frac        -0.88667422        0.13589637        0.54240286  H
       atom_frac        -1.04094485        0.19446101        0.56766292  H
       atom_frac        -1.94022468       -1.19142237       -0.48542717  O
       atom_frac        -1.91712305       -1.22472903       -0.39364212  H
       atom_frac        -2.04227504       -1.18920885       -0.45354630  H
       atom_frac         0.52254980       -0.81250792        1.85178796  O
       atom_frac         0.54446985       -0.78300893        1.93685764  H
       atom_frac         0.57871180       -0.78533156        1.77024120  H
       atom_frac         0.88697039       -0.11140324       -0.24837000  O
       atom_frac         0.95024369       -0.04569705       -0.20395419  H
       atom_frac         0.85565486       -0.13065356       -0.15582633  H
       atom_frac         1.10625916       -0.29459092        0.78274289  O
       atom_frac         1.03266651       -0.23726605        0.80702402  H
       atom_frac         1.09928606       -0.39310381        0.78513931  H
       atom_frac         0.49736353       -0.47115467       -1.83019319  O
       atom_frac         0.44509961       -0.41651200       -1.78687894  H
       atom_frac         0.48991343       -0.43570931       -1.91899363  H
       atom_frac         0.43983809        1.51109356        0.67519303  O
       atom_frac         0.38132021        1.50986729        0.58467374  H
       atom_frac         0.52595425        1.53303127        0.61598928  H
       atom_frac        -0.70216883       -0.74437944        1.18375300  O
       atom_frac        -0.70458395       -0.68903011        1.09677118  H
       atom_frac        -0.77979569       -0.79451505        1.20172093  H
       atom_frac        -1.28058653       -1.28225966       -1.77262099  O
       atom_frac        -1.34131793       -1.37209931       -1.75683540  H
       atom_frac        -1.29374292       -1.24174088       -1.86306338  H
       atom_frac         0.82620055        4.50577281        1.88246542  O
       atom_frac         0.91306494        4.45280431        1.86831139  H
       atom_frac         0.82423228        4.54292454        1.96520727  H
       atom_frac        -0.92962266       -1.92924023        0.84164320  O
       atom_frac        -0.94129506       -1.86934021        0.91554449  H
       atom_frac        -0.93773889       -1.88266287        0.73758301  H
       atom_frac         0.35673148        0.91053031        3.88568697  O
       atom_frac         0.41596849        0.99281387        3.91243622  H
       atom_frac         0.28853960        0.93951386        3.81402309  H
       atom_frac         0.29190144        2.40544754        0.43572906  O
       atom_frac         0.34120361        2.39125194        0.36305091  H
       atom_frac         0.23320378        2.31446476        0.44042421  H
       atom_frac        -0.79563532       -1.97169194       -0.55956644  O
       atom_frac        -0.85359411       -2.05749945       -0.54271358  H
       atom_frac        -0.81701290       -1.96438629       -0.65440677  H
       atom_frac         1.05347771        0.41638314       -1.19219138  O
       atom_frac         1.07710934        0.37839276       -1.27782223  H
       atom_frac         1.14394089        0.40876781       -1.14847184  H
       atom_frac         1.53239735        4.25119769        1.53111912  O
       atom_frac         1.42340507        4.29134235        1.51735999  H
       atom_frac         1.59610089        4.31058850        1.48098766  H
       atom_frac         0.34255978        1.71631663        0.31143026  O
       atom_frac         0.25880886        1.75461149        0.26544837  H
       atom_frac         0.37231027        1.79443399        0.36446735  H
       atom_frac        -1.30625500        1.59569559        0.62618600  O
       atom_frac        -1.26396957        1.68179409        0.60825756  H
       atom_frac        -1.24968044        1.58455527        0.69565818  H
       atom_frac         0.79452856        0.42020950        1.38257454  O
       atom_frac         0.89200640        0.40953475        1.37379322  H
       atom_frac         0.78646118        0.46523949        1.46234425  H
       atom_frac        -0.05219419       -0.36409428       -0.87591113  O
       atom_frac        -0.13057977       -0.35480686       -0.81496877  H
       atom_frac         0.02849429       -0.38840346       -0.80637243  H
       atom_frac        -1.93869704        0.54684652        3.39250938  O
       atom_frac        -1.84161410        0.54009270        3.40300539  H
       atom_frac        -1.96274434        0.63858065        3.41020711  H
       atom_frac         0.31252975       -0.61767799        0.91519740  O
       atom_frac         0.35955605       -0.51368847        0.91819760  H
       atom_frac         0.38495017       -0.68217028        0.87859333  H
       atom_frac         1.07480229        0.07647313       -1.81311898  O
       atom_frac         0.97129912        0.05984194       -1.80030553  H
       atom_frac         1.08526713       -0.00458364       -1.86776061  H
       atom_frac         1.19264863       -0.16900558        0.09562898  O
       atom_frac         1.23938188       -0.16920823        0.01240400  H
       atom_frac         1.12932961       -0.25618485        0.07536606  H
       atom_frac         3.79086951       -0.89447556        3.55809700  O
       atom_frac         3.80924273       -0.98287903        3.59583069  H
       atom_frac         3.69603126       -0.87180625        3.59016700  H
       atom_frac         1.72115934        0.83689817        0.49327528  O
       atom_frac         1.61981564        0.85857711        0.50264894  H
       atom_frac         1.73730866        0.81173060        0.38962765  H

 
  Finished reading input file 'geometry.in'.
 

 
  Consistency checks for stacksize environment parameter are next.
 
  | Maximum stacksize for task 0: unlimited
  | Maximum stacksize for task 1: unlimited
  | Maximum stacksize for task 2: unlimited
  | Maximum stacksize for task 3: unlimited
  | Maximum stacksize for task 4: unlimited
  | Maximum stacksize for task 5: unlimited
  | Maximum stacksize for task 6: unlimited
  | Maximum stacksize for task 7: unlimited
  | Maximum stacksize for task 8: unlimited
  | Maximum stacksize for task 9: unlimited
  | Maximum stacksize for task 10: unlimited
  | Maximum stacksize for task 11: unlimited
  | Maximum stacksize for task 12: unlimited
  | Maximum stacksize for task 13: unlimited
  | Maximum stacksize for task 14: unlimited
  | Maximum stacksize for task 15: unlimited
  | Maximum stacksize for task 16: unlimited
  | Maximum stacksize for task 17: unlimited
  | Current stacksize for task 0: unlimited
  | Current stacksize for task 1: unlimited
  | Current stacksize for task 2: unlimited
  | Current stacksize for task 3: unlimited
  | Current stacksize for task 4: unlimited
  | Current stacksize for task 5: unlimited
  | Current stacksize for task 6: unlimited
  | Current stacksize for task 7: unlimited
  | Current stacksize for task 8: unlimited
  | Current stacksize for task 9: unlimited
  | Current stacksize for task 10: unlimited
  | Current stacksize for task 11: unlimited
  | Current stacksize for task 12: unlimited
  | Current stacksize for task 13: unlimited
  | Current stacksize for task 14: unlimited
  | Current stacksize for task 15: unlimited
  | Current stacksize for task 16: unlimited
  | Current stacksize for task 17: unlimited
 
  Consistency checks for the contents of control.in are next.
 
  MPI_IN_PLACE appears to work with this MPI implementation.
  | Keeping use_mpi_in_place .true. (see manual).
  Explicit treatment of the Coulomb operator is needed, but the RI method is not specified.
  Coulomb operator: Defaulting to 'LVL fast' resolution of identity - RI_type = LVL_fast
  Species H: Using default value for prodbas_acc =   1.000000E-06.
  Species H: Using default value max_l_prodbas =     6.
  Species O: Using default value for prodbas_acc =   1.000000E-06.
  Species O: Using default value max_l_prodbas =     6.
  Target number of points in a grid batch is not set.  Since GPU acceleration is enabled, defaulting to  200
  Method for grid partitioning is not set. Defaulting to parallel hash+maxmin partitioning.
  Batch size limit is not set. Defaulting to    200
  By default, will store active basis functions for each batch.
  If in need of memory, prune_basis_once .false. can be used to disable this option.
  communication_type for Hartree potential was not specified.
  Defaulting to calc_hartree .
  Defaulting to Pulay charge density mixer.
  Pulay mixer: Number of relevant iterations not set.
  Defaulting to    8 iterations.
  Pulay mixer: Number of initial linear mixing iterations not set.
  Defaulting to    0 iterations.
  Work space size for distributed Hartree potential not set.
  Defaulting to   0.200000E+03 MB.
  Mixing parameter for charge density mixing has not been set.
  Using default: charge_mix_param =     0.0500.
  The mixing parameter will be adjusted in iteration number     2 of the first full s.c.f. cycle only.
  Algorithm-dependent basis array size parameters:
  | n_max_pulay                         :        8
  Maximum number of self-consistency iterations not provided.
  Presetting  1000 iterations.
  Presetting      1001 iterations before the initial mixing cycle
  is restarted anyway using the sc_init_iter criterion / keyword.
  Presetting a factor      1.000 between actual scf density residual
  and density convergence criterion sc_accuracy_rho below which sc_init_iter
  takes no effect.
  Calculation of forces was not defined in control.in. No forces will be calculated.
  Geometry relaxation not requested: no relaxation will be performed.
  No accuracy limit for integral partition fn. given. Defaulting to  0.1000E-14.
  No occupation type (smearing scheme) given. Defaulting to Gaussian broadening, width =  0.1000E-01 eV.
  The width will be adjusted in iteration number     2 of the first full s.c.f. cycle only.
  S.C.F. convergence parameters will be adjusted in iteration number     2 of the first full s.c.f. cycle only.
  No accuracy for occupation numbers given. Defaulting to  0.1000E-12.
  No threshold value for occupation numbers given. Defaulting to  0.0000E+00.
  No accuracy for fermi level given. Defaulting to  0.1000E-19.
  Maximum # of iterations to find E_F not set. Defaulting to  200.
  Preferred method for the eigenvalue solver ('KS_method') not specified in 'control.in'.
  Calling BLACS routine to test compilation state
  Since ScaLAPACK support is enabled, defaulting to ELPA (via ELSI).
  Will not use alltoall communication since running on < 1024 CPUs.
  Threshold for basis singularities not set.
  Default threshold for basis singularities:  0.1000E-04
  partition_type (choice of integration weights) for integrals was not specified.
  | Using a version of the partition function of Stratmann and coworkers ('stratmann_sparse').
  | At each grid point, the set of atoms used to build the partition table is smoothly restricted to
  | only those atoms whose free-atom density would be non-zero at that grid point.
  Partitioning for Hartree potential was not defined. Using partition_type for integrals.
  | Adjusted default value of keyword multip_moments_threshold to:       0.10000000E-11
  | This value may affect high angular momentum components of the Hartree potential in periodic systems.
  Angular momentum expansion for Kerker preconditioner not set explicitly.
  | Using default value of   0
  No explicit requirement for turning off preconditioner.
  | By default, it will be turned off when the charge convergence reaches
  | sc_accuracy_rho  =   0.100000E-05
  No special mixing parameter while Kerker preconditioner is on.
  Using default: charge_mix_param =     0.0500.
  Threshold for auxiliary basis singularities not set.
  Default threshold for auxiliary basis singularities:  0.1000E-04
  No q(lm)/r^(l+1) cutoff set for long-range Hartree potential.
  | Using default value of  0.100000E-09 .
  | Verify using the multipole_threshold keyword.
  Defaulting to new monopole extrapolation.
  Density update method: automatic selection selected.
  Using density matrix based charge density update.
  Using density matrix based charge density update.
  Using packed matrix style: index .
  Defaulting to use time-reversal symmetry for k-point grid.
  Charge integration errors on the 3D integration grid will be compensated
  by explicit normalization and distribution of residual charges.
  Use the "compensate_multipole_errors" flag to change this behaviour.
  Default to 1D ("use_logsbt") integrations for auxiliary 2-center integrals.
  Default onset of logarithmic r-grid for SBT is -38.000000000000
  Default onset of logarithmic k-grid for SBT is -25.000000000000
  Default range of logarithmic r- and k-grid for SBT is  45.000000000000
  Default number of logarithmic r- and k-grid for SBT is   4096
  Default of use_2d_corr is to use the efficient 2D distribution where possible
 
  Consistency checks for the contents of geometry.in are next.
 

  Range separation radius for Ewald summation (hartree_convergence_parameter):      2.88587711 bohr.
  Number of empty states per atom not set in control.in .
  | Since you are using a method that relies on the unoccupied spectrum
  | (MP2,GW,RPA et al.), will use the full Hamiltonian size (see below)
  | as the max. possible number of states (occupied plus empty).

  Structure-dependent array size parameters: 
  | Maximum number of distinct radial functions  :        9
  | Maximum number of basis functions            :      768
  | Number of Kohn-Sham states (occupied + empty):      768
------------------------------------------------------------

  Performing system and environment tests:
  | Environment variable OMP_NUM_THREADS correctly set to 1.
  | Checking for ScaLAPACK...
  | Testing pdtran()...
  | All pdtran() tests passed.
CUDA runtime version: 11060
CUDA driver version: 11060
  Initializing GPUs...

  Number of GPUs available to MPI task         0 :   1
  Number of GPUs available to MPI task         1 :   1
  Number of GPUs available to MPI task         2 :   1
  Number of GPUs available to MPI task         3 :   1
  Number of GPUs available to MPI task         4 :   1
  Number of GPUs available to MPI task         5 :   1
  Number of GPUs available to MPI task         6 :   1
  Number of GPUs available to MPI task         7 :   1
  Number of GPUs available to MPI task         8 :   1
  Number of GPUs available to MPI task         9 :   1
  Number of GPUs available to MPI task        10 :   1
  Number of GPUs available to MPI task        11 :   1
  Number of GPUs available to MPI task        12 :   1
  Number of GPUs available to MPI task        13 :   1
  Number of GPUs available to MPI task        14 :   1
  Number of GPUs available to MPI task        15 :   1
  Number of GPUs available to MPI task        16 :   1
  Number of GPUs available to MPI task        17 :   1

  | MPI task         0, GPU activated = T, Device Name = NVIDIA A100-SXM4-80GB
  | MPI task         1, GPU activated = T, Device Name = NVIDIA A100-SXM4-80GB
  | MPI task         2, GPU activated = T, Device Name = NVIDIA A100-SXM4-80GB
  | MPI task         3, GPU activated = T, Device Name = NVIDIA A100-SXM4-80GB
  | MPI task         4, GPU activated = T, Device Name = NVIDIA A100-SXM4-80GB
  | MPI task         5, GPU activated = T, Device Name = NVIDIA A100-SXM4-80GB
  | MPI task         6, GPU activated = T, Device Name = NVIDIA A100-SXM4-80GB
  | MPI task         7, GPU activated = T, Device Name = NVIDIA A100-SXM4-80GB
  | MPI task         8, GPU activated = T, Device Name = NVIDIA A100-SXM4-80GB
  | MPI task         9, GPU activated = T, Device Name = NVIDIA A100-SXM4-80GB
  | MPI task        10, GPU activated = T, Device Name = NVIDIA A100-SXM4-80GB
  | MPI task        11, GPU activated = T, Device Name = NVIDIA A100-SXM4-80GB
  | MPI task        12, GPU activated = T, Device Name = NVIDIA A100-SXM4-80GB
  | MPI task        13, GPU activated = T, Device Name = NVIDIA A100-SXM4-80GB
  | MPI task        14, GPU activated = T, Device Name = NVIDIA A100-SXM4-80GB
  | MPI task        15, GPU activated = T, Device Name = NVIDIA A100-SXM4-80GB
  | MPI task        16, GPU activated = T, Device Name = NVIDIA A100-SXM4-80GB
  | MPI task        17, GPU activated = T, Device Name = NVIDIA A100-SXM4-80GB

------------------------------------------------------------
          Preparing all fixed parts of the calculation.
------------------------------------------------------------
  Determining machine precision:
    2.225073858507201E-308
  Setting up grids for atomic and cluster calculations.

  Creating wave function, potential, and density for free atoms.
  Runtime choices for atomic solver:
  | atomic solver xc        : PW-LDA
  | compute density gradient: 0
  | compute kinetic density : F

  Species: H

  List of occupied orbitals and eigenvalues:
    n    l              occ      energy [Ha]    energy [eV]
    1    0           1.0000        -0.232375        -6.3233


  Species: O

  List of occupied orbitals and eigenvalues:
    n    l              occ      energy [Ha]    energy [eV]
    1    0           2.0000       -18.757744      -510.4242
    2    0           2.0000        -0.870917       -23.6989
    2    1           4.0000        -0.337950        -9.1961


  Adding cutoff potential to free-atom effective potential.
  Creating fixed part of basis set: Ionic, confined, hydrogenic.
 
  H                    hydrogenic:
 
  List of hydrogenic basis orbitals: 
    n    l      effective z      eigenvalue [eV]  inner max. [A]     outer max. [A]     outer radius [A]   
    2    0         2.100000       -14.9728           0.193243           1.317208           4.696947
    2    1         3.500000       -41.6669           0.602369           0.602369           3.862494
 
 
  O                    hydrogenic:
 
  List of hydrogenic basis orbitals: 
    n    l      effective z      eigenvalue [eV]  inner max. [A]     outer max. [A]     outer radius [A]   
    2    1         1.800000       -10.9749           1.164242           1.164242           4.691341
    3    2         7.600000       -87.3180           0.624125           0.624125           3.413946
    3    0         6.400000       -61.9207           0.061167           1.081902           4.151495
 
  Creating atomic-like basis functions for current effective potential.

  Species H                   :

  List of atomic basis orbitals and eigenvalues:
    n    l      energy [Ha]    energy [eV]    outer radius [A]
    1    0        -0.232375        -6.3233       4.696947


  Species O                   :

  List of atomic basis orbitals and eigenvalues:
    n    l      energy [Ha]    energy [eV]    outer radius [A]
    1    0       -18.757744      -510.4242       1.830144
    2    0        -0.870917       -23.6989       4.578029
    2    1        -0.337950        -9.1961       4.634338

  Assembling full basis from fixed parts.
  | Species H :   atomic orbital   1 s accepted.
  | Species H :    hydro orbital   2 s accepted.
  | Species H :    hydro orbital   2 p accepted.
  | Species O :   atomic orbital   1 s accepted.
  | Species O :    hydro orbital   3 s accepted.
  | Species O :   atomic orbital   2 s accepted.
  | Species O :   atomic orbital   2 p accepted.
  | Species O :    hydro orbital   2 p accepted.
  | Species O :    hydro orbital   3 d accepted.
 
  Basis size parameters after reduction:
  | Total number of radial functions:        9
  | Total number of basis functions :      768
 
  Per-task memory consumption for arrays in subroutine allocate_ext:
  |           2.268304MB.
  Testing on-site integration grid accuracy.
  |  Species  Function  <phi|h_atom|phi> (log., in eV)  <phi|h_atom|phi> (rad., in eV)
           1        1                 -6.3245358373                 -6.3232436907
           1        2                 14.1326137532                 14.1384481100
           1        3                 25.3627025200                 25.3628451197
           2        4               -510.4241781764               -510.4240769407
           2        5                 14.9072942213                 14.9072945271
           2        6                -21.2004736474                -21.2005650551
           2        7                 -9.1962086505                 -9.1963509834
           2        8                  8.1896755006                  8.1702200081
           2        9                 45.7920584937                 45.7920228520

  Preparing densities etc. for the partition functions (integrals / Hartree potential).

  Preparations completed.
  max(cpu_time)          :      0.070 s.
  Wall clock time (cpu1) :      0.066 s.
------------------------------------------------------------

  Initializing index lists of integration centers etc. from given atomic structure:
  Mapping all atomic coordinates to central unit cell.

  Initializing the k-points
  Using symmetry for reducing the k-points
  | k-points reduced from:        1 to        1
  | Number of k-points                             :         1
  | Consuming          0 KiB for k_phase_exx.
  The eigenvectors in the calculations are REAL.
  | Number of basis functions in the Hamiltonian integrals :      4615
  | Number of basis functions in a single unit cell        :       768
  | Number of centers in hartree potential         :      2679
  | Number of centers in hartree multipole         :      2041
  | Number of centers in electron density summation:      1624
  | Number of centers in basis integrals           :      1681
  | Number of centers in integrals                 :       714
  | Number of centers in hamiltonian               :      1636
  | Consuming          0 KiB for k_phase.
  | Number of super-cells (origin) [n_cells]                     :         125
  | Number of super-cells (after PM_index) [n_cells]             :          28
  | Number of super-cells in hamiltonian [n_cells_in_hamiltonian]:          28
  | Size of matrix packed + index [n_hamiltonian_matrix_size] :      853997
  | Size of matrix packed + index (no_symmetry):     1706457

------------------------------------------------------------
          Begin self-consistency loop: Initialization.

          Date     :  20230221, Time     :  133609.970
------------------------------------------------------------
  | Estimated reciprocal-space cutoff momentum G_max:         3.28086903 bohr^-1 .
  | Reciprocal lattice points for long-range Hartree potential:    3694
  Using simple linear distribution as default method for k-point parallelism.
  * Using 18 tasks for Scalapack Eigenvalue solver.
  Detailed listing of tasks and assigned k-points:
   Task     0 k-point     1 on adag040
   Task     1 k-point     1 on adag040
   Task     2 k-point     1 on adag040
   Task     3 k-point     1 on adag040
   Task     4 k-point     1 on adag040
   Task     5 k-point     1 on adag040
   Task     6 k-point     1 on adag040
   Task     7 k-point     1 on adag040
   Task     8 k-point     1 on adag040
   Task     9 k-point     1 on adag040
   Task    10 k-point     1 on adag040
   Task    11 k-point     1 on adag040
   Task    12 k-point     1 on adag040
   Task    13 k-point     1 on adag040
   Task    14 k-point     1 on adag040
   Task    15 k-point     1 on adag040
   Task    16 k-point     1 on adag040
   Task    17 k-point     1 on adag040
  K-point:     1 Tasks:    18 split into      6 X      3 BLACS grid
  Calculating block size based on n_basis =          768  max_nprow =            6  max_npcol =            3
  ScaLAPACK block size set to:           16
  Allocating        0.250 MB for ovlp
  Allocating        0.250 MB for ham
  Allocating        0.250 MB for eigenvec
  Required Scalapack workspace - INTEGER:            1  REAL:             1
  Partitioning the integration grid into batches with parallel hashing+maxmin method.
  | Number of batches:     4224
  | Maximal batch size:     189
  | Minimal batch size:     101
  | Average batch size:     120.636
  | Standard deviation of batch sizes:      18.637

  Integration load balanced across    18 MPI tasks.
  Work distribution over tasks is as follows:
  Task     0 has      28321 integration points.
  Task     1 has      28316 integration points.
  Task     2 has      28307 integration points.
  Task     3 has      28269 integration points.
  Task     4 has      28336 integration points.
  Task     5 has      28335 integration points.
  Task     6 has      28312 integration points.
  Task     7 has      28347 integration points.
  Task     8 has      28307 integration points.
  Task     9 has      28345 integration points.
  Task    10 has      28289 integration points.
  Task    11 has      28276 integration points.
  Task    12 has      28289 integration points.
  Task    13 has      28278 integration points.
  Task    14 has      28323 integration points.
  Task    15 has      28379 integration points.
  Task    16 has      28266 integration points.
  Task    17 has      28273 integration points.
  Initializing partition tables, free-atom densities, potentials, etc. across the integration grid (initialize_grid_storage).
  | initialize_grid_storage: Actual outermost partition radius vs. multipole_radius_free
  | (-- VB: in principle, multipole_radius_free should be larger, hence this output)
  | Species        1: Confinement radius =              4.999999999999999 AA, multipole_radius_free =              5.054417573612229 AA.
  | Species        1: outer_partition_radius set to              5.054417573612229 AA .
  | Species        2: Confinement radius =              4.999999999999999 AA, multipole_radius_free =              5.048384829883283 AA.
  | Species        2: outer_partition_radius set to              5.048384829883283 AA .
  | The sparse table of interatomic distances needs       5999.41 kbyte instead of     22606.09 kbyte of memory.
  | Net number of integration points:   509568
  | of which are non-zero points    :   403243
  | Numerical average free-atom electrostatic potential    :     -5.84873704 eV
  Renormalizing the initial density to the exact electron count on the 3D integration grid.
  | Initial density: Formal number of electrons (from input files) :     320.0000000000
  | Integrated number of electrons on 3D grid     :     320.0036576230
  | Charge integration error                      :       0.0036576230
  | Normalization factor for density and gradient :       0.9999885701
  Renormalizing the free-atom superposition density to the exact electron count on the 3D integration grid.
  | Formal number of electrons (from input files) :     320.0000000000
  | Integrated number of electrons on 3D grid     :     320.0036576230
  | Charge integration error                      :       0.0036576230
  | Normalization factor for density and gradient :       0.9999885701
  Obtaining max. number of non-zero basis functions in each batch (get_n_compute_maxes).
  | Maximal number of non-zero basis functions:      451 in task     0
  | Maximal number of non-zero basis functions:      448 in task     1
  | Maximal number of non-zero basis functions:      440 in task     2
  | Maximal number of non-zero basis functions:      432 in task     3
  | Maximal number of non-zero basis functions:      448 in task     4
  | Maximal number of non-zero basis functions:      431 in task     5
  | Maximal number of non-zero basis functions:      439 in task     6
  | Maximal number of non-zero basis functions:      451 in task     7
  | Maximal number of non-zero basis functions:      444 in task     8
  | Maximal number of non-zero basis functions:      448 in task     9
  | Maximal number of non-zero basis functions:      452 in task    10
  | Maximal number of non-zero basis functions:      443 in task    11
  | Maximal number of non-zero basis functions:      452 in task    12
  | Maximal number of non-zero basis functions:      431 in task    13
  | Maximal number of non-zero basis functions:      435 in task    14
  | Maximal number of non-zero basis functions:      440 in task    15
  | Maximal number of non-zero basis functions:      447 in task    16
  | Maximal number of non-zero basis functions:      441 in task    17
  Integrating Hamiltonian matrix: batch-based integration.
  GPU acceleration will be used when integrating the Hamiltonian matrix.
  Reporting GPU memory usage by myid 0.  Note that it is likely not the only MPI task binding to its GPU!
  Allocating        1.627 MB on GPU for hamiltonian_shell
  Allocating        0.682 MB on GPU for wave
  Allocating        0.002 MB on GPU for partition
  Allocating        0.682 MB on GPU for h_times_psi
  Time summed over all CPUs for integration: real work       14.554 s, elapsed       14.735 s
  Deallocating memory used on GPU for Hamiltonian integration.
  Integrating overlap matrix.
  Time summed over all CPUs for integration: real work       12.174 s, elapsed       12.285 s
  Deallocating overlap matrix.

  Updating Kohn-Sham eigenvalues and eigenvectors using ELSI and the ELPA eigensolver.
  Singularity check in k-point 1 (analysis for other k-points may follow below):
  Overlap matrix is not singular
  | Lowest and highest eigenvalues :  0.1615E-02,  0.7729E+01
  Finished singularity check of overlap matrix
  | Time :     0.230 s
  Starting ELPA eigensolver (GPU)
  Finished Cholesky decomposition
  | Time :     0.008 s
  Finished transformation to standard eigenproblem
  | Time :     0.033 s
  Finished solving standard eigenproblem
  | Time :     0.231 s
  Finished back-transformation of eigenvectors
  | Time :     0.018 s

  Obtaining occupation numbers and electronic chemical potential using ELSI.
  | Note that, for insulating systems, the printed 'chemical potential' value is not uniquely defined.
  | It can be anywhere in the energy gap, as long as it correctly separates occupied and unoccupied states.
  | In systems with a gap, the physically relevant chemical potential is the VBM or HOMO.

  | Chemical potential (Fermi level):    -4.89630994 eV
  Writing Kohn-Sham eigenvalues.

  State    Occupation    Eigenvalue [Ha]    Eigenvalue [eV]
      1       2.00000         -18.932394         -515.17666
      2       2.00000         -18.919538         -514.82683
      3       2.00000         -18.906690         -514.47721
      4       2.00000         -18.896326         -514.19519
      5       2.00000         -18.892923         -514.10260
      6       2.00000         -18.892276         -514.08499
      7       2.00000         -18.889071         -513.99777
      8       2.00000         -18.888177         -513.97344
      9       2.00000         -18.887590         -513.95746
     10       2.00000         -18.886152         -513.91835
     11       2.00000         -18.883216         -513.83845
     12       2.00000         -18.883091         -513.83505
     13       2.00000         -18.882628         -513.82246
     14       2.00000         -18.879842         -513.74664
     15       2.00000         -18.875266         -513.62212
     16       2.00000         -18.874829         -513.61024
     17       2.00000         -18.871844         -513.52899
     18       2.00000         -18.870624         -513.49581
     19       2.00000         -18.870623         -513.49577
     20       2.00000         -18.868612         -513.44105
     21       2.00000         -18.867030         -513.39802
     22       2.00000         -18.864445         -513.32766
     23       2.00000         -18.864378         -513.32583
     24       2.00000         -18.862880         -513.28507
     25       2.00000         -18.859637         -513.19684
     26       2.00000         -18.859482         -513.19260
     27       2.00000         -18.855035         -513.07162
     28       2.00000         -18.853564         -513.03158
     29       2.00000         -18.850912         -512.95940
     30       2.00000         -18.849256         -512.91435
     31       2.00000         -18.847864         -512.87646
     32       2.00000         -18.845041         -512.79965
     33       2.00000          -1.205161          -32.79410
     34       2.00000          -1.183395          -32.20183
     35       2.00000          -1.171872          -31.88825
     36       2.00000          -1.144214          -31.13565
     37       2.00000          -1.142199          -31.08083
     38       2.00000          -1.141467          -31.06089
     39       2.00000          -1.128940          -30.72001
     40       2.00000          -1.125596          -30.62902
     41       2.00000          -1.124002          -30.58566
     42       2.00000          -1.121148          -30.50798
     43       2.00000          -1.120534          -30.49129
     44       2.00000          -1.119757          -30.47015
     45       2.00000          -1.119294          -30.45754
     46       2.00000          -1.114278          -30.32104
     47       2.00000          -1.113080          -30.28845
     48       2.00000          -1.109829          -30.19999
     49       2.00000          -1.109741          -30.19760
     50       2.00000          -1.104427          -30.05300
     51       2.00000          -1.099183          -29.91030
     52       2.00000          -1.096355          -29.83333
     53       2.00000          -1.094030          -29.77006
     54       2.00000          -1.090897          -29.68482
     55       2.00000          -1.086525          -29.56586
     56       2.00000          -1.079344          -29.37043
     57       2.00000          -1.074322          -29.23378
     58       2.00000          -1.073545          -29.21264
     59       2.00000          -1.071251          -29.15022
     60       2.00000          -1.069219          -29.09494
     61       2.00000          -1.066348          -29.01681
     62       2.00000          -1.059263          -28.82401
     63       2.00000          -1.057460          -28.77494
     64       2.00000          -1.047401          -28.50123
     65       2.00000          -0.723750          -19.69423
     66       2.00000          -0.707510          -19.25233
     67       2.00000          -0.699427          -19.03236
     68       2.00000          -0.696491          -18.95249
     69       2.00000          -0.694533          -18.89920
     70       2.00000          -0.683243          -18.59200
     71       2.00000          -0.681140          -18.53476
     72       2.00000          -0.680146          -18.50770
     73       2.00000          -0.677683          -18.44068
     74       2.00000          -0.665293          -18.10355
     75       2.00000          -0.664410          -18.07952
     76       2.00000          -0.661749          -18.00710
     77       2.00000          -0.661125          -17.99012
     78       2.00000          -0.657200          -17.88333
     79       2.00000          -0.656120          -17.85392
     80       2.00000          -0.651822          -17.73698
     81       2.00000          -0.645353          -17.56096
     82       2.00000          -0.644845          -17.54714
     83       2.00000          -0.642365          -17.47963
     84       2.00000          -0.634595          -17.26820
     85       2.00000          -0.633431          -17.23652
     86       2.00000          -0.631815          -17.19257
     87       2.00000          -0.627026          -17.06223
     88       2.00000          -0.623210          -16.95840
     89       2.00000          -0.621026          -16.89897
     90       2.00000          -0.616828          -16.78476
     91       2.00000          -0.615548          -16.74992
     92       2.00000          -0.613379          -16.69090
     93       2.00000          -0.610134          -16.60259
     94       2.00000          -0.609634          -16.58898
     95       2.00000          -0.606150          -16.49417
     96       2.00000          -0.601767          -16.37491
     97       2.00000          -0.583108          -15.86716
     98       2.00000          -0.578023          -15.72880
     99       2.00000          -0.576270          -15.68111
    100       2.00000          -0.572495          -15.57838
    101       2.00000          -0.569560          -15.49852
    102       2.00000          -0.567380          -15.43920
    103       2.00000          -0.559034          -15.21209
    104       2.00000          -0.554382          -15.08550
    105       2.00000          -0.549966          -14.96535
    106       2.00000          -0.545977          -14.85678
    107       2.00000          -0.542468          -14.76129
    108       2.00000          -0.540636          -14.71144
    109       2.00000          -0.539963          -14.69315
    110       2.00000          -0.536240          -14.59184
    111       2.00000          -0.532493          -14.48988
    112       2.00000          -0.531766          -14.47010
    113       2.00000          -0.528603          -14.38401
    114       2.00000          -0.527876          -14.36424
    115       2.00000          -0.524950          -14.28461
    116       2.00000          -0.522791          -14.22587
    117       2.00000          -0.522193          -14.20960
    118       2.00000          -0.519581          -14.13851
    119       2.00000          -0.517612          -14.08495
    120       2.00000          -0.516275          -14.04855
    121       2.00000          -0.512664          -13.95029
    122       2.00000          -0.509026          -13.85130
    123       2.00000          -0.508376          -13.83361
    124       2.00000          -0.506593          -13.78510
    125       2.00000          -0.500734          -13.62567
    126       2.00000          -0.498886          -13.57539
    127       2.00000          -0.498205          -13.55685
    128       2.00000          -0.490983          -13.36034
    129       2.00000          -0.489729          -13.32620
    130       2.00000          -0.484768          -13.19121
    131       2.00000          -0.482707          -13.13511
    132       2.00000          -0.476578          -12.96835
    133       2.00000          -0.474786          -12.91959
    134       2.00000          -0.472473          -12.85664
    135       2.00000          -0.470851          -12.81251
    136       2.00000          -0.470174          -12.79408
    137       2.00000          -0.469295          -12.77017
    138       2.00000          -0.468547          -12.74981
    139       2.00000          -0.467583          -12.72359
    140       2.00000          -0.466190          -12.68567
    141       2.00000          -0.465335          -12.66241
    142       2.00000          -0.463800          -12.62065
    143       2.00000          -0.463468          -12.61159
    144       2.00000          -0.460449          -12.52945
    145       2.00000          -0.459610          -12.50662
    146       2.00000          -0.457755          -12.45615
    147       2.00000          -0.454733          -12.37393
    148       2.00000          -0.453985          -12.35356
    149       2.00000          -0.453250          -12.33355
    150       2.00000          -0.451761          -12.29304
    151       2.00000          -0.449416          -12.22924
    152       2.00000          -0.448101          -12.19345
    153       2.00000          -0.446664          -12.15434
    154       2.00000          -0.445236          -12.11550
    155       2.00000          -0.443541          -12.06935
    156       2.00000          -0.442930          -12.05273
    157       2.00000          -0.441681          -12.01875
    158       2.00000          -0.438182          -11.92355
    159       2.00000          -0.437469          -11.90414
    160       2.00000          -0.426851          -11.61521
    161       0.00000          -0.174833           -4.75746
    162       0.00000          -0.117417           -3.19507
    163       0.00000          -0.110248           -3.00000
    164       0.00000          -0.104409           -2.84111
    165       0.00000          -0.103033           -2.80366
    166       0.00000          -0.096741           -2.63247
    167       0.00000          -0.090781           -2.47028
    168       0.00000          -0.074397           -2.02446
    169       0.00000          -0.064170           -1.74616
    170       0.00000          -0.058732           -1.59819
    171       0.00000          -0.056162           -1.52825
    172       0.00000          -0.052534           -1.42953
    173       0.00000          -0.046131           -1.25529
    174       0.00000          -0.042652           -1.16061
    175       0.00000          -0.039897           -1.08566
    176       0.00000          -0.037290           -1.01472
    177       0.00000          -0.031430           -0.85525
    178       0.00000          -0.030661           -0.83432
    179       0.00000          -0.022010           -0.59892
    180       0.00000          -0.017901           -0.48712
    181       0.00000          -0.007700           -0.20951
    182       0.00000          -0.003119           -0.08487
    183       0.00000           0.001794            0.04883
    184       0.00000           0.008385            0.22818
    185       0.00000           0.016375            0.44558
    186       0.00000           0.021536            0.58602
    187       0.00000           0.023195            0.63118
    188       0.00000           0.027365            0.74464
    189       0.00000           0.036492            0.99299
    190       0.00000           0.037585            1.02275
    191       0.00000           0.039513            1.07519
    192       0.00000           0.046966            1.27802
    193       0.00000           0.047953            1.30487
    194       0.00000           0.051407            1.39887
    195       0.00000           0.056049            1.52517
    196       0.00000           0.061117            1.66307
    197       0.00000           0.063723            1.73398
    198       0.00000           0.064817            1.76377
    199       0.00000           0.067009            1.82340
    200       0.00000           0.068185            1.85540
    201       0.00000           0.075756            2.06143
    202       0.00000           0.076585            2.08398
    203       0.00000           0.077874            2.11907
    204       0.00000           0.080658            2.19482
    205       0.00000           0.082837            2.25411
    206       0.00000           0.084242            2.29234
    207       0.00000           0.088369            2.40463
    208       0.00000           0.089043            2.42298
    209       0.00000           0.090398            2.45986
    210       0.00000           0.096735            2.63228
    211       0.00000           0.098378            2.67701
    212       0.00000           0.100772            2.74213
    213       0.00000           0.104767            2.85086
    214       0.00000           0.106664            2.90248
    215       0.00000           0.108396            2.94960
    216       0.00000           0.109472            2.97888
    217       0.00000           0.116246            3.16321
    218       0.00000           0.117969            3.21009
    219       0.00000           0.120473            3.27823
    220       0.00000           0.122174            3.32453
    221       0.00000           0.126706            3.44784
    222       0.00000           0.128258            3.49007
    223       0.00000           0.134773            3.66736
    224       0.00000           0.144276            3.92595
    225       0.00000           0.146115            3.97599
    226       0.00000           0.151662            4.12694
    227       0.00000           0.155049            4.21911
    228       0.00000           0.166189            4.52223
    229       0.00000           0.169336            4.60787
    230       0.00000           0.174491            4.74815
    231       0.00000           0.178646            4.86121
    232       0.00000           0.181682            4.94382
    233       0.00000           0.197709            5.37993
    234       0.00000           0.199579            5.43082
    235       0.00000           0.202838            5.51949
    236       0.00000           0.212760            5.78949
    237       0.00000           0.214944            5.84893
    238       0.00000           0.222287            6.04874
    239       0.00000           0.229555            6.24650
    240       0.00000           0.238795            6.49794
    241       0.00000           0.240250            6.53754
    242       0.00000           0.243506            6.62614
    243       0.00000           0.252535            6.87182
    244       0.00000           0.257660            7.01128
    245       0.00000           0.259649            7.06542
    246       0.00000           0.265038            7.21204
    247       0.00000           0.272854            7.42473
    248       0.00000           0.280400            7.63007
    249       0.00000           0.283449            7.71303
    250       0.00000           0.286242            7.78905
    251       0.00000           0.292191            7.95093
    252       0.00000           0.296823            8.07698
    253       0.00000           0.309113            8.41139
    254       0.00000           0.309785            8.42969
    255       0.00000           0.314615            8.56111
    256       0.00000           0.322677            8.78049
    257       0.00000           0.328713            8.94473
    258       0.00000           0.338613            9.21414
    259       0.00000           0.340860            9.27527
[...]
  |    H      0     4.527807 A      4.527807 A        1.268855E-16 a.u.
  |    H      0     4.527807 A      4.583499 A       -4.900954E-17 a.u.
  |    H      0     4.527807 A      4.583499 A        4.713786E-16 a.u.
  |    H      2     3.678162 A  2.180220E+05 A            0.556529 a.u.
  |    H      1     3.958095 A  1.721251E+08 A            0.841931 a.u.
  |    H      0     4.527807 A  3.866455E+16 A            0.581436 a.u.
  |    O      0     2.043000 A      2.043000 A       -1.436841E-16 a.u.
  |    O      3     3.498446 A      3.498446 A        3.043453E-17 a.u.
  |    O      3     3.498446 A      3.498446 A        1.541443E-16 a.u.
  |    O      0     3.905335 A      3.905335 A        2.173090E-16 a.u.
  |    O      0     3.905335 A      3.905335 A        7.213445E-17 a.u.
  |    O      0     4.101052 A      4.101052 A        2.361718E-16 a.u.
  |    O      1     4.101052 A      4.101052 A        3.235185E-17 a.u.
  |    O      0     4.359549 A      4.359549 A       -5.329475E-17 a.u.
  |    O      1     4.413171 A      4.413171 A        3.261883E-17 a.u.
  |    O      1     4.522403 A      4.522403 A        6.417997E-16 a.u.
  |    O      1     4.522403 A      4.522403 A        4.224783E-16 a.u.
  |    O      2     4.522403 A      4.522403 A       -4.387647E-16 a.u.
  |    O      0     4.522403 A      4.578029 A        2.602039E-16 a.u.
  |    O      0     4.578029 A      4.578029 A        1.226235E-16 a.u.
  |    O      1     4.578029 A      4.578029 A       -6.107316E-16 a.u.
  |    O      1     4.578029 A      4.578029 A       -2.224438E-16 a.u.
  |    O      2     4.578029 A      4.578029 A       -7.020279E-16 a.u.
  |    O      2     4.522403 A      4.578029 A        1.323470E-15 a.u.
  |    O      2     4.578029 A      4.578029 A        7.923696E-16 a.u.
  |    O      2     4.522403 A      4.578029 A       -9.951815E-16 a.u.
  |    O      0     4.578029 A      4.634338 A       -8.813582E-18 a.u.
  |    O      1     4.578029 A      4.634338 A       -3.325386E-17 a.u.
  |    O      1     4.634338 A      4.634338 A        9.588032E-16 a.u.
  |    O      2     4.578029 A      4.634338 A        1.064715E-17 a.u.
  |    O      2     4.578029 A      4.634338 A       -3.770343E-15 a.u.
  |    O      4     3.251020 A  1.511584E+03 A            1.513372 a.u.
  |    O      3     3.541477 A  1.434166E+04 A            4.293220 a.u.
  |    O      2     4.634338 A  5.584435E+05 A            9.352428 a.u.
  |    O      1     4.634338 A  2.821283E+08 A            2.261940 a.u.
  |    O      0     4.578029 A  4.264100E+16 A            0.641234 a.u.

  | Shrink_full_auxil_basis : there are       38  radial auxiliary wave functions
                            accepted and       5 rejected.
  | Shrink_full_auxil_basis : there are totally                4544 partial auxiliary wave functions.
 
  | Maximal number of product basis functions per thread :   256   256
 
  | Minimal total memory requirement for three-center overlap :      10.450 Gbs
  | Number of local auxiliary basis functions on task:      0   256
  | Number of local auxiliary basis functions on task:      1   256
  | Number of local auxiliary basis functions on task:      2   256
  | Number of local auxiliary basis functions on task:      3   256
  | Number of local auxiliary basis functions on task:      4   256
  | Number of local auxiliary basis functions on task:      5   256
  | Number of local auxiliary basis functions on task:      6   256
  | Number of local auxiliary basis functions on task:      7   256
  | Number of local auxiliary basis functions on task:      8   256
  | Number of local auxiliary basis functions on task:      9   256
  | Number of local auxiliary basis functions on task:     10   256
  | Number of local auxiliary basis functions on task:     11   256
  | Number of local auxiliary basis functions on task:     12   256
  | Number of local auxiliary basis functions on task:     13   256
  | Number of local auxiliary basis functions on task:     14   240
  | Number of local auxiliary basis functions on task:     15   240
  | Number of local auxiliary basis functions on task:     16   240
  | Number of local auxiliary basis functions on task:     17   240
  | 2D aux task distribution:      3 X      6
  | 2D block size (nb_aux_2d):     64
 
  Basis pair condensation :    295296  -->     225232
 
 --------------------------------------------
  Constructing auxiliary basis (full product) ...
 
  Product basis:
  | charge radius: extent of product basis function
  | field radius: extent of its Coulomb potential
  | Species   l  charge radius    field radius  multipol momen
  |    H      1     3.910002 A      3.910002 A       -2.487223E-16 a.u.
  |    H      1     3.958095 A      3.958095 A       -2.441841E-16 a.u.
  |    H      0     4.527807 A      4.527807 A        1.268855E-16 a.u.
  |    H      0     4.527807 A      4.583499 A       -4.900954E-17 a.u.
  |    H      0     4.527807 A      4.583499 A        4.713786E-16 a.u.
  |    H      2     3.678162 A  2.180220E+05 A            0.556529 a.u.
  |    H      1     3.958095 A  1.721251E+08 A            0.841931 a.u.
  |    H      0     4.527807 A  3.866455E+16 A            0.581436 a.u.
  |    O      0     2.043000 A      2.043000 A       -1.436841E-16 a.u.
  |    O      3     3.498446 A      3.498446 A        3.043453E-17 a.u.
  |    O      3     3.498446 A      3.498446 A        1.541443E-16 a.u.
  |    O      0     3.905335 A      3.905335 A        2.173090E-16 a.u.
  |    O      0     3.905335 A      3.905335 A        7.213445E-17 a.u.
  |    O      0     4.101052 A      4.101052 A        2.361718E-16 a.u.
  |    O      1     4.101052 A      4.101052 A        3.235185E-17 a.u.
  |    O      0     4.359549 A      4.359549 A       -5.329475E-17 a.u.
  |    O      1     4.413171 A      4.413171 A        3.261883E-17 a.u.
  |    O      1     4.522403 A      4.522403 A        6.417997E-16 a.u.
  |    O      1     4.522403 A      4.522403 A        4.224783E-16 a.u.
  |    O      2     4.522403 A      4.522403 A       -4.387647E-16 a.u.
  |    O      0     4.522403 A      4.578029 A        2.602039E-16 a.u.
  |    O      0     4.578029 A      4.578029 A        1.226235E-16 a.u.
  |    O      1     4.578029 A      4.578029 A       -6.107316E-16 a.u.
  |    O      1     4.578029 A      4.578029 A       -2.224438E-16 a.u.
  |    O      2     4.578029 A      4.578029 A       -7.020279E-16 a.u.
  |    O      2     4.522403 A      4.578029 A        1.323470E-15 a.u.
  |    O      2     4.578029 A      4.578029 A        7.923696E-16 a.u.
  |    O      2     4.522403 A      4.578029 A       -9.951815E-16 a.u.
  |    O      0     4.578029 A      4.634338 A       -8.813582E-18 a.u.
  |    O      1     4.578029 A      4.634338 A       -3.325386E-17 a.u.
  |    O      1     4.634338 A      4.634338 A        9.588032E-16 a.u.
  |    O      2     4.578029 A      4.634338 A        1.064715E-17 a.u.
  |    O      2     4.578029 A      4.634338 A       -3.770343E-15 a.u.
  |    O      4     3.251020 A  1.511584E+03 A            1.513372 a.u.
  |    O      3     3.541477 A  1.434166E+04 A            4.293220 a.u.
  |    O      2     4.634338 A  5.584435E+05 A            9.352428 a.u.
  |    O      1     4.634338 A  2.821283E+08 A            2.261940 a.u.
  |    O      0     4.578029 A  4.264100E+16 A            0.641234 a.u.

  | Shrink_full_auxil_basis : there are       38  radial auxiliary wave functions
                            accepted and       5 rejected.
  | Shrink_full_auxil_basis : there are totally                4544 partial auxiliary wave functions.
 
  | Maximal number of product basis functions per thread :   256   256
 
  | Minimal total memory requirement for three-center overlap :      10.450 Gbs
  | Number of local auxiliary basis functions on task:      0   256
  | Number of local auxiliary basis functions on task:      1   256
  | Number of local auxiliary basis functions on task:      2   256
  | Number of local auxiliary basis functions on task:      3   256
  | Number of local auxiliary basis functions on task:      4   256
  | Number of local auxiliary basis functions on task:      5   256
  | Number of local auxiliary basis functions on task:      6   256
  | Number of local auxiliary basis functions on task:      7   256
  | Number of local auxiliary basis functions on task:      8   256
  | Number of local auxiliary basis functions on task:      9   256
  | Number of local auxiliary basis functions on task:     10   256
  | Number of local auxiliary basis functions on task:     11   256
  | Number of local auxiliary basis functions on task:     12   256
  | Number of local auxiliary basis functions on task:     13   256
  | Number of local auxiliary basis functions on task:     14   240
  | Number of local auxiliary basis functions on task:     15   240
  | Number of local auxiliary basis functions on task:     16   240
  | Number of local auxiliary basis functions on task:     17   240
  | 2D aux task distribution:      3 X      6
  | 2D block size (nb_aux_2d):     64
 
  Basis pair condensation :    295296  -->     225232
dP_dE (Bohr^3) at every cycle:--->
 (365.603281156371,0.000000000000000E+000) (6.34241387393587,0.000000000000000E+000) (7.48153627140769,0.000000000000000E+000)
 (6.35361719492834,0.000000000000000E+000) (350.275495023970,0.000000000000000E+000) (-8.81522260838576,0.000000000000000E+000)
 (7.49911660995752,0.000000000000000E+000) (-8.81516311182611,0.000000000000000E+000) (356.613786438642,0.000000000000000E+000)
DFPT polarizability (Bohr^3)        xx        yy        zz        xy        xz        yz
  | Polarizability:--->                       365.603281156                  350.275495024                  356.613786439                    6.342413874                    7.481536271                   -8.815222608

DFPT for dielectric_constant:--->  # PARSE DFPT_dielectric_tensor
               1.764068871046837             0.013254916621761             0.015635551613514
               0.013278330276025             1.732035558301972            -0.018422802894745
               0.015672292502124            -0.018422678553768             1.745281859457302

                                               :  max(cpu_time)    wall_clock(cpu1)
  | Time for  dielectric calculation            :        0.000 s           0.000 s
===========================================================================

------------------------------------------------------------------------------
  Final output of selected total energy values:

  The following output summarizes some interesting total energy values
  at the end of a run (AFTER all relaxation, molecular dynamics, etc.).

  | Total energy of the DFT / Hartree-Fock s.c.f. calculation      :         -66111.334675655 eV
  | Final zero-broadening corrected energy (caution - metals only) :         -66111.334675655 eV
  | For reference only, the value of 1 Hartree used in FHI-aims is :             27.211384500 eV
  | For reference only, the overall average (free atom contribution
  | + realspace contribution) of the electrostatic potential after
  | s.c.f. convergence is                                          :             -5.390591441 eV

  Before relying on these values, please be sure to understand exactly which
  total energy value is referred to by a given number. Different objects may
  all carry the same name 'total energy'. Definitions:

  Total energy of the DFT / Hartree-Fock s.c.f. calculation:
  | Note that this energy does not include ANY quantities calculated after the
  | s.c.f. cycle, in particular not ANY RPA, MP2, etc. many-body perturbation terms.

  Final zero-broadening corrected energy:
  | For metallic systems only, a broadening of the occupation numbers at the Fermi
  | level can be extrapolated back to zero broadening by an electron-gas inspired
  | formula. For all systems that are not real metals, this value can be
  | meaningless and should be avoided.

------------------------------------------------------------------------------
  Methods described in the following list of references were used in this FHI-aims run.
  If you publish the results, please make sure to cite these reference if they apply.
  FHI-aims is an academic code, and for our developers (often, Ph.D. students
  and postdocs), scientific credit in the community is essential.
  Thank you for helping us!

  For any use of FHI-aims, please cite:

    Volker Blum, Ralf Gehrke, Felix Hanke, Paula Havu, Ville Havu,
    Xinguo Ren, Karsten Reuter, and Matthias Scheffler
    'Ab initio molecular simulations with numeric atom-centered orbitals'
    Computer Physics Communications 180, 2175-2196 (2009)
    http://doi.org/10.1016/j.cpc.2009.06.022


  For Hartree-Fock, hybrid functionals, or many-body perturbation theory used in your run, please cite:

    Xinguo Ren, Patrick Rinke, Volker Blum, Juergen Wieferink, Alex Tkatchenko,
    Andrea Sanfilippo, Karsten Reuter, and Matthias Scheffler,
    'Resolution-of-identity approach to Hartree-Fock, hybrid density functionals,
    RPA, MP2, and GW with numeric atom-centered orbital basis functions'
    New Journal of Physics 14, 053020 (2012).
    http://doi.org/10.1088/1367-2630/14/5/053020


  The provided symmetry information was generated with SPGlib:

    Atsushi Togo, Yusuke Seto, Dimitar Pashov
    SPGlib 1.7.3 obtained from http://spglib.sourceforge.net
    Copyright (C) 2008 Atsushi Togo


  The DFPT (perturbation by an electric field) part of the code was used.
  Here is the corresponding reference:

    Honghui Shang, Nathaniel Raimbault, Mariana Rossi,
    Christian Carbogno, Patrick Rinke and Matthias Scheffler,
    'All-Electron, Real-Space Perturbation Theory for Homogeneous
    Electric Fields: Theory, Implementation, and Application within dft'
    New Journal of Physics, 20(7):073040, 2018


  The ELSI infrastructure was used in your run to solve the Kohn-Sham electronic structure.
  Please check out http://elsi-interchange.org to learn more.
  If scalability is important for your project, please acknowledge ELSI by citing:

    V. W-z. Yu, F. Corsetti, A. Garcia, W. P. Huhn, M. Jacquelin, W. Jia,
    B. Lange, L. Lin, J. Lu, W. Mi, A. Seifitokaldani, A. Vazquez-Mayagoitia,
    C. Yang, H. Yang, and V. Blum
    'ELSI: A unified software interface for Kohn-Sham electronic structure solvers'
    Computer Physics Communications 222, 267-285 (2018).
    http://doi.org/10.1016/j.cpc.2017.09.007


  For the real-space grid partitioning and parallelization used in this calculation, please cite:

    Ville Havu, Volker Blum, Paula Havu, and Matthias Scheffler,
    'Efficient O(N) integration for all-electron electronic structure calculation'
    'using numerically tabulated basis functions'
    Journal of Computational Physics 228, 8367-8379 (2009).
    http://doi.org/10.1016/j.jcp.2009.08.008


  The high-level electronic structure method used in your calculation
  employed our efficient localized resolution of identity for the Coulomb operator.
  Some calculations, especially large-scale hybrid density functional theory,
  are only possible thanks to this development. For this feature, please cite:

    Arvid Ihrig, Juergen Wieferink, Igor Ying Zhang, Matti Ropo, Xinguo Ren,
    Patrick Rinke, Matthias Scheffler, and Volker Blum,
    'Accurate localized resolution of identity approach for linear-scaling
    hybrid density functionals and for many-body perturbation theory'
    New Journal of Physics 117, 093020 (2015).
    http://doi.org/10.1088/1367-2630/17/9/093020

  Of course, there are many other important community references, e.g., those cited in the
  above references. Our list is limited to references that describe implementations in the
  FHI-aims code. The reason is purely practical (length of this list) - please credit others as well.

------------------------------------------------------------
          Leaving FHI-aims.
          Date     :  20230221, Time     :  134509.344

          Computational steps:
          | Number of self-consistency cycles          :           45
          | Number of SCF (re)initializations          :            1
          | Number of coupled perturbed self-consistency cycles          :            0
          | Number of CPSCF (re)initializations          :            0

          Detailed time accounting                     :  max(cpu_time)    wall_clock(cpu1)
          | Total time                                  :      539.727 s         560.107 s
          | GPU initialization                          :        2.358 s          19.159 s
          | Preparation time                            :        0.070 s           0.066 s
          | Boundary condition initalization            :        1.414 s           1.415 s
          | Grid partitioning                           :        0.434 s           0.435 s
          | Preloading free-atom quantities on grid     :        2.770 s           2.771 s
          | Free-atom superposition energy              :        0.340 s           0.340 s
          | Total time for integrations                 :       14.331 s          14.510 s
          | Product basis setup: Total time             :        0.000 s           0.000 s
          | Product basis: | 2-center integrations     :(       0.000 s)  (       0.000 s)
          | Product basis: | LVL 3-center & coefficient:(       0.000 s)  (       0.000 s)
          | Total time for solution of K.-S. equations  :        2.414 s           5.037 s
          | Total time for density update               :       10.182 s          10.478 s
          | Total time for mixing & preconditioning     :        8.920 s           8.922 s
          | Total time for Hartree multipole update     :        0.110 s           0.109 s
          | Total time for Hartree multipole sum        :       38.106 s          38.124 s
          | Total time for total energy evaluation      :        0.006 s           0.008 s
          | Total time for DFPT                         :      457.474 s         457.633 s
          | Total time first_order_DM                   :        0.326 s           0.325 s
          | Total time first_order_density              :       99.416 s          99.441 s
          | Total time first_order_potential            :       53.761 s          53.780 s
          | Total time first_order_H                    :      201.832 s         201.901 s
          | Total time solving of Sternheimer equations :        0.191 s           0.194 s
          | Total time for dielectric constant          :        0.000 s           0.000 s
          | Total time momentum matrix                  :        0.000 s           0.000 s

          GPU acceleration has been used for charge density update.
          GPU acceleration has been used for real-space Hamiltonian integration.
          Due to GPU usage, wall_clock(cpu1) will give a more reliable estimate for timings.

          Partial memory accounting:
          | Residual value for overall tracked memory usage across tasks:     0.000000 MB (should be 0.000000 MB)
          | Peak values for overall tracked memory usage:
          |   Minimum:      127.804 MB (on task  0 after allocating DFPT_pulay_mixing::pulay_mix::alphas)
          |   Maximum:      127.804 MB (on task  0 after allocating DFPT_pulay_mixing::pulay_mix::alphas)
          |   Average:      127.804 MB
          | Largest tracked array allocation:
          |   Minimum:       45.608 MB (DFPT_pulay_mixing::initialize_pulay_mixing::X_in_diffs on task  0)
          |   Maximum:       45.608 MB (DFPT_pulay_mixing::initialize_pulay_mixing::X_in_diffs on task  0)
          |   Average:       45.608 MB
          Note:  These values currently only include a subset of arrays which are explicitly tracked.
          The "true" memory usage will be greater.

          Have a nice day.
------------------------------------------------------------
