------------------------------------------------------------
          Invoking FHI-aims ...

          When using FHI-aims, please cite the following reference:

            Volker Blum, Ralf Gehrke, Felix Hanke, Paula Havu,
            Ville Havu, Xinguo Ren, Karsten Reuter, and Matthias Scheffler,
            'Ab Initio Molecular Simulations with Numeric Atom-Centered Orbitals',
            Computer Physics Communications 180, 2175-2196 (2009)

          In addition, many other developments in FHI-aims are likely important for
          your particular application. A partial list of references is given at the end of
          this file. Thank you for giving credit to the authors of these developments.

          For any questions about FHI-aims, please visit our slack channel at

            https://fhi-aims.slack.com

          and our main development and support site at

            https://aims-git.rz-berlin.mpg.de .

          The latter site, in particular, has a wiki to collect information, as well
          as an issue tracker to log discussions, suggest improvements, and report issues
          or bugs. https://aims-git.rz-berlin.mpg.de is also the main development site
          of the project and all new and updated code versions can be obtained there.
          Please send an email to aims-coordinators@fhi-berlin.mpg.de and we will add
          you to these sites. They are for you and everyone is welcome there.

------------------------------------------------------------



  Date     :  20230221, Time     :  122516.620
  Time zero on CPU 1             :   0.410936000000000E+00  s.
  Internal wall clock time zero  :           446214316.620  s.

  FHI-aims created a unique identifier for this run for later identification
  aims_uuid : 3247620D-AB20-49B7-AF45-D31E387CE016

  Build configuration of the current instance of FHI-aims
  -------------------------------------------------------
  FHI-aims version      : 221103
  Commit number         : 42523251a
  CMake host system     : Linux-5.3.18-150300.59.68-default
  CMake version         : 3.17.0
  Fortran compiler      : /mpcdf/soft/SLE_15/packages/x86_64/intel_oneapi/2021.3/mpi/2021.3.0/bin/mpiifort (Intel) version 20.2.3.20210609
  Fortran compiler flags: -O3 -ip -fp-model precise
  C compiler            : /mpcdf/soft/SLE_15/packages/x86_64/intel/2021.3.0/bin/icc (Intel) version 20.2.3.20210609
  C compiler flags      : -O3 -ip -fp-model precise -std=gnu99
  CUDA compiler         : /mpcdf/soft/SLE_15/packages/x86_64/cuda/11.6.2/bin/nvcc
  CUDA compiler flags   : -O3 -DAdd_ -lcublas
  HIP compiler          :
  HIP compiler flags    :
  HIP GPU arch          :
  ELPA2 kernel          : AVX512
  Using MPI
  Using ScaLAPACK
  Using LibXC
  Using CUDA
  Using i-PI
  Using RLSY
  Linking against: /mpcdf/soft/SLE_15/packages/x86_64/cuda/11.6.2/lib64/libcublas.so
                   /mpcdf/soft/SLE_15/packages/x86_64/cuda/11.6.2/lib64/libcudart.so
                   /mpcdf/soft/SLE_15/packages/x86_64/intel_oneapi/2021.3/mkl/latest/lib/intel64/libmkl_intel_lp64.so
                   /mpcdf/soft/SLE_15/packages/x86_64/intel_oneapi/2021.3/mkl/latest/lib/intel64/libmkl_sequential.so
                   /mpcdf/soft/SLE_15/packages/x86_64/intel_oneapi/2021.3/mkl/latest/lib/intel64/libmkl_core.so
                   /mpcdf/soft/SLE_15/packages/x86_64/intel_oneapi/2021.3/mkl/latest/lib/intel64/libmkl_blacs_intelmpi_lp64.so
                   /mpcdf/soft/SLE_15/packages/x86_64/intel_oneapi/2021.3/mkl/latest/lib/intel64/libmkl_scalapack_lp64.so

  Using       18 parallel tasks.
  Task        0 on host adag039 reporting.
  Task        1 on host adag039 reporting.
  Task        2 on host adag039 reporting.
  Task        3 on host adag039 reporting.
  Task        4 on host adag039 reporting.
  Task        5 on host adag039 reporting.
  Task        6 on host adag039 reporting.
  Task        7 on host adag039 reporting.
  Task        8 on host adag039 reporting.
  Task        9 on host adag039 reporting.
  Task       10 on host adag039 reporting.
  Task       11 on host adag039 reporting.
  Task       12 on host adag039 reporting.
  Task       13 on host adag039 reporting.
  Task       14 on host adag039 reporting.
  Task       15 on host adag039 reporting.
  Task       16 on host adag039 reporting.
  Task       17 on host adag039 reporting.

  Obtaining array dimensions for all initial allocations:
  
  -----------------------------------------------------------------------
  Parsing control.in (first pass over file, find array dimensions only).
  The contents of control.in will be repeated verbatim below
  unless switched off by setting 'verbatim_writeout .false.' .
  in the first line of control.in .
  -----------------------------------------------------------------------
  
  #########################################################################################
  #
  #  Volker Blum, 2017 : Test run input file control.in for simple H2O
  #
  #########################################################################################
  #
  #  Physical model
  #
    xc                 pw-lda
    spin               none
    relativistic       none
    charge             0.
  
    use_gpu
  
    DFPT dielectric
    ri_density_restart write
    ri_rho1 write
  #  ri_density_restart read 0
  #  ri_rho1 read
    ri_full_output .true.
    sc_accuracy_rho    1d-6
  #  use_calculate_fock_matrix_old .false.
  #  wave_threshold 1e-8
    k_grid 1 1 1
  #  output cube eigenstate 160
  #  output cube eigenstate 161
    wave_threshold 1e-8
    default_prodbas_acc 1e-6
    default_max_l_prodbas 6
  #
  #  Relaxation
  #
  #  relax_geometry   bfgs 1.e-2
  #
  
  ################################################################################
  
  
  ################################################################################
  #
  #  FHI-aims code project
  #  VB, Fritz-Haber Institut, 2009
  #
  #  Suggested "light" defaults for H atom (to be pasted into control.in file)
  #  Be sure to double-check any results obtained with these settings for post-processing,
  #  e.g., with the "tight" defaults and larger basis sets.
  #
  ################################################################################
    species        H
  #     global species definitions
      nucleus             1
      mass                1.00794
  #
      l_hartree           4
  #
      cut_pot             3.5  1.5  1.0
      basis_dep_cutoff    1e-4
  #
      radial_base         24 5.0
      radial_multiplier   1
      angular_grids       specified
        division   0.2421   50
        division   0.3822  110
        division   0.4799  194
        division   0.5341  302
  #      division   0.5626  434
  #      division   0.5922  590
  #      division   0.6542  770
  #      division   0.6868 1202
  #      outer_grid  770
        outer_grid  302
  ################################################################################
  #
  #  Definition of "minimal" basis
  #
  ################################################################################
  #     valence basis states
      valence      1  s   1.
  #     ion occupancy
      ion_occ      1  s   0.5
  ################################################################################
  #
  #  Suggested additional basis functions. For production calculations,
  #  uncomment them one after another (the most important basis functions are
  #  listed first).
  #
  #  Basis constructed for dimers: 0.5 A, 0.7 A, 1.0 A, 1.5 A, 2.5 A
  #
  ################################################################################
  #  "First tier" - improvements: -1014.90 meV to -62.69 meV
       hydro 2 s 2.1
       hydro 2 p 3.5
  #  "Second tier" - improvements: -12.89 meV to -1.83 meV
  #     hydro 1 s 0.85
  #     hydro 2 p 3.7
  #     hydro 2 s 1.2
  #     hydro 3 d 7
  #  "Third tier" - improvements: -0.25 meV to -0.12 meV
  #     hydro 4 f 11.2
  #     hydro 3 p 4.8
  #     hydro 4 d 9
  #     hydro 3 s 3.2
  ################################################################################
  #
  #  FHI-aims code project
  #  VB, Fritz-Haber Institut, 2009
  #
  #  Suggested "light" defaults for O atom (to be pasted into control.in file)
  #  Be sure to double-check any results obtained with these settings for post-processing,
  #  e.g., with the "tight" defaults and larger basis sets.
  #
  ################################################################################
    species        O
  #     global species definitions
      nucleus             8
      mass                15.9994
  #
      l_hartree           4
  #
      cut_pot             3.5  1.5  1.0
      basis_dep_cutoff    1e-4
  #
      radial_base         36 5.0
      radial_multiplier   1
       angular_grids specified
        division   0.2659   50
        division   0.4451  110
        division   0.6052  194
        division   0.7543  302
  #      division   0.8014  434
  #      division   0.8507  590
  #      division   0.8762  770
  #      division   0.9023  974
  #      division   1.2339 1202
  #      outer_grid 974
        outer_grid 302
  ################################################################################
  #
  #  Definition of "minimal" basis
  #
  ################################################################################
  #     valence basis states
      valence      2  s   2.
      valence      2  p   4.
  #     ion occupancy
      ion_occ      2  s   1.
      ion_occ      2  p   3.
  ################################################################################
  #
  #  Suggested additional basis functions. For production calculations,
  #  uncomment them one after another (the most important basis functions are
  #  listed first).
  #
  #  Constructed for dimers: 1.0 A, 1.208 A, 1.5 A, 2.0 A, 3.0 A
  #
  ################################################################################
  #  "First tier" - improvements: -699.05 meV to -159.38 meV
       hydro 2 p 1.8
       hydro 3 d 7.6
       hydro 3 s 6.4
  #  "Second tier" - improvements: -49.91 meV to -5.39 meV
  #     hydro 4 f 11.6
  #     hydro 3 p 6.2
  #     hydro 3 d 5.6
  #     hydro 5 g 17.6
  #     hydro 1 s 0.75
  #  "Third tier" - improvements: -2.83 meV to -0.50 meV
  #     ionic 2 p auto
  #     hydro 4 f 10.8
  #     hydro 4 d 4.7
  #     hydro 2 s 6.8
  #  "Fourth tier" - improvements: -0.40 meV to -0.12 meV
  #     hydro 3 p 5
  #     hydro 3 s 3.3
  #     hydro 5 g 15.6
  #     hydro 4 f 17.6
  #     hydro 4 d 14
  # Further basis functions - -0.08 meV and below
  #     hydro 3 s 2.1
  #     hydro 4 d 11.6
  #     hydro 3 p 16
  #     hydro 2 s 17.2
  
  -----------------------------------------------------------------------
  Completed first pass over input file control.in .
  -----------------------------------------------------------------------
  
  
  -----------------------------------------------------------------------
  Parsing geometry.in (first pass over file, find array dimensions only).
  The contents of geometry.in will be repeated verbatim below
  unless switched off by setting 'verbatim_writeout .false.' .
  in the first line of geometry.in .
  -----------------------------------------------------------------------
  
  #=======================================================
  # FHI-aims file: /ada/ptmp/mpsd/alewis/bulk_water/qmdata/data/geoms/380.in
  # Created using the Atomic Simulation Environment (ASE)
  # Tue Feb 21 11:23:37 2023
  #=======================================================
  lattice_vector 9.7918599999999998 0.0000000000000000 0.0000000000000000
  lattice_vector 0.0000000000000000 9.7918599999999998 0.0000000000000000
  lattice_vector 0.0000000000000000 0.0000000000000000 9.7918599999999998
  atom 10.8363999999999994 21.9798000000000009 -16.7970000000000006 O
  atom 10.7906999999999993 21.7952000000000012 -17.7805000000000000 H
  atom 9.9613800000000001 22.4031999999999982 -16.7223000000000006 H
  atom 18.3042000000000016 21.8462999999999994 6.3093500000000002 O
  atom 19.0698000000000008 21.2369999999999983 6.5877699999999999 H
  atom 18.5808999999999997 22.7347000000000001 6.4008700000000003 H
  atom -8.7303300000000004 -8.3530599999999993 19.7701999999999991 O
  atom -8.4669299999999996 -8.7459399999999992 18.8939999999999984 H
  atom -8.8165800000000001 -9.1435399999999998 20.1481999999999992 H
  atom 17.7647000000000013 21.8046000000000006 -10.6059999999999999 O
  atom 17.7437000000000005 21.6660000000000004 -11.5578000000000003 H
  atom 18.5544000000000011 21.4780000000000015 -10.2081999999999997 H
  atom 2.9563899999999999 -11.4185999999999996 11.9497000000000000 O
  atom 2.8634100000000000 -12.2395999999999994 12.5295000000000005 H
  atom 3.7322899999999999 -11.0289999999999999 12.4107000000000003 H
  atom -1.2116700000000000 4.1841200000000001 13.2670999999999992 O
  atom -1.4925100000000000 4.5316999999999998 14.1559000000000008 H
  atom -1.0523400000000001 5.0324600000000004 12.7524999999999995 H
  atom 4.5563200000000004 13.8181999999999992 -3.3081499999999999 O
  atom 4.3340699999999996 13.4574999999999996 -2.5276299999999998 H
  atom 5.3079999999999998 13.2639999999999993 -3.7052800000000001 H
  atom -6.4891300000000003 -11.9311000000000007 -0.5544460000000000 O
  atom -6.4318099999999996 -11.6722999999999999 0.3986570000000000 H
  atom -5.8274499999999998 -11.3484999999999996 -1.0551299999999999 H
  atom -9.3083200000000001 -29.8535000000000004 11.8915000000000006 O
  atom -8.4214300000000009 -30.1734000000000009 11.8370999999999995 H
  atom -9.3497400000000006 -29.1234999999999999 12.3483000000000001 H
  atom 10.9055000000000000 -29.7307999999999986 17.4919000000000011 O
  atom 11.6234000000000002 -30.2235000000000014 17.9337000000000018 H
  atom 10.2454000000000001 -30.3052999999999990 17.8094000000000001 H
  atom 2.2499300000000000 6.2376199999999997 -25.1087999999999987 O
  atom 1.9122399999999999 5.8664399999999999 -24.3555999999999990 H
  atom 2.8077700000000001 5.5320999999999998 -25.5005999999999986 H
  atom 18.9691000000000010 -0.6220930000000000 5.2561000000000000 O
  atom 18.6579000000000015 -0.6496630000000000 4.3654999999999999 H
  atom 19.9331999999999994 -0.7702070000000000 5.0815299999999999 H
  atom 15.4812999999999992 11.0063999999999993 10.3834999999999997 O
  atom 15.3035999999999994 11.3956999999999997 11.2476000000000003 H
  atom 16.2604000000000006 11.5050000000000008 10.1085999999999991 H
  atom -18.0387999999999984 -24.0796999999999990 -9.7093399999999992 O
  atom -18.6655000000000015 -23.4158000000000008 -9.3788000000000000 H
  atom -17.5329000000000015 -23.5183999999999997 -10.2972999999999999 H
  atom 45.1736999999999966 21.4893999999999998 -4.3972600000000002 O
  atom 46.1073999999999984 21.7704999999999984 -3.9845000000000002 H
  atom 44.9679000000000002 20.6271999999999984 -3.9140500000000000 H
  atom -5.3413199999999996 14.7843000000000000 -6.5919200000000000 O
  atom -4.6204799999999997 15.2957000000000001 -7.1325099999999999 H
  atom -5.2324599999999997 13.8849000000000000 -6.7449899999999996 H
  atom -43.7501000000000033 -4.1851099999999999 -0.5025910000000000 O
  atom -44.1278000000000006 -3.3322699999999998 -0.6007240000000000 H
  atom -44.3239000000000019 -5.1075999999999997 -0.6024380000000000 H
  atom -19.9061999999999983 6.1828900000000004 21.5940000000000012 O
  atom -19.6921999999999997 7.1222500000000002 21.6540999999999997 H
  atom -19.0370999999999988 5.9028400000000003 21.5568999999999988 H
  atom -7.6169700000000002 -7.0992400000000000 -14.0289000000000001 O
  atom -7.8669799999999999 -7.0666500000000001 -14.9038000000000004 H
  atom -6.6818700000000000 -6.9225099999999999 -14.0189000000000004 H
  atom 11.7988000000000000 8.8120899999999995 5.0211399999999999 O
  atom 11.9765999999999995 7.9330699999999998 4.8541299999999996 H
  atom 11.8720999999999997 9.0968499999999999 5.8050499999999996 H
  atom -8.6066500000000001 -5.1650200000000002 -12.4230999999999998 O
  atom -8.2082999999999995 -6.0393600000000003 -12.8178999999999998 H
  atom -8.6198800000000002 -5.1953300000000002 -11.4114000000000004 H
  atom -2.3040200000000000 14.4149999999999991 -11.4947999999999997 O
  atom -3.2733699999999999 14.5915999999999997 -11.1470000000000002 H
  atom -2.5447799999999998 13.6167999999999996 -11.2811000000000003 H
  atom 5.8091100000000004 22.3521999999999998 12.6326999999999998 O
  atom 5.6129199999999999 21.9716999999999985 13.4657000000000000 H
  atom 6.7334399999999999 22.7323999999999984 12.6694999999999993 H
  atom 5.1430400000000001 19.3912000000000013 37.2976000000000028 O
  atom 5.0857299999999999 19.8602999999999987 38.2017999999999986 H
  atom 5.7809499999999998 18.8939999999999984 36.9782000000000011 H
  atom 4.5951100000000000 -0.8739280000000000 13.8526000000000007 O
  atom 3.9678399999999998 -0.6434850000000000 14.2989999999999995 H
  atom 5.0209099999999998 -1.5577200000000000 14.2577999999999996 H
  atom 23.4511000000000003 3.2351999999999999 -10.2193000000000005 O
  atom 22.6005000000000003 3.4080599999999999 -9.8442799999999995 H
  atom 23.8628999999999998 2.6103200000000002 -9.9217499999999994 H
  atom 6.4836999999999998 16.2439000000000000 2.0917500000000002 O
  atom 6.4558999999999997 17.3441000000000010 2.2934999999999999 H
  atom 6.3608000000000002 16.0656999999999996 1.1090899999999999 H
  atom 17.3108000000000004 28.2793999999999990 16.8802999999999983 O
  atom 17.9720000000000013 28.5166000000000004 16.3266999999999989 H
  atom 16.6543999999999990 27.5508999999999986 16.4840000000000018 H
  atom 6.9700699999999998 -0.7063840000000000 22.1050000000000004 O
  atom 6.5858499999999998 -0.1581610000000000 21.5210000000000008 H
  atom 6.6553500000000003 -0.5768500000000000 23.0197000000000003 H
  atom 18.6010999999999989 15.1190999999999995 5.8738299999999999 O
  atom 18.1628000000000007 14.8080999999999996 6.7000599999999997 H
  atom 19.4480000000000004 15.4400999999999993 6.2858599999999996 H
  atom -4.0692399999999997 6.7931200000000000 25.1720000000000006 O
  atom -4.3150599999999999 5.9188299999999998 25.4956999999999994 H
  atom -3.4574900000000000 6.4530900000000004 24.4646000000000008 H
  atom -20.2508000000000017 -1.8790400000000000 9.1516999999999999 O
  atom -20.9098000000000006 -1.8047400000000000 8.4065799999999999 H
  atom -20.6095000000000006 -1.6983600000000001 9.9546399999999995 H
  
  -----------------------------------------------------------------------
  Completed first pass over input file geometry.in .
  -----------------------------------------------------------------------
  

  Basic array size parameters:
  | Number of species                 :        2
  | Number of atoms                   :       96
  | Number of lattice vectors         :        3
  | Max. basis fn. angular momentum   :        2
  | Max. atomic/ionic basis occupied n:        2
  | Max. number of basis fn. types    :        2
  | Max. radial fns per species/type  :        3
  | Max. logarithmic grid size        :     1301
  | Max. radial integration grid size :       36
  | Max. angular integration grid size:      302
  | Max. angular grid division number :        8
  | Radial grid for Hartree potential :     1301
  | Number of spin channels           :        1

------------------------------------------------------------
          Reading file control.in.
------------------------------------------------------------
  XC: Using Perdew-Wang parametrisation of Ceperley-Alder LDA.
  Spin treatment: No spin polarisation.
  Non-relativistic treatment of kinetic energy.
  Charge =   0.000000E+00: Neutral system requested explicitly.
  DFPT calculation will begin after the DFT/HF calculation.
  Convergence accuracy of self-consistent charge density:  0.1000E-05
  Found k-point grid:         1         1         1
  Threshold value for wave function integration:  0.1000E-07
 
  Reading configuration options for species H                   .
  | Found nuclear charge :   1.0000
  | Found atomic mass :    1.00794000000000      amu
  | Found l_max for Hartree potential  :   4
  | Found cutoff potl. onset [A], width [A], scale factor :    3.50000    1.50000    1.00000
  | Threshold for basis-dependent cutoff potential is   0.100000E-03
  | Found data for basic radial integration grid :    24 points, outermost radius =    5.000 A
  | Found multiplier for basic radial grid :   1
  | Found angular grid specification: user-specified.
  | Specified grid contains     5 separate shells.
  | Check grid settings after all constraints further below.
  | Found free-atom valence shell :  1 s   1.000
  | No ionic wave fns used. Skipping ion_occ.
  | Found hydrogenic basis function :  2 s   2.100
  | Found hydrogenic basis function :  2 p   3.500
  Species H                   : Missing cutoff potential type.
  Defaulting to exp(1/x)/(1-x)^2 type cutoff potential.
  Species H : No 'logarithmic' tag. Using default grid for free atom:
  | Default logarithmic grid data [bohr] : 0.1000E-03 0.1000E+03 0.1012E+01
  Species H : On-site basis accuracy parameter (for Gram-Schmidt orthonormalisation) not specified.
  Using default value basis_acc =  0.1000000E-03.
  Species H                   : Using default innermost maximum threshold i_radial=  2 for radial functions.
  Species H                   : Default cutoff onset for free atom density etc. : 0.35000000E+01 AA.
  Species H                   : Basic radial grid will be enhanced according to radial_multiplier =   1, to contain    24 grid points.
 
  Reading configuration options for species O                   .
  | Found nuclear charge :   8.0000
  | Found atomic mass :    15.9994000000000      amu
  | Found l_max for Hartree potential  :   4
  | Found cutoff potl. onset [A], width [A], scale factor :    3.50000    1.50000    1.00000
  | Threshold for basis-dependent cutoff potential is   0.100000E-03
  | Found data for basic radial integration grid :    36 points, outermost radius =    5.000 A
  | Found multiplier for basic radial grid :   1
  | Found angular grid specification: user-specified.
  | Specified grid contains     5 separate shells.
  | Check grid settings after all constraints further below.
  | Found free-atom valence shell :  2 s   2.000
  | Found free-atom valence shell :  2 p   4.000
  | No ionic wave fns used. Skipping ion_occ.
  | No ionic wave fns used. Skipping ion_occ.
  | Found hydrogenic basis function :  2 p   1.800
  | Found hydrogenic basis function :  3 d   7.600
  | Found hydrogenic basis function :  3 s   6.400
  Species O                   : Missing cutoff potential type.
  Defaulting to exp(1/x)/(1-x)^2 type cutoff potential.
  Species O : No 'logarithmic' tag. Using default grid for free atom:
  | Default logarithmic grid data [bohr] : 0.1000E-03 0.1000E+03 0.1012E+01
  Species O : On-site basis accuracy parameter (for Gram-Schmidt orthonormalisation) not specified.
  Using default value basis_acc =  0.1000000E-03.
  Species O                   : Using default innermost maximum threshold i_radial=  2 for radial functions.
  Species O                   : Default cutoff onset for free atom density etc. : 0.35000000E+01 AA.
  Species O                   : Basic radial grid will be enhanced according to radial_multiplier =   1, to contain    36 grid points.
 
  Finished reading input file 'control.in'.
 
------------------------------------------------------------


------------------------------------------------------------
          Reading geometry description geometry.in.
------------------------------------------------------------
  | The smallest distance between any two atoms is         0.80364457 AA.
  | The first atom of this pair is atom number                     73 .
  | The second atom of this pair is atom number                    74 .
  | Wigner-Seitz cell of the first atom image           0     0     0 .
  | (The Wigner-Seitz cell of the second atom is 0 0 0  by definition.)

  Symmetry information by spglib:
  | Precision set to  0.1E-04
  | Number of Operations  : 1
  | Space group           : 1
  | International         : P1       F
  | Schoenflies           : C1^1
  Input structure read successfully.
  The structure contains       96 atoms,  and a total of        320.000 electrons.

  Input geometry:
  | Unit cell:
  |        9.79186000        0.00000000        0.00000000
  |        0.00000000        9.79186000        0.00000000
  |        0.00000000        0.00000000        9.79186000
  | Atomic structure:
  |       Atom                x [A]            y [A]            z [A]
  |    1: Species O            10.83640000       21.97980000      -16.79700000
  |    2: Species H            10.79070000       21.79520000      -17.78050000
  |    3: Species H             9.96138000       22.40320000      -16.72230000
  |    4: Species O            18.30420000       21.84630000        6.30935000
  |    5: Species H            19.06980000       21.23700000        6.58777000
  |    6: Species H            18.58090000       22.73470000        6.40087000
  |    7: Species O            -8.73033000       -8.35306000       19.77020000
  |    8: Species H            -8.46693000       -8.74594000       18.89400000
  |    9: Species H            -8.81658000       -9.14354000       20.14820000
  |   10: Species O            17.76470000       21.80460000      -10.60600000
  |   11: Species H            17.74370000       21.66600000      -11.55780000
  |   12: Species H            18.55440000       21.47800000      -10.20820000
  |   13: Species O             2.95639000      -11.41860000       11.94970000
  |   14: Species H             2.86341000      -12.23960000       12.52950000
  |   15: Species H             3.73229000      -11.02900000       12.41070000
  |   16: Species O            -1.21167000        4.18412000       13.26710000
  |   17: Species H            -1.49251000        4.53170000       14.15590000
  |   18: Species H            -1.05234000        5.03246000       12.75250000
  |   19: Species O             4.55632000       13.81820000       -3.30815000
  |   20: Species H             4.33407000       13.45750000       -2.52763000
  |   21: Species H             5.30800000       13.26400000       -3.70528000
  |   22: Species O            -6.48913000      -11.93110000       -0.55444600
  |   23: Species H            -6.43181000      -11.67230000        0.39865700
  |   24: Species H            -5.82745000      -11.34850000       -1.05513000
  |   25: Species O            -9.30832000      -29.85350000       11.89150000
  |   26: Species H            -8.42143000      -30.17340000       11.83710000
  |   27: Species H            -9.34974000      -29.12350000       12.34830000
  |   28: Species O            10.90550000      -29.73080000       17.49190000
  |   29: Species H            11.62340000      -30.22350000       17.93370000
  |   30: Species H            10.24540000      -30.30530000       17.80940000
  |   31: Species O             2.24993000        6.23762000      -25.10880000
  |   32: Species H             1.91224000        5.86644000      -24.35560000
  |   33: Species H             2.80777000        5.53210000      -25.50060000
  |   34: Species O            18.96910000       -0.62209300        5.25610000
  |   35: Species H            18.65790000       -0.64966300        4.36550000
  |   36: Species H            19.93320000       -0.77020700        5.08153000
  |   37: Species O            15.48130000       11.00640000       10.38350000
  |   38: Species H            15.30360000       11.39570000       11.24760000
  |   39: Species H            16.26040000       11.50500000       10.10860000
  |   40: Species O           -18.03880000      -24.07970000       -9.70934000
  |   41: Species H           -18.66550000      -23.41580000       -9.37880000
  |   42: Species H           -17.53290000      -23.51840000      -10.29730000
  |   43: Species O            45.17370000       21.48940000       -4.39726000
  |   44: Species H            46.10740000       21.77050000       -3.98450000
  |   45: Species H            44.96790000       20.62720000       -3.91405000
  |   46: Species O            -5.34132000       14.78430000       -6.59192000
  |   47: Species H            -4.62048000       15.29570000       -7.13251000
  |   48: Species H            -5.23246000       13.88490000       -6.74499000
  |   49: Species O           -43.75010000       -4.18511000       -0.50259100
  |   50: Species H           -44.12780000       -3.33227000       -0.60072400
  |   51: Species H           -44.32390000       -5.10760000       -0.60243800
  |   52: Species O           -19.90620000        6.18289000       21.59400000
  |   53: Species H           -19.69220000        7.12225000       21.65410000
  |   54: Species H           -19.03710000        5.90284000       21.55690000
  |   55: Species O            -7.61697000       -7.09924000      -14.02890000
  |   56: Species H            -7.86698000       -7.06665000      -14.90380000
  |   57: Species H            -6.68187000       -6.92251000      -14.01890000
  |   58: Species O            11.79880000        8.81209000        5.02114000
  |   59: Species H            11.97660000        7.93307000        4.85413000
  |   60: Species H            11.87210000        9.09685000        5.80505000
  |   61: Species O            -8.60665000       -5.16502000      -12.42310000
  |   62: Species H            -8.20830000       -6.03936000      -12.81790000
  |   63: Species H            -8.61988000       -5.19533000      -11.41140000
  |   64: Species O            -2.30402000       14.41500000      -11.49480000
  |   65: Species H            -3.27337000       14.59160000      -11.14700000
  |   66: Species H            -2.54478000       13.61680000      -11.28110000
  |   67: Species O             5.80911000       22.35220000       12.63270000
  |   68: Species H             5.61292000       21.97170000       13.46570000
  |   69: Species H             6.73344000       22.73240000       12.66950000
  |   70: Species O             5.14304000       19.39120000       37.29760000
  |   71: Species H             5.08573000       19.86030000       38.20180000
  |   72: Species H             5.78095000       18.89400000       36.97820000
  |   73: Species O             4.59511000       -0.87392800       13.85260000
  |   74: Species H             3.96784000       -0.64348500       14.29900000
  |   75: Species H             5.02091000       -1.55772000       14.25780000
  |   76: Species O            23.45110000        3.23520000      -10.21930000
  |   77: Species H            22.60050000        3.40806000       -9.84428000
  |   78: Species H            23.86290000        2.61032000       -9.92175000
  |   79: Species O             6.48370000       16.24390000        2.09175000
  |   80: Species H             6.45590000       17.34410000        2.29350000
  |   81: Species H             6.36080000       16.06570000        1.10909000
  |   82: Species O            17.31080000       28.27940000       16.88030000
  |   83: Species H            17.97200000       28.51660000       16.32670000
  |   84: Species H            16.65440000       27.55090000       16.48400000
  |   85: Species O             6.97007000       -0.70638400       22.10500000
  |   86: Species H             6.58585000       -0.15816100       21.52100000
  |   87: Species H             6.65535000       -0.57685000       23.01970000
  |   88: Species O            18.60110000       15.11910000        5.87383000
  |   89: Species H            18.16280000       14.80810000        6.70006000
  |   90: Species H            19.44800000       15.44010000        6.28586000
  |   91: Species O            -4.06924000        6.79312000       25.17200000
  |   92: Species H            -4.31506000        5.91883000       25.49570000
  |   93: Species H            -3.45749000        6.45309000       24.46460000
  |   94: Species O           -20.25080000       -1.87904000        9.15170000
  |   95: Species H           -20.90980000       -1.80474000        8.40658000
  |   96: Species H           -20.60950000       -1.69836000        9.95464000

  Lattice parameters for 3D lattice (in Angstroms) :     9.791860    9.791860    9.791860
  Angle(s) between unit vectors (in degrees)       :    90.000000   90.000000   90.000000


  Quantities derived from the lattice vectors (in Angstrom^-1):
  | Reciprocal lattice vector 1:  0.641674  0.000000  0.000000
  | Reciprocal lattice vector 2:  0.000000  0.641674  0.000000
  | Reciprocal lattice vector 3:  0.000000  0.000000  0.641674
  | Unit cell volume                               :   0.938849E+03  Angstrom^3

  Fractional coordinates:
                         L1                L2                L3
       atom_frac         1.10667432        2.24470121       -1.71540443  O
       atom_frac         1.10200718        2.22584882       -1.81584500  H
       atom_frac         1.01731234        2.28794121       -1.70777564  H
       atom_frac         1.86932820        2.23106744        0.64434643  O
       atom_frac         1.94751559        2.16884228        0.67278025  H
       atom_frac         1.89758636        2.32179586        0.65369297  H
       atom_frac        -0.89159057       -0.85306162        2.01904439  O
       atom_frac        -0.86469067       -0.89318475        1.92956190  H
       atom_frac        -0.90039890       -0.93378990        2.05764788  H
       atom_frac         1.81423141        2.22680880       -1.08314457  O
       atom_frac         1.81208677        2.21265418       -1.18034776  H
       atom_frac         1.89488003        2.19345456       -1.04251899  H
       atom_frac         0.30192323       -1.16613187        1.22037080  O
       atom_frac         0.29242759       -1.24997702        1.27958325  H
       atom_frac         0.38116252       -1.12634372        1.26745072  H
       atom_frac        -0.12374258        0.42730595        1.35491112  O
       atom_frac        -0.15242354        0.46280278        1.44568039  H
       atom_frac        -0.10747090        0.51394321        1.30235726  H
       atom_frac         0.46531711        1.41119256       -0.33784695  O
       atom_frac         0.44261969        1.37435584       -0.25813584  H
       atom_frac         0.54208291        1.35459453       -0.37840410  H
       atom_frac        -0.66270657       -1.21847126       -0.05662315  O
       atom_frac        -0.65685273       -1.19204114        0.04071310  H
       atom_frac        -0.59513208       -1.15897286       -0.10775583  H
       atom_frac        -0.95061817       -3.04880789        1.21442709  O
       atom_frac        -0.86004395       -3.08147788        1.20887145  H
       atom_frac        -0.95484821       -2.97425617        1.26107808  H
       atom_frac         1.11373120       -3.03627707        1.78637154  O
       atom_frac         1.18704720       -3.08659438        1.83149065  H
       atom_frac         1.04631806       -3.09494825        1.81879643  H
       atom_frac         0.22977555        0.63702095       -2.56425235  O
       atom_frac         0.19528874        0.59911396       -2.48733131  H
       atom_frac         0.28674532        0.56496927       -2.60426518  H
       atom_frac         1.93723154       -0.06353165        0.53678259  O
       atom_frac         1.90545004       -0.06634725        0.44582950  H
       atom_frac         2.03569087       -0.07865789        0.51895452  H
       atom_frac         1.58103772        1.12403568        1.06042162  O
       atom_frac         1.56288999        1.16379319        1.14866838  H
       atom_frac         1.66060381        1.17495552        1.03234728  H
       atom_frac        -1.84222405       -2.45915485       -0.99157259  O
       atom_frac        -1.90622619       -2.39135363       -0.95781598  H
       atom_frac        -1.79055869       -2.40183173       -1.05161839  H
       atom_frac         4.61339317        2.19461880       -0.44907301  O
       atom_frac         4.70874788        2.22332631       -0.40691963  H
       atom_frac         4.59237571        2.10656607       -0.39972487  H
       atom_frac        -0.54548574        1.50985615       -0.67320407  O
       atom_frac        -0.47186949        1.56208320       -0.72841217  H
       atom_frac        -0.53436834        1.41800434       -0.68883644  H
       atom_frac        -4.46800710       -0.42740705       -0.05132743  O
       atom_frac        -4.50657996       -0.34031022       -0.06134932  H
       atom_frac        -4.52660679       -0.52161693       -0.06152437  H
       atom_frac        -2.03293348        0.63143162        2.20530114  O
       atom_frac        -2.01107859        0.72736436        2.21143889  H
       atom_frac        -1.94417608        0.60283133        2.20151228  H
       atom_frac        -0.77788796       -0.72501445       -1.43271043  O
       atom_frac        -0.80342039       -0.72168618       -1.52206016  H
       atom_frac        -0.68239027       -0.70696579       -1.43168918  H
       atom_frac         1.20496004        0.89994036        0.51278715  O
       atom_frac         1.22311798        0.81016988        0.49573115  H
       atom_frac         1.21244585        0.92902166        0.59284446  H
       atom_frac        -0.87895967       -0.52748099       -1.26871708  O
       atom_frac        -0.83827792       -0.61677352       -1.30903628  H
       atom_frac        -0.88031079       -0.53057642       -1.16539656  H
       atom_frac        -0.23529952        1.47214115       -1.17391384  O
       atom_frac        -0.33429502        1.49017653       -1.13839454  H
       atom_frac        -0.25988729        1.39062446       -1.15208959  H
       atom_frac         0.59325909        2.28273280        1.29012261  O
       atom_frac         0.57322306        2.24387399        1.37519327  H
       atom_frac         0.68765689        2.32156097        1.29388084  H
       atom_frac         0.52523627        1.98033877        3.80904139  O
       atom_frac         0.51938345        2.02824591        3.90138339  H
       atom_frac         0.59038324        1.92956190        3.77642246  H
       atom_frac         0.46927856       -0.08925046        1.41470568  O
       atom_frac         0.40521821       -0.06571632        1.46029457  H
       atom_frac         0.51276366       -0.15908316        1.45608699  H
       atom_frac         2.39495867        0.33039688       -1.04365258  O
       atom_frac         2.30809060        0.34805032       -1.00535343  H
       atom_frac         2.43701401        0.26658061       -1.01326510  H
       atom_frac         0.66215203        1.65891873        0.21362131  O
       atom_frac         0.65931294        1.77127737        0.23422516  H
       atom_frac         0.64960079        1.64071994        0.11326653  H
       atom_frac         1.76787658        2.88805191        1.72391149  O
       atom_frac         1.83540206        2.91227612        1.66737474  H
       atom_frac         1.70084131        2.81365338        1.68343910  H
       atom_frac         0.71182288       -0.07213992        2.25748734  O
       atom_frac         0.67258417       -0.01615229        2.19784597  H
       atom_frac         0.67968190       -0.05891118        2.35090167  H
       atom_frac         1.89964930        1.54404781        0.59986867  O
       atom_frac         1.85488763        1.51228674        0.68424794  H
       atom_frac         1.98613951        1.57683014        0.64194750  H
       atom_frac        -0.41557375        0.69375175        2.57070669  O
       atom_frac        -0.44067828        0.60446432        2.60376476  H
       atom_frac        -0.35309839        0.65902597        2.49846301  H
       atom_frac        -2.06812597       -0.19189817        0.93462325  O
       atom_frac        -2.13542677       -0.18431023        0.85852739  H
       atom_frac        -2.10475844       -0.17344611        1.01662401  H

 
  Finished reading input file 'geometry.in'.
 

 
  Consistency checks for stacksize environment parameter are next.
 
  | Maximum stacksize for task 0: unlimited
  | Maximum stacksize for task 1: unlimited
  | Maximum stacksize for task 2: unlimited
  | Maximum stacksize for task 3: unlimited
  | Maximum stacksize for task 4: unlimited
  | Maximum stacksize for task 5: unlimited
  | Maximum stacksize for task 6: unlimited
  | Maximum stacksize for task 7: unlimited
  | Maximum stacksize for task 8: unlimited
  | Maximum stacksize for task 9: unlimited
  | Maximum stacksize for task 10: unlimited
  | Maximum stacksize for task 11: unlimited
  | Maximum stacksize for task 12: unlimited
  | Maximum stacksize for task 13: unlimited
  | Maximum stacksize for task 14: unlimited
  | Maximum stacksize for task 15: unlimited
  | Maximum stacksize for task 16: unlimited
  | Maximum stacksize for task 17: unlimited
  | Current stacksize for task 0: unlimited
  | Current stacksize for task 1: unlimited
  | Current stacksize for task 2: unlimited
  | Current stacksize for task 3: unlimited
  | Current stacksize for task 4: unlimited
  | Current stacksize for task 5: unlimited
  | Current stacksize for task 6: unlimited
  | Current stacksize for task 7: unlimited
  | Current stacksize for task 8: unlimited
  | Current stacksize for task 9: unlimited
  | Current stacksize for task 10: unlimited
  | Current stacksize for task 11: unlimited
  | Current stacksize for task 12: unlimited
  | Current stacksize for task 13: unlimited
  | Current stacksize for task 14: unlimited
  | Current stacksize for task 15: unlimited
  | Current stacksize for task 16: unlimited
  | Current stacksize for task 17: unlimited
 
  Consistency checks for the contents of control.in are next.
 
  MPI_IN_PLACE appears to work with this MPI implementation.
  | Keeping use_mpi_in_place .true. (see manual).
  Explicit treatment of the Coulomb operator is needed, but the RI method is not specified.
  Coulomb operator: Defaulting to 'LVL fast' resolution of identity - RI_type = LVL_fast
  Species H: Using default value for prodbas_acc =   1.000000E-06.
  Species H: Using default value max_l_prodbas =     6.
  Species O: Using default value for prodbas_acc =   1.000000E-06.
  Species O: Using default value max_l_prodbas =     6.
  Target number of points in a grid batch is not set.  Since GPU acceleration is enabled, defaulting to  200
  Method for grid partitioning is not set. Defaulting to parallel hash+maxmin partitioning.
  Batch size limit is not set. Defaulting to    200
  By default, will store active basis functions for each batch.
  If in need of memory, prune_basis_once .false. can be used to disable this option.
  communication_type for Hartree potential was not specified.
  Defaulting to calc_hartree .
  Defaulting to Pulay charge density mixer.
  Pulay mixer: Number of relevant iterations not set.
  Defaulting to    8 iterations.
  Pulay mixer: Number of initial linear mixing iterations not set.
  Defaulting to    0 iterations.
  Work space size for distributed Hartree potential not set.
  Defaulting to   0.200000E+03 MB.
  Mixing parameter for charge density mixing has not been set.
  Using default: charge_mix_param =     0.0500.
  The mixing parameter will be adjusted in iteration number     2 of the first full s.c.f. cycle only.
  Algorithm-dependent basis array size parameters:
  | n_max_pulay                         :        8
  Maximum number of self-consistency iterations not provided.
  Presetting  1000 iterations.
  Presetting      1001 iterations before the initial mixing cycle
  is restarted anyway using the sc_init_iter criterion / keyword.
  Presetting a factor      1.000 between actual scf density residual
  and density convergence criterion sc_accuracy_rho below which sc_init_iter
  takes no effect.
  Calculation of forces was not defined in control.in. No forces will be calculated.
  Geometry relaxation not requested: no relaxation will be performed.
  No accuracy limit for integral partition fn. given. Defaulting to  0.1000E-14.
  No occupation type (smearing scheme) given. Defaulting to Gaussian broadening, width =  0.1000E-01 eV.
  The width will be adjusted in iteration number     2 of the first full s.c.f. cycle only.
  S.C.F. convergence parameters will be adjusted in iteration number     2 of the first full s.c.f. cycle only.
  No accuracy for occupation numbers given. Defaulting to  0.1000E-12.
  No threshold value for occupation numbers given. Defaulting to  0.0000E+00.
  No accuracy for fermi level given. Defaulting to  0.1000E-19.
  Maximum # of iterations to find E_F not set. Defaulting to  200.
  Preferred method for the eigenvalue solver ('KS_method') not specified in 'control.in'.
  Calling BLACS routine to test compilation state
  Since ScaLAPACK support is enabled, defaulting to ELPA (via ELSI).
  Will not use alltoall communication since running on < 1024 CPUs.
  Threshold for basis singularities not set.
  Default threshold for basis singularities:  0.1000E-04
  partition_type (choice of integration weights) for integrals was not specified.
  | Using a version of the partition function of Stratmann and coworkers ('stratmann_sparse').
  | At each grid point, the set of atoms used to build the partition table is smoothly restricted to
  | only those atoms whose free-atom density would be non-zero at that grid point.
  Partitioning for Hartree potential was not defined. Using partition_type for integrals.
  | Adjusted default value of keyword multip_moments_threshold to:       0.10000000E-11
  | This value may affect high angular momentum components of the Hartree potential in periodic systems.
  Angular momentum expansion for Kerker preconditioner not set explicitly.
  | Using default value of   0
  No explicit requirement for turning off preconditioner.
  | By default, it will be turned off when the charge convergence reaches
  | sc_accuracy_rho  =   0.100000E-05
  No special mixing parameter while Kerker preconditioner is on.
  Using default: charge_mix_param =     0.0500.
  Threshold for auxiliary basis singularities not set.
  Default threshold for auxiliary basis singularities:  0.1000E-04
  No q(lm)/r^(l+1) cutoff set for long-range Hartree potential.
  | Using default value of  0.100000E-09 .
  | Verify using the multipole_threshold keyword.
  Defaulting to new monopole extrapolation.
  Density update method: automatic selection selected.
  Using density matrix based charge density update.
  Using density matrix based charge density update.
  Using packed matrix style: index .
  Defaulting to use time-reversal symmetry for k-point grid.
  Charge integration errors on the 3D integration grid will be compensated
  by explicit normalization and distribution of residual charges.
  Use the "compensate_multipole_errors" flag to change this behaviour.
  Default to 1D ("use_logsbt") integrations for auxiliary 2-center integrals.
  Default onset of logarithmic r-grid for SBT is -38.000000000000
  Default onset of logarithmic k-grid for SBT is -25.000000000000
  Default range of logarithmic r- and k-grid for SBT is  45.000000000000
  Default number of logarithmic r- and k-grid for SBT is   4096
  Default of use_2d_corr is to use the efficient 2D distribution where possible
 
  Consistency checks for the contents of geometry.in are next.
 

  Range separation radius for Ewald summation (hartree_convergence_parameter):      2.94904141 bohr.
  Number of empty states per atom not set in control.in .
  | Since you are using a method that relies on the unoccupied spectrum
  | (MP2,GW,RPA et al.), will use the full Hamiltonian size (see below)
  | as the max. possible number of states (occupied plus empty).

  Structure-dependent array size parameters: 
  | Maximum number of distinct radial functions  :        9
  | Maximum number of basis functions            :      768
  | Number of Kohn-Sham states (occupied + empty):      768
------------------------------------------------------------

  Performing system and environment tests:
  | Environment variable OMP_NUM_THREADS correctly set to 1.
  | Checking for ScaLAPACK...
  | Testing pdtran()...
  | All pdtran() tests passed.
CUDA runtime version: 11060
CUDA driver version: 11060
  Initializing GPUs...

  Number of GPUs available to MPI task         0 :   1
  Number of GPUs available to MPI task         1 :   1
  Number of GPUs available to MPI task         2 :   1
  Number of GPUs available to MPI task         3 :   1
  Number of GPUs available to MPI task         4 :   1
  Number of GPUs available to MPI task         5 :   1
  Number of GPUs available to MPI task         6 :   1
  Number of GPUs available to MPI task         7 :   1
  Number of GPUs available to MPI task         8 :   1
  Number of GPUs available to MPI task         9 :   1
  Number of GPUs available to MPI task        10 :   1
  Number of GPUs available to MPI task        11 :   1
  Number of GPUs available to MPI task        12 :   1
  Number of GPUs available to MPI task        13 :   1
  Number of GPUs available to MPI task        14 :   1
  Number of GPUs available to MPI task        15 :   1
  Number of GPUs available to MPI task        16 :   1
  Number of GPUs available to MPI task        17 :   1

  | MPI task         0, GPU activated = T, Device Name = NVIDIA A100-SXM4-80GB
  | MPI task         1, GPU activated = T, Device Name = NVIDIA A100-SXM4-80GB
  | MPI task         2, GPU activated = T, Device Name = NVIDIA A100-SXM4-80GB
  | MPI task         3, GPU activated = T, Device Name = NVIDIA A100-SXM4-80GB
  | MPI task         4, GPU activated = T, Device Name = NVIDIA A100-SXM4-80GB
  | MPI task         5, GPU activated = T, Device Name = NVIDIA A100-SXM4-80GB
  | MPI task         6, GPU activated = T, Device Name = NVIDIA A100-SXM4-80GB
  | MPI task         7, GPU activated = T, Device Name = NVIDIA A100-SXM4-80GB
  | MPI task         8, GPU activated = T, Device Name = NVIDIA A100-SXM4-80GB
  | MPI task         9, GPU activated = T, Device Name = NVIDIA A100-SXM4-80GB
  | MPI task        10, GPU activated = T, Device Name = NVIDIA A100-SXM4-80GB
  | MPI task        11, GPU activated = T, Device Name = NVIDIA A100-SXM4-80GB
  | MPI task        12, GPU activated = T, Device Name = NVIDIA A100-SXM4-80GB
  | MPI task        13, GPU activated = T, Device Name = NVIDIA A100-SXM4-80GB
  | MPI task        14, GPU activated = T, Device Name = NVIDIA A100-SXM4-80GB
  | MPI task        15, GPU activated = T, Device Name = NVIDIA A100-SXM4-80GB
  | MPI task        16, GPU activated = T, Device Name = NVIDIA A100-SXM4-80GB
  | MPI task        17, GPU activated = T, Device Name = NVIDIA A100-SXM4-80GB

------------------------------------------------------------
          Preparing all fixed parts of the calculation.
------------------------------------------------------------
  Determining machine precision:
    2.225073858507201E-308
  Setting up grids for atomic and cluster calculations.

  Creating wave function, potential, and density for free atoms.
  Runtime choices for atomic solver:
  | atomic solver xc        : PW-LDA
  | compute density gradient: 0
  | compute kinetic density : F

  Species: H

  List of occupied orbitals and eigenvalues:
    n    l              occ      energy [Ha]    energy [eV]
    1    0           1.0000        -0.232375        -6.3233


  Species: O

  List of occupied orbitals and eigenvalues:
    n    l              occ      energy [Ha]    energy [eV]
    1    0           2.0000       -18.757744      -510.4242
    2    0           2.0000        -0.870917       -23.6989
    2    1           4.0000        -0.337950        -9.1961


  Adding cutoff potential to free-atom effective potential.
  Creating fixed part of basis set: Ionic, confined, hydrogenic.
 
  H                    hydrogenic:
 
  List of hydrogenic basis orbitals: 
    n    l      effective z      eigenvalue [eV]  inner max. [A]     outer max. [A]     outer radius [A]   
    2    0         2.100000       -14.9728           0.193243           1.317208           4.696947
    2    1         3.500000       -41.6669           0.602369           0.602369           3.862494
 
 
  O                    hydrogenic:
 
  List of hydrogenic basis orbitals: 
    n    l      effective z      eigenvalue [eV]  inner max. [A]     outer max. [A]     outer radius [A]   
    2    1         1.800000       -10.9749           1.164242           1.164242           4.691341
    3    2         7.600000       -87.3180           0.624125           0.624125           3.413946
    3    0         6.400000       -61.9207           0.061167           1.081902           4.151495
 
  Creating atomic-like basis functions for current effective potential.

  Species H                   :

  List of atomic basis orbitals and eigenvalues:
    n    l      energy [Ha]    energy [eV]    outer radius [A]
    1    0        -0.232375        -6.3233       4.696947


  Species O                   :

  List of atomic basis orbitals and eigenvalues:
    n    l      energy [Ha]    energy [eV]    outer radius [A]
    1    0       -18.757744      -510.4242       1.830144
    2    0        -0.870917       -23.6989       4.578029
    2    1        -0.337950        -9.1961       4.634338

  Assembling full basis from fixed parts.
  | Species H :   atomic orbital   1 s accepted.
  | Species H :    hydro orbital   2 s accepted.
  | Species H :    hydro orbital   2 p accepted.
  | Species O :   atomic orbital   1 s accepted.
  | Species O :    hydro orbital   3 s accepted.
  | Species O :   atomic orbital   2 s accepted.
  | Species O :   atomic orbital   2 p accepted.
  | Species O :    hydro orbital   2 p accepted.
  | Species O :    hydro orbital   3 d accepted.
 
  Basis size parameters after reduction:
  | Total number of radial functions:        9
  | Total number of basis functions :      768
 
  Per-task memory consumption for arrays in subroutine allocate_ext:
  |           2.268304MB.
  Testing on-site integration grid accuracy.
  |  Species  Function  <phi|h_atom|phi> (log., in eV)  <phi|h_atom|phi> (rad., in eV)
           1        1                 -6.3245358373                 -6.3232436907
           1        2                 14.1326137532                 14.1384481100
           1        3                 25.3627025200                 25.3628451197
           2        4               -510.4241781764               -510.4240769407
           2        5                 14.9072942213                 14.9072945271
           2        6                -21.2004736474                -21.2005650551
           2        7                 -9.1962086505                 -9.1963509834
           2        8                  8.1896755006                  8.1702200081
           2        9                 45.7920584937                 45.7920228520

  Preparing densities etc. for the partition functions (integrals / Hartree potential).

  Preparations completed.
  max(cpu_time)          :      0.068 s.
  Wall clock time (cpu1) :      0.062 s.
------------------------------------------------------------

  Initializing index lists of integration centers etc. from given atomic structure:
  Mapping all atomic coordinates to central unit cell.

  Initializing the k-points
  Using symmetry for reducing the k-points
  | k-points reduced from:        1 to        1
  | Number of k-points                             :         1
  | Consuming          0 KiB for k_phase_exx.
  The eigenvectors in the calculations are REAL.
  | Number of basis functions in the Hamiltonian integrals :      4501
  | Number of basis functions in a single unit cell        :       768
  | Number of centers in hartree potential         :      2655
  | Number of centers in hartree multipole         :      1984
  | Number of centers in electron density summation:      1539
  | Number of centers in basis integrals           :      1647
  | Number of centers in integrals                 :       694
  | Number of centers in hamiltonian               :      1539
  | Consuming          0 KiB for k_phase.
  | Number of super-cells (origin) [n_cells]                     :         125
  | Number of super-cells (after PM_index) [n_cells]             :          28
  | Number of super-cells in hamiltonian [n_cells_in_hamiltonian]:          28
  | Size of matrix packed + index [n_hamiltonian_matrix_size] :      807947
  | Size of matrix packed + index (no_symmetry):     1615125

------------------------------------------------------------
          Begin self-consistency loop: Initialization.

          Date     :  20230221, Time     :  122528.547
------------------------------------------------------------
  | Estimated reciprocal-space cutoff momentum G_max:         3.20734912 bohr^-1 .
  | Reciprocal lattice points for long-range Hartree potential:    3574
  Using simple linear distribution as default method for k-point parallelism.
  * Using 18 tasks for Scalapack Eigenvalue solver.
  Detailed listing of tasks and assigned k-points:
   Task     0 k-point     1 on adag039
   Task     1 k-point     1 on adag039
   Task     2 k-point     1 on adag039
   Task     3 k-point     1 on adag039
   Task     4 k-point     1 on adag039
   Task     5 k-point     1 on adag039
   Task     6 k-point     1 on adag039
   Task     7 k-point     1 on adag039
   Task     8 k-point     1 on adag039
   Task     9 k-point     1 on adag039
   Task    10 k-point     1 on adag039
   Task    11 k-point     1 on adag039
   Task    12 k-point     1 on adag039
   Task    13 k-point     1 on adag039
   Task    14 k-point     1 on adag039
   Task    15 k-point     1 on adag039
   Task    16 k-point     1 on adag039
   Task    17 k-point     1 on adag039
  K-point:     1 Tasks:    18 split into      6 X      3 BLACS grid
  Calculating block size based on n_basis =          768  max_nprow =            6  max_npcol =            3
  ScaLAPACK block size set to:           16
  Allocating        0.250 MB for ovlp
  Allocating        0.250 MB for ham
  Allocating        0.250 MB for eigenvec
  Required Scalapack workspace - INTEGER:            1  REAL:             1
  Partitioning the integration grid into batches with parallel hashing+maxmin method.
  | Number of batches:     4202
  | Maximal batch size:     200
  | Minimal batch size:      99
  | Average batch size:     121.268
  | Standard deviation of batch sizes:      21.851

  Integration load balanced across    18 MPI tasks.
  Work distribution over tasks is as follows:
  Task     0 has      28353 integration points.
  Task     1 has      28315 integration points.
  Task     2 has      28284 integration points.
  Task     3 has      28283 integration points.
  Task     4 has      28264 integration points.
  Task     5 has      28267 integration points.
  Task     6 has      28325 integration points.
  Task     7 has      28270 integration points.
  Task     8 has      28297 integration points.
  Task     9 has      28408 integration points.
  Task    10 has      28312 integration points.
  Task    11 has      28272 integration points.
  Task    12 has      28437 integration points.
  Task    13 has      28306 integration points.
  Task    14 has      28324 integration points.
  Task    15 has      28245 integration points.
  Task    16 has      28297 integration points.
  Task    17 has      28309 integration points.
  Initializing partition tables, free-atom densities, potentials, etc. across the integration grid (initialize_grid_storage).
  | initialize_grid_storage: Actual outermost partition radius vs. multipole_radius_free
  | (-- VB: in principle, multipole_radius_free should be larger, hence this output)
  | Species        1: Confinement radius =              4.999999999999999 AA, multipole_radius_free =              5.054417573612229 AA.
  | Species        1: outer_partition_radius set to              5.054417573612229 AA .
  | Species        2: Confinement radius =              4.999999999999999 AA, multipole_radius_free =              5.048384829883283 AA.
  | Species        2: outer_partition_radius set to              5.048384829883283 AA .
  | The sparse table of interatomic distances needs       5618.70 kbyte instead of     21700.87 kbyte of memory.
  | Net number of integration points:   509568
  | of which are non-zero points    :   405058
  | Numerical average free-atom electrostatic potential    :     -5.55071080 eV
  Renormalizing the initial density to the exact electron count on the 3D integration grid.
  | Initial density: Formal number of electrons (from input files) :     320.0000000000
  | Integrated number of electrons on 3D grid     :     319.9977279253
  | Charge integration error                      :      -0.0022720747
  | Normalization factor for density and gradient :       1.0000071003
  Renormalizing the free-atom superposition density to the exact electron count on the 3D integration grid.
  | Formal number of electrons (from input files) :     320.0000000000
  | Integrated number of electrons on 3D grid     :     319.9977279253
  | Charge integration error                      :      -0.0022720747
  | Normalization factor for density and gradient :       1.0000071003
  Obtaining max. number of non-zero basis functions in each batch (get_n_compute_maxes).
  | Maximal number of non-zero basis functions:      417 in task     0
  | Maximal number of non-zero basis functions:      444 in task     1
  | Maximal number of non-zero basis functions:      438 in task     2
  | Maximal number of non-zero basis functions:      418 in task     3
  | Maximal number of non-zero basis functions:      428 in task     4
  | Maximal number of non-zero basis functions:      422 in task     5
  | Maximal number of non-zero basis functions:      418 in task     6
  | Maximal number of non-zero basis functions:      412 in task     7
  | Maximal number of non-zero basis functions:      423 in task     8
  | Maximal number of non-zero basis functions:      427 in task     9
  | Maximal number of non-zero basis functions:      447 in task    10
  | Maximal number of non-zero basis functions:      412 in task    11
  | Maximal number of non-zero basis functions:      412 in task    12
  | Maximal number of non-zero basis functions:      437 in task    13
  | Maximal number of non-zero basis functions:      445 in task    14
  | Maximal number of non-zero basis functions:      432 in task    15
  | Maximal number of non-zero basis functions:      425 in task    16
  | Maximal number of non-zero basis functions:      434 in task    17
  Integrating Hamiltonian matrix: batch-based integration.
  GPU acceleration will be used when integrating the Hamiltonian matrix.
  Reporting GPU memory usage by myid 0.  Note that it is likely not the only MPI task binding to its GPU!
  Allocating        1.391 MB on GPU for hamiltonian_shell
  Allocating        0.667 MB on GPU for wave
  Allocating        0.002 MB on GPU for partition
  Allocating        0.667 MB on GPU for h_times_psi
  Time summed over all CPUs for integration: real work       12.307 s, elapsed       13.085 s
  Deallocating memory used on GPU for Hamiltonian integration.
  Integrating overlap matrix.
  Time summed over all CPUs for integration: real work       10.123 s, elapsed       10.907 s
  Deallocating overlap matrix.

  Updating Kohn-Sham eigenvalues and eigenvectors using ELSI and the ELPA eigensolver.
  Singularity check in k-point 1 (analysis for other k-points may follow below):
  Overlap matrix is not singular
  | Lowest and highest eigenvalues :  0.1877E-02,  0.7358E+01
  Finished singularity check of overlap matrix
  | Time :     0.168 s
  Starting ELPA eigensolver (GPU)
  Finished Cholesky decomposition
  | Time :     0.009 s
  Finished transformation to standard eigenproblem
  | Time :     0.058 s
  Finished solving standard eigenproblem
  | Time :     0.251 s
  Finished back-transformation of eigenvectors
  | Time :     0.019 s

  Obtaining occupation numbers and electronic chemical potential using ELSI.
  | Note that, for insulating systems, the printed 'chemical potential' value is not uniquely defined.
  | It can be anywhere in the energy gap, as long as it correctly separates occupied and unoccupied states.
  | In systems with a gap, the physically relevant chemical potential is the VBM or HOMO.

  | Chemical potential (Fermi level):    -5.08744277 eV
  Writing Kohn-Sham eigenvalues.

  State    Occupation    Eigenvalue [Ha]    Eigenvalue [eV]
      1       2.00000         -18.939421         -515.36788
      2       2.00000         -18.928531         -515.07154
      3       2.00000         -18.925033         -514.97636
      4       2.00000         -18.905359         -514.44100
      5       2.00000         -18.893695         -514.12361
      6       2.00000         -18.891312         -514.05876
      7       2.00000         -18.890583         -514.03892
      8       2.00000         -18.889705         -514.01502
      9       2.00000         -18.889137         -513.99957
     10       2.00000         -18.887482         -513.95453
     11       2.00000         -18.887219         -513.94739
     12       2.00000         -18.884031         -513.86063
     13       2.00000         -18.883064         -513.83432
     14       2.00000         -18.881327         -513.78704
     15       2.00000         -18.879579         -513.73949
     16       2.00000         -18.878327         -513.70541
     17       2.00000         -18.876728         -513.66191
     18       2.00000         -18.876542         -513.65684
     19       2.00000         -18.876383         -513.65253
     20       2.00000         -18.875750         -513.63528
     21       2.00000         -18.875260         -513.62197
     22       2.00000         -18.871931         -513.53137
     23       2.00000         -18.869133         -513.45523
     24       2.00000         -18.865533         -513.35727
     25       2.00000         -18.865468         -513.35550
     26       2.00000         -18.864015         -513.31596
     27       2.00000         -18.861363         -513.24381
     28       2.00000         -18.860630         -513.22385
     29       2.00000         -18.860068         -513.20855
     30       2.00000         -18.851896         -512.98618
     31       2.00000         -18.851784         -512.98314
     32       2.00000         -18.843389         -512.75470
     33       2.00000          -1.205421          -32.80118
     34       2.00000          -1.181656          -32.15449
     35       2.00000          -1.177370          -32.03786
     36       2.00000          -1.155781          -31.45040
     37       2.00000          -1.152423          -31.35903
     38       2.00000          -1.140660          -31.03893
     39       2.00000          -1.139700          -31.01282
     40       2.00000          -1.132619          -30.82012
     41       2.00000          -1.132417          -30.81464
     42       2.00000          -1.127066          -30.66903
     43       2.00000          -1.126164          -30.64447
     44       2.00000          -1.122161          -30.53555
     45       2.00000          -1.118878          -30.44621
     46       2.00000          -1.117344          -30.40449
     47       2.00000          -1.115415          -30.35199
     48       2.00000          -1.113519          -30.30040
     49       2.00000          -1.112860          -30.28247
     50       2.00000          -1.111202          -30.23734
     51       2.00000          -1.106817          -30.11802
     52       2.00000          -1.102452          -29.99925
     53       2.00000          -1.101493          -29.97314
     54       2.00000          -1.097563          -29.86620
     55       2.00000          -1.096053          -29.82512
     56       2.00000          -1.094630          -29.78641
     57       2.00000          -1.094419          -29.78066
     58       2.00000          -1.091917          -29.71258
     59       2.00000          -1.083153          -29.47409
     60       2.00000          -1.079240          -29.36763
     61       2.00000          -1.072552          -29.18563
     62       2.00000          -1.064060          -28.95456
     63       2.00000          -1.061363          -28.88115
     64       2.00000          -1.048019          -28.51805
     65       2.00000          -0.751674          -20.45409
     66       2.00000          -0.747472          -20.33974
     67       2.00000          -0.741104          -20.16646
     68       2.00000          -0.708260          -19.27272
     69       2.00000          -0.707124          -19.24183
     70       2.00000          -0.688665          -18.73952
     71       2.00000          -0.679989          -18.50344
     72       2.00000          -0.677588          -18.43812
     73       2.00000          -0.676035          -18.39585
     74       2.00000          -0.670611          -18.24825
     75       2.00000          -0.668421          -18.18866
     76       2.00000          -0.668228          -18.18341
     77       2.00000          -0.662110          -18.01693
     78       2.00000          -0.658366          -17.91506
     79       2.00000          -0.657135          -17.88155
     80       2.00000          -0.655276          -17.83097
     81       2.00000          -0.652818          -17.76409
     82       2.00000          -0.648606          -17.64947
     83       2.00000          -0.646747          -17.59888
     84       2.00000          -0.643825          -17.51936
     85       2.00000          -0.643187          -17.50201
     86       2.00000          -0.635549          -17.29418
     87       2.00000          -0.635028          -17.28000
     88       2.00000          -0.629979          -17.14259
     89       2.00000          -0.629264          -17.12313
     90       2.00000          -0.625467          -17.01982
     91       2.00000          -0.621265          -16.90547
     92       2.00000          -0.619842          -16.86676
     93       2.00000          -0.619117          -16.84703
     94       2.00000          -0.614018          -16.70827
     95       2.00000          -0.610636          -16.61626
     96       2.00000          -0.608068          -16.54637
     97       2.00000          -0.582344          -15.84638
     98       2.00000          -0.575498          -15.66008
     99       2.00000          -0.567143          -15.43276
    100       2.00000          -0.565131          -15.37800
    101       2.00000          -0.560886          -15.26248
    102       2.00000          -0.557924          -15.18189
    103       2.00000          -0.557201          -15.16220
    104       2.00000          -0.555927          -15.12754
    105       2.00000          -0.553859          -15.07126
    106       2.00000          -0.548035          -14.91279
    107       2.00000          -0.547800          -14.90640
    108       2.00000          -0.545123          -14.83355
    109       2.00000          -0.544892          -14.82727
    110       2.00000          -0.539626          -14.68396
    111       2.00000          -0.538025          -14.64041
    112       2.00000          -0.537223          -14.61859
    113       2.00000          -0.534839          -14.55371
    114       2.00000          -0.533052          -14.50507
    115       2.00000          -0.530557          -14.43720
    116       2.00000          -0.525857          -14.30930
    117       2.00000          -0.525224          -14.29207
    118       2.00000          -0.524001          -14.25879
    119       2.00000          -0.523256          -14.23853
    120       2.00000          -0.517959          -14.09437
    121       2.00000          -0.514348          -13.99612
    122       2.00000          -0.510606          -13.89428
    123       2.00000          -0.509312          -13.85908
    124       2.00000          -0.504201          -13.72000
    125       2.00000          -0.500585          -13.62160
    126       2.00000          -0.498744          -13.57152
    127       2.00000          -0.494899          -13.46688
    128       2.00000          -0.493360          -13.42501
    129       2.00000          -0.492103          -13.39079
    130       2.00000          -0.488904          -13.30374
    131       2.00000          -0.485083          -13.19979
    132       2.00000          -0.482709          -13.13519
    133       2.00000          -0.475514          -12.93939
    134       2.00000          -0.473475          -12.88391
    135       2.00000          -0.472370          -12.85385
    136       2.00000          -0.471594          -12.83273
    137       2.00000          -0.470565          -12.80473
    138       2.00000          -0.469380          -12.77248
    139       2.00000          -0.467802          -12.72955
    140       2.00000          -0.465711          -12.67264
    141       2.00000          -0.464640          -12.64349
    142       2.00000          -0.464371          -12.63618
    143       2.00000          -0.463677          -12.61728
    144       2.00000          -0.462571          -12.58719
    145       2.00000          -0.461517          -12.55852
    146       2.00000          -0.459520          -12.50418
    147       2.00000          -0.458842          -12.48572
    148       2.00000          -0.457901          -12.46013
    149       2.00000          -0.456555          -12.42348
    150       2.00000          -0.455262          -12.38831
    151       2.00000          -0.454138          -12.35773
    152       2.00000          -0.453451          -12.33904
    153       2.00000          -0.450438          -12.25704
    154       2.00000          -0.449161          -12.22230
    155       2.00000          -0.448094          -12.19325
    156       2.00000          -0.445788          -12.13052
    157       2.00000          -0.442960          -12.05356
    158       2.00000          -0.440187          -11.97811
    159       2.00000          -0.433754          -11.80304
    160       2.00000          -0.431716          -11.74760
    161       0.00000          -0.173923           -4.73267
    162       0.00000          -0.116745           -3.17679
    163       0.00000          -0.112710           -3.06698
    164       0.00000          -0.106309           -2.89280
    165       0.00000          -0.104605           -2.84643
    166       0.00000          -0.099535           -2.70847
    167       0.00000          -0.093592           -2.54676
    168       0.00000          -0.070339           -1.91403
    169       0.00000          -0.065026           -1.76946
    170       0.00000          -0.062917           -1.71206
    171       0.00000          -0.057835           -1.57376
    172       0.00000          -0.055839           -1.51946
    173       0.00000          -0.054049           -1.47075
    174       0.00000          -0.049834           -1.35606
    175       0.00000          -0.046138           -1.25547
    176       0.00000          -0.035978           -0.97901
    177       0.00000          -0.033666           -0.91611
    178       0.00000          -0.028686           -0.78059
    179       0.00000          -0.025466           -0.69295
    180       0.00000          -0.020555           -0.55934
    181       0.00000          -0.009518           -0.25900
    182       0.00000          -0.001430           -0.03892
    183       0.00000          -0.001134           -0.03086
    184       0.00000           0.005246            0.14276
    185       0.00000           0.015248            0.41492
    186       0.00000           0.019411            0.52819
    187       0.00000           0.024592            0.66919
    188       0.00000           0.025665            0.69838
    189       0.00000           0.032969            0.89712
    190       0.00000           0.037863            1.03030
    191       0.00000           0.041802            1.13749
    192       0.00000           0.044272            1.20471
    193       0.00000           0.045509            1.23837
    194       0.00000           0.047956            1.30495
    195       0.00000           0.050108            1.36350
    196       0.00000           0.052364            1.42489
    197       0.00000           0.053917            1.46715
    198       0.00000           0.061787            1.68130
    199       0.00000           0.065827            1.79124
    200       0.00000           0.068399            1.86124
    201       0.00000           0.070107            1.90771
    202       0.00000           0.073459            1.99892
    203       0.00000           0.075617            2.05764
    204       0.00000           0.077641            2.11271
    205       0.00000           0.078806            2.14442
    206       0.00000           0.080326            2.18579
    207       0.00000           0.083504            2.27226
    208       0.00000           0.085906            2.33762
    209       0.00000           0.087950            2.39323
    210       0.00000           0.090625            2.46602
    211       0.00000           0.095463            2.59768
    212       0.00000           0.096646            2.62986
    213       0.00000           0.100614            2.73786
    214       0.00000           0.104625            2.84699
    215       0.00000           0.107029            2.91242
    216       0.00000           0.109601            2.98240
    217       0.00000           0.114035            3.10304
    218       0.00000           0.114773            3.12313
    219       0.00000           0.119569            3.25365
    220       0.00000           0.124668            3.39238
    221       0.00000           0.127346            3.46527
    222       0.00000           0.132021            3.59248
    223       0.00000           0.133420            3.63054
    224       0.00000           0.138168            3.75973
    225       0.00000           0.143635            3.90850
    226       0.00000           0.146995            3.99994
    227       0.00000           0.150504            4.09542
    228       0.00000           0.162465            4.42089
    229       0.00000           0.173925            4.73275
    230       0.00000           0.178492            4.85702
    231       0.00000           0.186109            5.06429
    232       0.00000           0.188619            5.13259
    233       0.00000           0.196442            5.34547
    234       0.00000           0.202640            5.51411
    235       0.00000           0.210733            5.73435
    236       0.00000           0.213001            5.79605
    237       0.00000           0.216032            5.87852
    238       0.00000           0.216846            5.90069
    239       0.00000           0.227076            6.17907
    240       0.00000           0.233511            6.35415
    241       0.00000           0.237368            6.45911
    242       0.00000           0.240351            6.54029
    243       0.00000           0.246560            6.70924
    244       0.00000           0.248422            6.75992
    245       0.00000           0.256718            6.98565
    246       0.00000           0.257390            7.00393
    247       0.00000           0.263761            7.17731
    248       0.00000           0.270690            7.36584
    249       0.00000           0.274200            7.46135
    250       0.00000           0.279288            7.59982
    251       0.00000           0.290939            7.91686
    252       0.00000           0.299339            8.14543
    253       0.00000           0.306712            8.34607
    254       0.00000           0.307889            8.37808
    255       0.00000           0.313338            8.52636
    256       0.00000           0.323588            8.80528
    257       0.00000           0.328245            8.93199
    258       0.00000           0.334865            9.11214
    259       0.00000           0.341071            9.28101
[...]
  |    H      0     4.527807 A      4.527807 A        1.268855E-16 a.u.
  |    H      0     4.527807 A      4.583499 A       -4.900954E-17 a.u.
  |    H      0     4.527807 A      4.583499 A        4.713786E-16 a.u.
  |    H      2     3.678162 A  2.180220E+05 A            0.556529 a.u.
  |    H      1     3.958095 A  1.721251E+08 A            0.841931 a.u.
  |    H      0     4.527807 A  3.866455E+16 A            0.581436 a.u.
  |    O      0     2.043000 A      2.043000 A       -1.436841E-16 a.u.
  |    O      3     3.498446 A      3.498446 A        3.043453E-17 a.u.
  |    O      3     3.498446 A      3.498446 A        1.541443E-16 a.u.
  |    O      0     3.905335 A      3.905335 A        2.173090E-16 a.u.
  |    O      0     3.905335 A      3.905335 A        7.213445E-17 a.u.
  |    O      0     4.101052 A      4.101052 A        2.361718E-16 a.u.
  |    O      1     4.101052 A      4.101052 A        3.235185E-17 a.u.
  |    O      0     4.359549 A      4.359549 A       -5.329475E-17 a.u.
  |    O      1     4.413171 A      4.413171 A        3.261883E-17 a.u.
  |    O      1     4.522403 A      4.522403 A        6.417997E-16 a.u.
  |    O      1     4.522403 A      4.522403 A        4.224783E-16 a.u.
  |    O      2     4.522403 A      4.522403 A       -4.387647E-16 a.u.
  |    O      0     4.522403 A      4.578029 A        2.602039E-16 a.u.
  |    O      0     4.578029 A      4.578029 A        1.226235E-16 a.u.
  |    O      1     4.578029 A      4.578029 A       -6.107316E-16 a.u.
  |    O      1     4.578029 A      4.578029 A       -2.224438E-16 a.u.
  |    O      2     4.578029 A      4.578029 A       -7.020279E-16 a.u.
  |    O      2     4.522403 A      4.578029 A        1.323470E-15 a.u.
  |    O      2     4.578029 A      4.578029 A        7.923696E-16 a.u.
  |    O      2     4.522403 A      4.578029 A       -9.951815E-16 a.u.
  |    O      0     4.578029 A      4.634338 A       -8.813582E-18 a.u.
  |    O      1     4.578029 A      4.634338 A       -3.325386E-17 a.u.
  |    O      1     4.634338 A      4.634338 A        9.588032E-16 a.u.
  |    O      2     4.578029 A      4.634338 A        1.064715E-17 a.u.
  |    O      2     4.578029 A      4.634338 A       -3.770343E-15 a.u.
  |    O      4     3.251020 A  1.511584E+03 A            1.513372 a.u.
  |    O      3     3.541477 A  1.434166E+04 A            4.293220 a.u.
  |    O      2     4.634338 A  5.584435E+05 A            9.352428 a.u.
  |    O      1     4.634338 A  2.821283E+08 A            2.261940 a.u.
  |    O      0     4.578029 A  4.264100E+16 A            0.641234 a.u.

  | Shrink_full_auxil_basis : there are       38  radial auxiliary wave functions
                            accepted and       5 rejected.
  | Shrink_full_auxil_basis : there are totally                4544 partial auxiliary wave functions.
 
  | Maximal number of product basis functions per thread :   256   256
 
  | Minimal total memory requirement for three-center overlap :      10.450 Gbs
  | Number of local auxiliary basis functions on task:      0   256
  | Number of local auxiliary basis functions on task:      1   256
  | Number of local auxiliary basis functions on task:      2   256
  | Number of local auxiliary basis functions on task:      3   256
  | Number of local auxiliary basis functions on task:      4   256
  | Number of local auxiliary basis functions on task:      5   256
  | Number of local auxiliary basis functions on task:      6   256
  | Number of local auxiliary basis functions on task:      7   256
  | Number of local auxiliary basis functions on task:      8   256
  | Number of local auxiliary basis functions on task:      9   256
  | Number of local auxiliary basis functions on task:     10   256
  | Number of local auxiliary basis functions on task:     11   256
  | Number of local auxiliary basis functions on task:     12   256
  | Number of local auxiliary basis functions on task:     13   256
  | Number of local auxiliary basis functions on task:     14   240
  | Number of local auxiliary basis functions on task:     15   240
  | Number of local auxiliary basis functions on task:     16   240
  | Number of local auxiliary basis functions on task:     17   240
  | 2D aux task distribution:      3 X      6
  | 2D block size (nb_aux_2d):     64
 
  Basis pair condensation :    295296  -->     221333
 
 --------------------------------------------
  Constructing auxiliary basis (full product) ...
 
  Product basis:
  | charge radius: extent of product basis function
  | field radius: extent of its Coulomb potential
  | Species   l  charge radius    field radius  multipol momen
  |    H      1     3.910002 A      3.910002 A       -2.487223E-16 a.u.
  |    H      1     3.958095 A      3.958095 A       -2.441841E-16 a.u.
  |    H      0     4.527807 A      4.527807 A        1.268855E-16 a.u.
  |    H      0     4.527807 A      4.583499 A       -4.900954E-17 a.u.
  |    H      0     4.527807 A      4.583499 A        4.713786E-16 a.u.
  |    H      2     3.678162 A  2.180220E+05 A            0.556529 a.u.
  |    H      1     3.958095 A  1.721251E+08 A            0.841931 a.u.
  |    H      0     4.527807 A  3.866455E+16 A            0.581436 a.u.
  |    O      0     2.043000 A      2.043000 A       -1.436841E-16 a.u.
  |    O      3     3.498446 A      3.498446 A        3.043453E-17 a.u.
  |    O      3     3.498446 A      3.498446 A        1.541443E-16 a.u.
  |    O      0     3.905335 A      3.905335 A        2.173090E-16 a.u.
  |    O      0     3.905335 A      3.905335 A        7.213445E-17 a.u.
  |    O      0     4.101052 A      4.101052 A        2.361718E-16 a.u.
  |    O      1     4.101052 A      4.101052 A        3.235185E-17 a.u.
  |    O      0     4.359549 A      4.359549 A       -5.329475E-17 a.u.
  |    O      1     4.413171 A      4.413171 A        3.261883E-17 a.u.
  |    O      1     4.522403 A      4.522403 A        6.417997E-16 a.u.
  |    O      1     4.522403 A      4.522403 A        4.224783E-16 a.u.
  |    O      2     4.522403 A      4.522403 A       -4.387647E-16 a.u.
  |    O      0     4.522403 A      4.578029 A        2.602039E-16 a.u.
  |    O      0     4.578029 A      4.578029 A        1.226235E-16 a.u.
  |    O      1     4.578029 A      4.578029 A       -6.107316E-16 a.u.
  |    O      1     4.578029 A      4.578029 A       -2.224438E-16 a.u.
  |    O      2     4.578029 A      4.578029 A       -7.020279E-16 a.u.
  |    O      2     4.522403 A      4.578029 A        1.323470E-15 a.u.
  |    O      2     4.578029 A      4.578029 A        7.923696E-16 a.u.
  |    O      2     4.522403 A      4.578029 A       -9.951815E-16 a.u.
  |    O      0     4.578029 A      4.634338 A       -8.813582E-18 a.u.
  |    O      1     4.578029 A      4.634338 A       -3.325386E-17 a.u.
  |    O      1     4.634338 A      4.634338 A        9.588032E-16 a.u.
  |    O      2     4.578029 A      4.634338 A        1.064715E-17 a.u.
  |    O      2     4.578029 A      4.634338 A       -3.770343E-15 a.u.
  |    O      4     3.251020 A  1.511584E+03 A            1.513372 a.u.
  |    O      3     3.541477 A  1.434166E+04 A            4.293220 a.u.
  |    O      2     4.634338 A  5.584435E+05 A            9.352428 a.u.
  |    O      1     4.634338 A  2.821283E+08 A            2.261940 a.u.
  |    O      0     4.578029 A  4.264100E+16 A            0.641234 a.u.

  | Shrink_full_auxil_basis : there are       38  radial auxiliary wave functions
                            accepted and       5 rejected.
  | Shrink_full_auxil_basis : there are totally                4544 partial auxiliary wave functions.
 
  | Maximal number of product basis functions per thread :   256   256
 
  | Minimal total memory requirement for three-center overlap :      10.450 Gbs
  | Number of local auxiliary basis functions on task:      0   256
  | Number of local auxiliary basis functions on task:      1   256
  | Number of local auxiliary basis functions on task:      2   256
  | Number of local auxiliary basis functions on task:      3   256
  | Number of local auxiliary basis functions on task:      4   256
  | Number of local auxiliary basis functions on task:      5   256
  | Number of local auxiliary basis functions on task:      6   256
  | Number of local auxiliary basis functions on task:      7   256
  | Number of local auxiliary basis functions on task:      8   256
  | Number of local auxiliary basis functions on task:      9   256
  | Number of local auxiliary basis functions on task:     10   256
  | Number of local auxiliary basis functions on task:     11   256
  | Number of local auxiliary basis functions on task:     12   256
  | Number of local auxiliary basis functions on task:     13   256
  | Number of local auxiliary basis functions on task:     14   240
  | Number of local auxiliary basis functions on task:     15   240
  | Number of local auxiliary basis functions on task:     16   240
  | Number of local auxiliary basis functions on task:     17   240
  | 2D aux task distribution:      3 X      6
  | 2D block size (nb_aux_2d):     64
 
  Basis pair condensation :    295296  -->     221333
dP_dE (Bohr^3) at every cycle:--->
 (344.088574270507,0.000000000000000E+000) (1.23307438433487,0.000000000000000E+000) (-8.17027647389271,0.000000000000000E+000)
 (1.23726025489031,0.000000000000000E+000) (334.842815485533,0.000000000000000E+000) (6.26985147780099,0.000000000000000E+000)
 (-8.16440021368714,0.000000000000000E+000) (6.27171127851233,0.000000000000000E+000) (345.581547544155,0.000000000000000E+000)
DFPT polarizability (Bohr^3)        xx        yy        zz        xy        xz        yz
  | Polarizability:--->                       344.088574271                  334.842815486                  345.581547544                    1.233074384                   -8.170276474                    6.269851478

DFPT for dielectric_constant:--->  # PARSE DFPT_dielectric_tensor
               1.682476852451808             0.002445721211301            -0.016205201185145
               0.002454023607763             1.664138503474440             0.012435834322548
              -0.016193546012991             0.012439523113838             1.685438065862495

                                               :  max(cpu_time)    wall_clock(cpu1)
  | Time for  dielectric calculation            :        0.000 s           0.001 s
===========================================================================

------------------------------------------------------------------------------
  Final output of selected total energy values:

  The following output summarizes some interesting total energy values
  at the end of a run (AFTER all relaxation, molecular dynamics, etc.).

  | Total energy of the DFT / Hartree-Fock s.c.f. calculation      :         -66108.277137914 eV
  | Final zero-broadening corrected energy (caution - metals only) :         -66108.277137914 eV
  | For reference only, the value of 1 Hartree used in FHI-aims is :             27.211384500 eV
  | For reference only, the overall average (free atom contribution
  | + realspace contribution) of the electrostatic potential after
  | s.c.f. convergence is                                          :             -5.109901395 eV

  Before relying on these values, please be sure to understand exactly which
  total energy value is referred to by a given number. Different objects may
  all carry the same name 'total energy'. Definitions:

  Total energy of the DFT / Hartree-Fock s.c.f. calculation:
  | Note that this energy does not include ANY quantities calculated after the
  | s.c.f. cycle, in particular not ANY RPA, MP2, etc. many-body perturbation terms.

  Final zero-broadening corrected energy:
  | For metallic systems only, a broadening of the occupation numbers at the Fermi
  | level can be extrapolated back to zero broadening by an electron-gas inspired
  | formula. For all systems that are not real metals, this value can be
  | meaningless and should be avoided.

------------------------------------------------------------------------------
  Methods described in the following list of references were used in this FHI-aims run.
  If you publish the results, please make sure to cite these reference if they apply.
  FHI-aims is an academic code, and for our developers (often, Ph.D. students
  and postdocs), scientific credit in the community is essential.
  Thank you for helping us!

  For any use of FHI-aims, please cite:

    Volker Blum, Ralf Gehrke, Felix Hanke, Paula Havu, Ville Havu,
    Xinguo Ren, Karsten Reuter, and Matthias Scheffler
    'Ab initio molecular simulations with numeric atom-centered orbitals'
    Computer Physics Communications 180, 2175-2196 (2009)
    http://doi.org/10.1016/j.cpc.2009.06.022


  For Hartree-Fock, hybrid functionals, or many-body perturbation theory used in your run, please cite:

    Xinguo Ren, Patrick Rinke, Volker Blum, Juergen Wieferink, Alex Tkatchenko,
    Andrea Sanfilippo, Karsten Reuter, and Matthias Scheffler,
    'Resolution-of-identity approach to Hartree-Fock, hybrid density functionals,
    RPA, MP2, and GW with numeric atom-centered orbital basis functions'
    New Journal of Physics 14, 053020 (2012).
    http://doi.org/10.1088/1367-2630/14/5/053020


  The provided symmetry information was generated with SPGlib:

    Atsushi Togo, Yusuke Seto, Dimitar Pashov
    SPGlib 1.7.3 obtained from http://spglib.sourceforge.net
    Copyright (C) 2008 Atsushi Togo


  The DFPT (perturbation by an electric field) part of the code was used.
  Here is the corresponding reference:

    Honghui Shang, Nathaniel Raimbault, Mariana Rossi,
    Christian Carbogno, Patrick Rinke and Matthias Scheffler,
    'All-Electron, Real-Space Perturbation Theory for Homogeneous
    Electric Fields: Theory, Implementation, and Application within dft'
    New Journal of Physics, 20(7):073040, 2018


  The ELSI infrastructure was used in your run to solve the Kohn-Sham electronic structure.
  Please check out http://elsi-interchange.org to learn more.
  If scalability is important for your project, please acknowledge ELSI by citing:

    V. W-z. Yu, F. Corsetti, A. Garcia, W. P. Huhn, M. Jacquelin, W. Jia,
    B. Lange, L. Lin, J. Lu, W. Mi, A. Seifitokaldani, A. Vazquez-Mayagoitia,
    C. Yang, H. Yang, and V. Blum
    'ELSI: A unified software interface for Kohn-Sham electronic structure solvers'
    Computer Physics Communications 222, 267-285 (2018).
    http://doi.org/10.1016/j.cpc.2017.09.007


  For the real-space grid partitioning and parallelization used in this calculation, please cite:

    Ville Havu, Volker Blum, Paula Havu, and Matthias Scheffler,
    'Efficient O(N) integration for all-electron electronic structure calculation'
    'using numerically tabulated basis functions'
    Journal of Computational Physics 228, 8367-8379 (2009).
    http://doi.org/10.1016/j.jcp.2009.08.008


  The high-level electronic structure method used in your calculation
  employed our efficient localized resolution of identity for the Coulomb operator.
  Some calculations, especially large-scale hybrid density functional theory,
  are only possible thanks to this development. For this feature, please cite:

    Arvid Ihrig, Juergen Wieferink, Igor Ying Zhang, Matti Ropo, Xinguo Ren,
    Patrick Rinke, Matthias Scheffler, and Volker Blum,
    'Accurate localized resolution of identity approach for linear-scaling
    hybrid density functionals and for many-body perturbation theory'
    New Journal of Physics 117, 093020 (2015).
    http://doi.org/10.1088/1367-2630/17/9/093020

  Of course, there are many other important community references, e.g., those cited in the
  above references. Our list is limited to references that describe implementations in the
  FHI-aims code. The reason is purely practical (length of this list) - please credit others as well.

------------------------------------------------------------
          Leaving FHI-aims.
          Date     :  20230221, Time     :  123420.390

          Computational steps:
          | Number of self-consistency cycles          :           45
          | Number of SCF (re)initializations          :            1
          | Number of coupled perturbed self-consistency cycles          :            0
          | Number of CPSCF (re)initializations          :            0

          Detailed time accounting                     :  max(cpu_time)    wall_clock(cpu1)
          | Total time                                  :      531.665 s         543.770 s
          | GPU initialization                          :        2.232 s          10.475 s
          | Preparation time                            :        0.068 s           0.062 s
          | Boundary condition initalization            :        1.308 s           1.308 s
          | Grid partitioning                           :        0.437 s           0.437 s
          | Preloading free-atom quantities on grid     :        2.560 s           2.562 s
          | Free-atom superposition energy              :        0.254 s           0.254 s
          | Total time for integrations                 :       13.284 s          13.454 s
          | Product basis setup: Total time             :        0.000 s           0.000 s
          | Product basis: | 2-center integrations     :(       0.000 s)  (       0.000 s)
          | Product basis: | LVL 3-center & coefficient:(       0.000 s)  (       0.000 s)
          | Total time for solution of K.-S. equations  :        2.402 s           4.957 s
          | Total time for density update               :        9.937 s          10.398 s
          | Total time for mixing & preconditioning     :        8.300 s           8.302 s
          | Total time for Hartree multipole update     :        0.104 s           0.104 s
          | Total time for Hartree multipole sum        :       37.002 s          37.022 s
          | Total time for total energy evaluation      :        0.013 s           0.006 s
          | Total time for DFPT                         :      453.173 s         453.329 s
          | Total time first_order_DM                   :        0.298 s           0.298 s
          | Total time first_order_density              :       91.120 s          91.142 s
          | Total time first_order_potential            :       55.627 s          55.645 s
          | Total time first_order_H                    :      183.380 s         183.436 s
          | Total time solving of Sternheimer equations :        0.186 s           0.183 s
          | Total time for dielectric constant          :        0.000 s           0.001 s
          | Total time momentum matrix                  :        0.000 s           0.000 s

          GPU acceleration has been used for charge density update.
          GPU acceleration has been used for real-space Hamiltonian integration.
          Due to GPU usage, wall_clock(cpu1) will give a more reliable estimate for timings.

          Partial memory accounting:
          | Residual value for overall tracked memory usage across tasks:     0.000000 MB (should be 0.000000 MB)
          | Peak values for overall tracked memory usage:
          |   Minimum:      120.953 MB (on task  0 after allocating DFPT_pulay_mixing::pulay_mix::alphas)
          |   Maximum:      120.953 MB (on task  0 after allocating DFPT_pulay_mixing::pulay_mix::alphas)
          |   Average:      120.953 MB
          | Largest tracked array allocation:
          |   Minimum:       43.149 MB (DFPT_pulay_mixing::initialize_pulay_mixing::X_in_diffs on task  0)
          |   Maximum:       43.149 MB (DFPT_pulay_mixing::initialize_pulay_mixing::X_in_diffs on task  0)
          |   Average:       43.149 MB
          Note:  These values currently only include a subset of arrays which are explicitly tracked.
          The "true" memory usage will be greater.

          Have a nice day.
------------------------------------------------------------
