------------------------------------------------------------
          Invoking FHI-aims ...

          When using FHI-aims, please cite the following reference:

            Volker Blum, Ralf Gehrke, Felix Hanke, Paula Havu,
            Ville Havu, Xinguo Ren, Karsten Reuter, and Matthias Scheffler,
            'Ab Initio Molecular Simulations with Numeric Atom-Centered Orbitals',
            Computer Physics Communications 180, 2175-2196 (2009)

          In addition, many other developments in FHI-aims are likely important for
          your particular application. A partial list of references is given at the end of
          this file. Thank you for giving credit to the authors of these developments.

          For any questions about FHI-aims, please visit our slack channel at

            https://fhi-aims.slack.com

          and our main development and support site at

            https://aims-git.rz-berlin.mpg.de .

          The latter site, in particular, has a wiki to collect information, as well
          as an issue tracker to log discussions, suggest improvements, and report issues
          or bugs. https://aims-git.rz-berlin.mpg.de is also the main development site
          of the project and all new and updated code versions can be obtained there.
          Please send an email to aims-coordinators@fhi-berlin.mpg.de and we will add
          you to these sites. They are for you and everyone is welcome there.

------------------------------------------------------------



  Date     :  20230221, Time     :  142039.120
  Time zero on CPU 1             :   0.372353000000000E+00  s.
  Internal wall clock time zero  :           446221239.120  s.

  FHI-aims created a unique identifier for this run for later identification
  aims_uuid : A11407AD-87A7-4323-AED3-88DB95700845

  Build configuration of the current instance of FHI-aims
  -------------------------------------------------------
  FHI-aims version      : 221103
  Commit number         : 42523251a
  CMake host system     : Linux-5.3.18-150300.59.68-default
  CMake version         : 3.17.0
  Fortran compiler      : /mpcdf/soft/SLE_15/packages/x86_64/intel_oneapi/2021.3/mpi/2021.3.0/bin/mpiifort (Intel) version 20.2.3.20210609
  Fortran compiler flags: -O3 -ip -fp-model precise
  C compiler            : /mpcdf/soft/SLE_15/packages/x86_64/intel/2021.3.0/bin/icc (Intel) version 20.2.3.20210609
  C compiler flags      : -O3 -ip -fp-model precise -std=gnu99
  CUDA compiler         : /mpcdf/soft/SLE_15/packages/x86_64/cuda/11.6.2/bin/nvcc
  CUDA compiler flags   : -O3 -DAdd_ -lcublas
  HIP compiler          :
  HIP compiler flags    :
  HIP GPU arch          :
  ELPA2 kernel          : AVX512
  Using MPI
  Using ScaLAPACK
  Using LibXC
  Using CUDA
  Using i-PI
  Using RLSY
  Linking against: /mpcdf/soft/SLE_15/packages/x86_64/cuda/11.6.2/lib64/libcublas.so
                   /mpcdf/soft/SLE_15/packages/x86_64/cuda/11.6.2/lib64/libcudart.so
                   /mpcdf/soft/SLE_15/packages/x86_64/intel_oneapi/2021.3/mkl/latest/lib/intel64/libmkl_intel_lp64.so
                   /mpcdf/soft/SLE_15/packages/x86_64/intel_oneapi/2021.3/mkl/latest/lib/intel64/libmkl_sequential.so
                   /mpcdf/soft/SLE_15/packages/x86_64/intel_oneapi/2021.3/mkl/latest/lib/intel64/libmkl_core.so
                   /mpcdf/soft/SLE_15/packages/x86_64/intel_oneapi/2021.3/mkl/latest/lib/intel64/libmkl_blacs_intelmpi_lp64.so
                   /mpcdf/soft/SLE_15/packages/x86_64/intel_oneapi/2021.3/mkl/latest/lib/intel64/libmkl_scalapack_lp64.so

  Using       18 parallel tasks.
  Task        0 on host adag038 reporting.
  Task        1 on host adag038 reporting.
  Task        2 on host adag038 reporting.
  Task        3 on host adag038 reporting.
  Task        4 on host adag038 reporting.
  Task        5 on host adag038 reporting.
  Task        6 on host adag038 reporting.
  Task        7 on host adag038 reporting.
  Task        8 on host adag038 reporting.
  Task        9 on host adag038 reporting.
  Task       10 on host adag038 reporting.
  Task       11 on host adag038 reporting.
  Task       12 on host adag038 reporting.
  Task       13 on host adag038 reporting.
  Task       14 on host adag038 reporting.
  Task       15 on host adag038 reporting.
  Task       16 on host adag038 reporting.
  Task       17 on host adag038 reporting.

  Obtaining array dimensions for all initial allocations:
  
  -----------------------------------------------------------------------
  Parsing control.in (first pass over file, find array dimensions only).
  The contents of control.in will be repeated verbatim below
  unless switched off by setting 'verbatim_writeout .false.' .
  in the first line of control.in .
  -----------------------------------------------------------------------
  
  #########################################################################################
  #
  #  Volker Blum, 2017 : Test run input file control.in for simple H2O
  #
  #########################################################################################
  #
  #  Physical model
  #
    xc                 pw-lda
    spin               none
    relativistic       none
    charge             0.
  
    use_gpu
  
    DFPT dielectric
    ri_density_restart write
    ri_rho1 write
  #  ri_density_restart read 0
  #  ri_rho1 read
    ri_full_output .true.
    sc_accuracy_rho    1d-6
  #  use_calculate_fock_matrix_old .false.
  #  wave_threshold 1e-8
    k_grid 1 1 1
  #  output cube eigenstate 160
  #  output cube eigenstate 161
    wave_threshold 1e-8
    default_prodbas_acc 1e-6
    default_max_l_prodbas 6
  #
  #  Relaxation
  #
  #  relax_geometry   bfgs 1.e-2
  #
  
  ################################################################################
  
  
  ################################################################################
  #
  #  FHI-aims code project
  #  VB, Fritz-Haber Institut, 2009
  #
  #  Suggested "light" defaults for H atom (to be pasted into control.in file)
  #  Be sure to double-check any results obtained with these settings for post-processing,
  #  e.g., with the "tight" defaults and larger basis sets.
  #
  ################################################################################
    species        H
  #     global species definitions
      nucleus             1
      mass                1.00794
  #
      l_hartree           4
  #
      cut_pot             3.5  1.5  1.0
      basis_dep_cutoff    1e-4
  #
      radial_base         24 5.0
      radial_multiplier   1
      angular_grids       specified
        division   0.2421   50
        division   0.3822  110
        division   0.4799  194
        division   0.5341  302
  #      division   0.5626  434
  #      division   0.5922  590
  #      division   0.6542  770
  #      division   0.6868 1202
  #      outer_grid  770
        outer_grid  302
  ################################################################################
  #
  #  Definition of "minimal" basis
  #
  ################################################################################
  #     valence basis states
      valence      1  s   1.
  #     ion occupancy
      ion_occ      1  s   0.5
  ################################################################################
  #
  #  Suggested additional basis functions. For production calculations,
  #  uncomment them one after another (the most important basis functions are
  #  listed first).
  #
  #  Basis constructed for dimers: 0.5 A, 0.7 A, 1.0 A, 1.5 A, 2.5 A
  #
  ################################################################################
  #  "First tier" - improvements: -1014.90 meV to -62.69 meV
       hydro 2 s 2.1
       hydro 2 p 3.5
  #  "Second tier" - improvements: -12.89 meV to -1.83 meV
  #     hydro 1 s 0.85
  #     hydro 2 p 3.7
  #     hydro 2 s 1.2
  #     hydro 3 d 7
  #  "Third tier" - improvements: -0.25 meV to -0.12 meV
  #     hydro 4 f 11.2
  #     hydro 3 p 4.8
  #     hydro 4 d 9
  #     hydro 3 s 3.2
  ################################################################################
  #
  #  FHI-aims code project
  #  VB, Fritz-Haber Institut, 2009
  #
  #  Suggested "light" defaults for O atom (to be pasted into control.in file)
  #  Be sure to double-check any results obtained with these settings for post-processing,
  #  e.g., with the "tight" defaults and larger basis sets.
  #
  ################################################################################
    species        O
  #     global species definitions
      nucleus             8
      mass                15.9994
  #
      l_hartree           4
  #
      cut_pot             3.5  1.5  1.0
      basis_dep_cutoff    1e-4
  #
      radial_base         36 5.0
      radial_multiplier   1
       angular_grids specified
        division   0.2659   50
        division   0.4451  110
        division   0.6052  194
        division   0.7543  302
  #      division   0.8014  434
  #      division   0.8507  590
  #      division   0.8762  770
  #      division   0.9023  974
  #      division   1.2339 1202
  #      outer_grid 974
        outer_grid 302
  ################################################################################
  #
  #  Definition of "minimal" basis
  #
  ################################################################################
  #     valence basis states
      valence      2  s   2.
      valence      2  p   4.
  #     ion occupancy
      ion_occ      2  s   1.
      ion_occ      2  p   3.
  ################################################################################
  #
  #  Suggested additional basis functions. For production calculations,
  #  uncomment them one after another (the most important basis functions are
  #  listed first).
  #
  #  Constructed for dimers: 1.0 A, 1.208 A, 1.5 A, 2.0 A, 3.0 A
  #
  ################################################################################
  #  "First tier" - improvements: -699.05 meV to -159.38 meV
       hydro 2 p 1.8
       hydro 3 d 7.6
       hydro 3 s 6.4
  #  "Second tier" - improvements: -49.91 meV to -5.39 meV
  #     hydro 4 f 11.6
  #     hydro 3 p 6.2
  #     hydro 3 d 5.6
  #     hydro 5 g 17.6
  #     hydro 1 s 0.75
  #  "Third tier" - improvements: -2.83 meV to -0.50 meV
  #     ionic 2 p auto
  #     hydro 4 f 10.8
  #     hydro 4 d 4.7
  #     hydro 2 s 6.8
  #  "Fourth tier" - improvements: -0.40 meV to -0.12 meV
  #     hydro 3 p 5
  #     hydro 3 s 3.3
  #     hydro 5 g 15.6
  #     hydro 4 f 17.6
  #     hydro 4 d 14
  # Further basis functions - -0.08 meV and below
  #     hydro 3 s 2.1
  #     hydro 4 d 11.6
  #     hydro 3 p 16
  #     hydro 2 s 17.2
  
  -----------------------------------------------------------------------
  Completed first pass over input file control.in .
  -----------------------------------------------------------------------
  
  
  -----------------------------------------------------------------------
  Parsing geometry.in (first pass over file, find array dimensions only).
  The contents of geometry.in will be repeated verbatim below
  unless switched off by setting 'verbatim_writeout .false.' .
  in the first line of geometry.in .
  -----------------------------------------------------------------------
  
  #=======================================================
  # FHI-aims file: /ada/ptmp/mpsd/alewis/bulk_water/qmdata/data/geoms/385.in
  # Created using the Atomic Simulation Environment (ASE)
  # Tue Feb 21 11:23:37 2023
  #=======================================================
  lattice_vector 9.8515499999999996 0.0000000000000000 0.0000000000000000
  lattice_vector 0.0000000000000000 9.8515499999999996 0.0000000000000000
  lattice_vector 0.0000000000000000 0.0000000000000000 9.8515499999999996
  atom -9.9244000000000003 19.4984000000000002 -19.8087000000000018 O
  atom -10.8315000000000001 19.6536000000000008 -19.7458999999999989 H
  atom -9.6740800000000000 20.4844000000000008 -19.9784000000000006 H
  atom -12.1395999999999997 10.4848999999999997 4.2868100000000000 O
  atom -11.1052999999999997 10.4428999999999998 4.3981500000000002 H
  atom -12.5524000000000004 11.1305999999999994 5.1120999999999999 H
  atom 3.2971200000000001 -2.2547000000000001 14.0389999999999997 O
  atom 2.6177000000000001 -2.7911899999999998 14.3148999999999997 H
  atom 3.0888499999999999 -2.0017399999999999 13.1524000000000001 H
  atom -0.0915940000000000 17.4209999999999994 -1.8492000000000000 O
  atom 0.0127320000000000 18.0920999999999985 -1.1188199999999999 H
  atom -0.7036960000000000 16.8242000000000012 -1.4278800000000000 H
  atom -4.7453700000000003 3.9256300000000000 4.4091699999999996 O
  atom -5.6002900000000002 4.1200599999999996 4.5440500000000004 H
  atom -4.3996000000000004 4.7054000000000000 3.9826899999999998 H
  atom -29.6472000000000016 2.6900900000000001 46.8864000000000019 O
  atom -29.8859999999999992 2.9534799999999999 45.9474999999999980 H
  atom -28.7132000000000005 2.4221400000000002 47.0013000000000005 H
  atom 22.0878000000000014 1.8875700000000000 -1.5035099999999999 O
  atom 23.0671999999999997 1.6204499999999999 -1.7888400000000000 H
  atom 21.9659000000000013 1.3564799999999999 -0.7891629999999999 H
  atom -4.4646600000000003 -27.4779000000000018 -10.0502000000000002 O
  atom -5.0842299999999998 -26.7353999999999985 -10.0033999999999992 H
  atom -4.5532199999999996 -27.9581000000000017 -9.1229899999999997 H
  atom 9.4371600000000004 -16.2602000000000011 4.8800400000000002 O
  atom 9.2589199999999998 -16.5685000000000002 3.8387300000000000 H
  atom 8.9045000000000005 -15.2929999999999993 4.7715699999999996 H
  atom -6.4289300000000003 -5.9882600000000004 -9.4235699999999998 O
  atom -6.0283199999999999 -5.1487600000000002 -9.1093100000000007 H
  atom -6.8750700000000000 -5.8441700000000001 -10.3153000000000006 H
  atom 4.2220300000000002 10.4504999999999999 -12.9094999999999995 O
  atom 3.6017700000000001 10.6357999999999997 -13.8742000000000001 H
  atom 3.8654299999999999 9.4914400000000008 -12.7872000000000003 H
  atom 6.3036399999999997 -7.6615900000000003 6.1224400000000001 O
  atom 5.5436300000000003 -8.3459299999999992 6.5016200000000000 H
  atom 5.7704000000000004 -6.8424300000000002 5.8050499999999996 H
  atom -2.4241500000000000 -1.3187400000000000 -3.4050799999999999 O
  atom -2.4576899999999999 -0.7192130000000000 -4.1796300000000004 H
  atom -1.7450699999999999 -1.3299700000000001 -3.0516399999999999 H
  atom -19.9998000000000005 3.2398400000000001 21.6578000000000017 O
  atom -18.9562999999999988 2.6831900000000002 21.5355999999999987 H
  atom -20.5280999999999985 3.0276999999999998 20.8691999999999993 H
  atom -4.4558499999999999 10.9193999999999996 12.2007999999999992 O
  atom -5.1539700000000002 11.0424000000000007 12.7121999999999993 H
  atom -3.7703700000000002 11.0198999999999998 12.9598999999999993 H
  atom 3.1085900000000000 11.1117000000000008 14.1143999999999998 O
  atom 3.1263600000000000 11.9855999999999998 14.4154999999999998 H
  atom 2.1781400000000000 10.8004999999999995 13.8670000000000009 H
  atom 17.5159999999999982 -14.0765999999999991 -5.1588799999999999 O
  atom 17.0347000000000008 -13.9757999999999996 -4.3364399999999996 H
  atom 16.8850000000000016 -14.0341000000000005 -5.7914700000000003 H
  atom -5.3964200000000000 17.3183000000000007 16.6332999999999984 O
  atom -5.7874100000000004 17.4740000000000002 15.7201000000000004 H
  atom -4.5081600000000002 17.3668000000000013 16.5797999999999988 H
  atom 4.4270100000000001 6.9988900000000003 -9.9370799999999999 O
  atom 4.5975799999999998 7.0994000000000002 -10.8247000000000000 H
  atom 5.3343499999999997 7.1106999999999996 -9.6158099999999997 H
  atom -7.7732099999999997 -8.3483400000000003 11.2951999999999995 O
  atom -7.3669099999999998 -9.1462400000000006 11.6775000000000002 H
  atom -7.1832200000000004 -7.5981699999999996 11.5320999999999998 H
  atom 19.4377999999999993 25.3353999999999999 0.5443450000000000 O
  atom 19.5669000000000004 24.5089000000000006 1.0923700000000001 H
  atom 20.1981999999999999 25.4174000000000007 -0.1042900000000000 H
  atom 36.2509000000000015 19.2935000000000016 9.1595999999999993 O
  atom 36.4581999999999979 19.2155999999999985 8.2349800000000002 H
  atom 35.4778999999999982 19.9374000000000002 9.2454199999999993 H
  atom 29.3226000000000013 -21.7540000000000013 32.1069999999999993 O
  atom 28.4909999999999997 -21.4820999999999991 32.0159999999999982 H
  atom 29.0062999999999995 -22.5593000000000004 31.6313999999999993 H
  atom -14.1136999999999997 16.0895000000000010 -16.6085999999999991 O
  atom -14.9770000000000003 16.4481999999999999 -16.1017000000000010 H
  atom -13.5952000000000002 16.8784999999999989 -16.9991999999999983 H
  atom 0.5583340000000000 7.1585099999999997 -4.5051600000000001 O
  atom -0.5812570000000000 7.0019999999999998 -4.6947299999999998 H
  atom 0.3524850000000000 7.5684600000000000 -3.6339999999999999 H
  atom 1.4888500000000000 14.5800000000000001 -1.5131300000000001 O
  atom 1.5025999999999999 15.1510999999999996 -2.3025400000000000 H
  atom 1.0438700000000001 13.5235000000000003 -1.6328499999999999 H
  atom 10.4415999999999993 19.7290999999999990 4.1195399999999998 O
  atom 10.0129000000000001 19.2153999999999989 3.4604200000000001 H
  atom 10.9076000000000004 19.1029000000000018 4.6486599999999996 H
  atom 32.5311999999999983 8.7852300000000003 1.6529100000000001 O
  atom 31.7241999999999997 8.3480699999999999 1.6254700000000000 H
  atom 32.8423000000000016 8.4588699999999992 0.8082900000000000 H
  atom 12.0904000000000007 -6.3971099999999996 25.3744000000000014 O
  atom 11.0724000000000000 -6.3716299999999997 25.1246000000000009 H
  atom 12.1440999999999999 -6.3452900000000003 26.2835000000000001 H
  atom 6.9523400000000004 8.5105599999999999 11.8491999999999997 O
  atom 6.3784799999999997 9.2751599999999996 12.3064999999999998 H
  atom 6.8923800000000002 8.7774900000000002 10.9540000000000006 H
  atom -2.7246500000000000 25.5530000000000008 -10.4358000000000004 O
  atom -2.0731799999999998 25.3463999999999992 -9.8984000000000005 H
  atom -2.6792199999999999 24.5328000000000017 -10.5190999999999999 H
  atom -1.8741300000000001 -6.9548100000000002 9.4446499999999993 O
  atom -1.5157400000000001 -7.2248200000000002 8.5865200000000002 H
  atom -2.6259299999999999 -7.5186700000000002 9.6747499999999995 H
  
  -----------------------------------------------------------------------
  Completed first pass over input file geometry.in .
  -----------------------------------------------------------------------
  

  Basic array size parameters:
  | Number of species                 :        2
  | Number of atoms                   :       96
  | Number of lattice vectors         :        3
  | Max. basis fn. angular momentum   :        2
  | Max. atomic/ionic basis occupied n:        2
  | Max. number of basis fn. types    :        2
  | Max. radial fns per species/type  :        3
  | Max. logarithmic grid size        :     1301
  | Max. radial integration grid size :       36
  | Max. angular integration grid size:      302
  | Max. angular grid division number :        8
  | Radial grid for Hartree potential :     1301
  | Number of spin channels           :        1

------------------------------------------------------------
          Reading file control.in.
------------------------------------------------------------
  XC: Using Perdew-Wang parametrisation of Ceperley-Alder LDA.
  Spin treatment: No spin polarisation.
  Non-relativistic treatment of kinetic energy.
  Charge =   0.000000E+00: Neutral system requested explicitly.
  DFPT calculation will begin after the DFT/HF calculation.
  Convergence accuracy of self-consistent charge density:  0.1000E-05
  Found k-point grid:         1         1         1
  Threshold value for wave function integration:  0.1000E-07
 
  Reading configuration options for species H                   .
  | Found nuclear charge :   1.0000
  | Found atomic mass :    1.00794000000000      amu
  | Found l_max for Hartree potential  :   4
  | Found cutoff potl. onset [A], width [A], scale factor :    3.50000    1.50000    1.00000
  | Threshold for basis-dependent cutoff potential is   0.100000E-03
  | Found data for basic radial integration grid :    24 points, outermost radius =    5.000 A
  | Found multiplier for basic radial grid :   1
  | Found angular grid specification: user-specified.
  | Specified grid contains     5 separate shells.
  | Check grid settings after all constraints further below.
  | Found free-atom valence shell :  1 s   1.000
  | No ionic wave fns used. Skipping ion_occ.
  | Found hydrogenic basis function :  2 s   2.100
  | Found hydrogenic basis function :  2 p   3.500
  Species H                   : Missing cutoff potential type.
  Defaulting to exp(1/x)/(1-x)^2 type cutoff potential.
  Species H : No 'logarithmic' tag. Using default grid for free atom:
  | Default logarithmic grid data [bohr] : 0.1000E-03 0.1000E+03 0.1012E+01
  Species H : On-site basis accuracy parameter (for Gram-Schmidt orthonormalisation) not specified.
  Using default value basis_acc =  0.1000000E-03.
  Species H                   : Using default innermost maximum threshold i_radial=  2 for radial functions.
  Species H                   : Default cutoff onset for free atom density etc. : 0.35000000E+01 AA.
  Species H                   : Basic radial grid will be enhanced according to radial_multiplier =   1, to contain    24 grid points.
 
  Reading configuration options for species O                   .
  | Found nuclear charge :   8.0000
  | Found atomic mass :    15.9994000000000      amu
  | Found l_max for Hartree potential  :   4
  | Found cutoff potl. onset [A], width [A], scale factor :    3.50000    1.50000    1.00000
  | Threshold for basis-dependent cutoff potential is   0.100000E-03
  | Found data for basic radial integration grid :    36 points, outermost radius =    5.000 A
  | Found multiplier for basic radial grid :   1
  | Found angular grid specification: user-specified.
  | Specified grid contains     5 separate shells.
  | Check grid settings after all constraints further below.
  | Found free-atom valence shell :  2 s   2.000
  | Found free-atom valence shell :  2 p   4.000
  | No ionic wave fns used. Skipping ion_occ.
  | No ionic wave fns used. Skipping ion_occ.
  | Found hydrogenic basis function :  2 p   1.800
  | Found hydrogenic basis function :  3 d   7.600
  | Found hydrogenic basis function :  3 s   6.400
  Species O                   : Missing cutoff potential type.
  Defaulting to exp(1/x)/(1-x)^2 type cutoff potential.
  Species O : No 'logarithmic' tag. Using default grid for free atom:
  | Default logarithmic grid data [bohr] : 0.1000E-03 0.1000E+03 0.1012E+01
  Species O : On-site basis accuracy parameter (for Gram-Schmidt orthonormalisation) not specified.
  Using default value basis_acc =  0.1000000E-03.
  Species O                   : Using default innermost maximum threshold i_radial=  2 for radial functions.
  Species O                   : Default cutoff onset for free atom density etc. : 0.35000000E+01 AA.
  Species O                   : Basic radial grid will be enhanced according to radial_multiplier =   1, to contain    36 grid points.
 
  Finished reading input file 'control.in'.
 
------------------------------------------------------------


------------------------------------------------------------
          Reading geometry description geometry.in.
------------------------------------------------------------
  | The smallest distance between any two atoms is         0.76563411 AA.
  | The first atom of this pair is atom number                     37 .
  | The second atom of this pair is atom number                    39 .
  | Wigner-Seitz cell of the first atom image           0     0     0 .
  | (The Wigner-Seitz cell of the second atom is 0 0 0  by definition.)

  Symmetry information by spglib:
  | Precision set to  0.1E-04
  | Number of Operations  : 1
  | Space group           : 1
  | International         : P1
  | Schoenflies           : C1^1
  Input structure read successfully.
  The structure contains       96 atoms,  and a total of        320.000 electrons.

  Input geometry:
  | Unit cell:
  |        9.85155000        0.00000000        0.00000000
  |        0.00000000        9.85155000        0.00000000
  |        0.00000000        0.00000000        9.85155000
  | Atomic structure:
  |       Atom                x [A]            y [A]            z [A]
  |    1: Species O            -9.92440000       19.49840000      -19.80870000
  |    2: Species H           -10.83150000       19.65360000      -19.74590000
  |    3: Species H            -9.67408000       20.48440000      -19.97840000
  |    4: Species O           -12.13960000       10.48490000        4.28681000
  |    5: Species H           -11.10530000       10.44290000        4.39815000
  |    6: Species H           -12.55240000       11.13060000        5.11210000
  |    7: Species O             3.29712000       -2.25470000       14.03900000
  |    8: Species H             2.61770000       -2.79119000       14.31490000
  |    9: Species H             3.08885000       -2.00174000       13.15240000
  |   10: Species O            -0.09159400       17.42100000       -1.84920000
  |   11: Species H             0.01273200       18.09210000       -1.11882000
  |   12: Species H            -0.70369600       16.82420000       -1.42788000
  |   13: Species O            -4.74537000        3.92563000        4.40917000
  |   14: Species H            -5.60029000        4.12006000        4.54405000
  |   15: Species H            -4.39960000        4.70540000        3.98269000
  |   16: Species O           -29.64720000        2.69009000       46.88640000
  |   17: Species H           -29.88600000        2.95348000       45.94750000
  |   18: Species H           -28.71320000        2.42214000       47.00130000
  |   19: Species O            22.08780000        1.88757000       -1.50351000
  |   20: Species H            23.06720000        1.62045000       -1.78884000
  |   21: Species H            21.96590000        1.35648000       -0.78916300
  |   22: Species O            -4.46466000      -27.47790000      -10.05020000
  |   23: Species H            -5.08423000      -26.73540000      -10.00340000
  |   24: Species H            -4.55322000      -27.95810000       -9.12299000
  |   25: Species O             9.43716000      -16.26020000        4.88004000
  |   26: Species H             9.25892000      -16.56850000        3.83873000
  |   27: Species H             8.90450000      -15.29300000        4.77157000
  |   28: Species O            -6.42893000       -5.98826000       -9.42357000
  |   29: Species H            -6.02832000       -5.14876000       -9.10931000
  |   30: Species H            -6.87507000       -5.84417000      -10.31530000
  |   31: Species O             4.22203000       10.45050000      -12.90950000
  |   32: Species H             3.60177000       10.63580000      -13.87420000
  |   33: Species H             3.86543000        9.49144000      -12.78720000
  |   34: Species O             6.30364000       -7.66159000        6.12244000
  |   35: Species H             5.54363000       -8.34593000        6.50162000
  |   36: Species H             5.77040000       -6.84243000        5.80505000
  |   37: Species O            -2.42415000       -1.31874000       -3.40508000
  |   38: Species H            -2.45769000       -0.71921300       -4.17963000
  |   39: Species H            -1.74507000       -1.32997000       -3.05164000
  |   40: Species O           -19.99980000        3.23984000       21.65780000
  |   41: Species H           -18.95630000        2.68319000       21.53560000
  |   42: Species H           -20.52810000        3.02770000       20.86920000
  |   43: Species O            -4.45585000       10.91940000       12.20080000
  |   44: Species H            -5.15397000       11.04240000       12.71220000
  |   45: Species H            -3.77037000       11.01990000       12.95990000
  |   46: Species O             3.10859000       11.11170000       14.11440000
  |   47: Species H             3.12636000       11.98560000       14.41550000
  |   48: Species H             2.17814000       10.80050000       13.86700000
  |   49: Species O            17.51600000      -14.07660000       -5.15888000
  |   50: Species H            17.03470000      -13.97580000       -4.33644000
  |   51: Species H            16.88500000      -14.03410000       -5.79147000
  |   52: Species O            -5.39642000       17.31830000       16.63330000
  |   53: Species H            -5.78741000       17.47400000       15.72010000
  |   54: Species H            -4.50816000       17.36680000       16.57980000
  |   55: Species O             4.42701000        6.99889000       -9.93708000
  |   56: Species H             4.59758000        7.09940000      -10.82470000
  |   57: Species H             5.33435000        7.11070000       -9.61581000
  |   58: Species O            -7.77321000       -8.34834000       11.29520000
  |   59: Species H            -7.36691000       -9.14624000       11.67750000
  |   60: Species H            -7.18322000       -7.59817000       11.53210000
  |   61: Species O            19.43780000       25.33540000        0.54434500
  |   62: Species H            19.56690000       24.50890000        1.09237000
  |   63: Species H            20.19820000       25.41740000       -0.10429000
  |   64: Species O            36.25090000       19.29350000        9.15960000
  |   65: Species H            36.45820000       19.21560000        8.23498000
  |   66: Species H            35.47790000       19.93740000        9.24542000
  |   67: Species O            29.32260000      -21.75400000       32.10700000
  |   68: Species H            28.49100000      -21.48210000       32.01600000
  |   69: Species H            29.00630000      -22.55930000       31.63140000
  |   70: Species O           -14.11370000       16.08950000      -16.60860000
  |   71: Species H           -14.97700000       16.44820000      -16.10170000
  |   72: Species H           -13.59520000       16.87850000      -16.99920000
  |   73: Species O             0.55833400        7.15851000       -4.50516000
  |   74: Species H            -0.58125700        7.00200000       -4.69473000
  |   75: Species H             0.35248500        7.56846000       -3.63400000
  |   76: Species O             1.48885000       14.58000000       -1.51313000
  |   77: Species H             1.50260000       15.15110000       -2.30254000
  |   78: Species H             1.04387000       13.52350000       -1.63285000
  |   79: Species O            10.44160000       19.72910000        4.11954000
  |   80: Species H            10.01290000       19.21540000        3.46042000
  |   81: Species H            10.90760000       19.10290000        4.64866000
  |   82: Species O            32.53120000        8.78523000        1.65291000
  |   83: Species H            31.72420000        8.34807000        1.62547000
  |   84: Species H            32.84230000        8.45887000        0.80829000
  |   85: Species O            12.09040000       -6.39711000       25.37440000
  |   86: Species H            11.07240000       -6.37163000       25.12460000
  |   87: Species H            12.14410000       -6.34529000       26.28350000
  |   88: Species O             6.95234000        8.51056000       11.84920000
  |   89: Species H             6.37848000        9.27516000       12.30650000
  |   90: Species H             6.89238000        8.77749000       10.95400000
  |   91: Species O            -2.72465000       25.55300000      -10.43580000
  |   92: Species H            -2.07318000       25.34640000       -9.89840000
  |   93: Species H            -2.67922000       24.53280000      -10.51910000
  |   94: Species O            -1.87413000       -6.95481000        9.44465000
  |   95: Species H            -1.51574000       -7.22482000        8.58652000
  |   96: Species H            -2.62593000       -7.51867000        9.67475000

  Lattice parameters for 3D lattice (in Angstroms) :     9.851550    9.851550    9.851550
  Angle(s) between unit vectors (in degrees)       :    90.000000   90.000000   90.000000


  Quantities derived from the lattice vectors (in Angstrom^-1):
  | Reciprocal lattice vector 1:  0.637786  0.000000  0.000000
  | Reciprocal lattice vector 2:  0.000000  0.637786  0.000000
  | Reciprocal lattice vector 3:  0.000000  0.000000  0.637786
  | Unit cell volume                               :   0.956123E+03  Angstrom^3

  Fractional coordinates:
                         L1                L2                L3
       atom_frac        -1.00739478        1.97922154       -2.01071913  O
       atom_frac        -1.09947166        1.99497541       -2.00434449  H
       atom_frac        -0.98198558        2.07930732       -2.02794484  H
       atom_frac        -1.23225279        1.06428938        0.43514066  O
       atom_frac        -1.12726424        1.06002609        0.44644244  H
       atom_frac        -1.27415483        1.12983236        0.51891327  H
       atom_frac         0.33468033       -0.22886754        1.42505494  O
       atom_frac         0.26571453       -0.28332496        1.45306069  H
       atom_frac         0.31353949       -0.20319036        1.33505895  H
       atom_frac        -0.00929742        1.76835117       -0.18770650  O
       atom_frac         0.00129239        1.83647243       -0.11356792  H
       atom_frac        -0.07142998        1.70777187       -0.14493963  H
       atom_frac        -0.48168765        0.39847841        0.44756104  O
       atom_frac        -0.56846791        0.41821439        0.46125229  H
       atom_frac        -0.44658962        0.47763042        0.40427039  H
       atom_frac        -3.00939446        0.27306261        4.75929169  O
       atom_frac        -3.03363430        0.29979851        4.66398689  H
       atom_frac        -2.91458704        0.24586385        4.77095482  H
       atom_frac         2.24206343        0.19160132       -0.15261659  O
       atom_frac         2.34147926        0.16448681       -0.18157955  H
       atom_frac         2.22968974        0.13769204       -0.08010547  H
       atom_frac        -0.45319366       -2.78919561       -1.02016434  O
       atom_frac        -0.51608427       -2.71382676       -1.01541382  H
       atom_frac        -0.46218311       -2.83793921       -0.92604616  H
       atom_frac         0.95793657       -1.65052200        0.49535758  O
       atom_frac         0.93984398       -1.68181657        0.38965747  H
       atom_frac         0.90386792       -1.55234455        0.48434713  H
       atom_frac        -0.65258056       -0.60784953       -0.95655709  O
       atom_frac        -0.61191589       -0.52263451       -0.92465754  H
       atom_frac        -0.69786683       -0.59322340       -1.04707381  H
       atom_frac         0.42856505        1.06079754       -1.31040293  O
       atom_frac         0.36560440        1.07960676       -1.40832661  H
       atom_frac         0.39236770        0.96344636       -1.29798864  H
       atom_frac         0.63986276       -0.77770402        0.62146972  O
       atom_frac         0.56271653       -0.84716923        0.65995909  H
       atom_frac         0.58573524       -0.69455365        0.58925245  H
       atom_frac        -0.24606788       -0.13386117       -0.34563901  O
       atom_frac        -0.24947242       -0.07300506       -0.42426116  H
       atom_frac        -0.17713659       -0.13500109       -0.30976242  H
       atom_frac        -2.03011709        0.32886602        2.19841548  O
       atom_frac        -1.92419467        0.27236222        2.18601134  H
       atom_frac        -2.08374317        0.30733235        2.11836716  H
       atom_frac        -0.45229938        1.10839411        1.23846501  O
       atom_frac        -0.52316336        1.12087946        1.29037563  H
       atom_frac        -0.38271846        1.11859555        1.31551888  H
       atom_frac         0.31554324        1.12791388        1.43270856  O
       atom_frac         0.31734702        1.21662073        1.46327228  H
       atom_frac         0.22109617        1.09632494        1.40759576  H
       atom_frac         1.77799433       -1.42887160       -0.52366176  O
       atom_frac         1.72913907       -1.41863971       -0.44017845  H
       atom_frac         1.71394349       -1.42455756       -0.58787399  H
       atom_frac        -0.54777370        1.75792642        1.68839421  O
       atom_frac        -0.58746187        1.77373104        1.59569814  H
       atom_frac        -0.45760921        1.76284950        1.68296359  H
       atom_frac         0.44937193        0.71043541       -1.00868188  O
       atom_frac         0.46668595        0.72063787       -1.09878141  H
       atom_frac         0.54147317        0.72178490       -0.97607077  H
       atom_frac        -0.78903421       -0.84741386        1.14654039  O
       atom_frac        -0.74779197       -0.92840619        1.18534647  H
       atom_frac        -0.72914617       -0.77126645        1.17058737  H
       atom_frac         1.97307023        2.57171714        0.05525476  O
       atom_frac         1.98617476        2.48782171        0.11088306  H
       atom_frac         2.05025605        2.58004070       -0.01058615  H
       atom_frac         3.67971537        1.95842279        0.92976232  O
       atom_frac         3.70075775        1.95051540        0.83590704  H
       atom_frac         3.60125056        2.02378306        0.93847364  H
       atom_frac         2.97644533       -2.20818044        3.25908106  O
       atom_frac         2.89203222       -2.18058072        3.24984393  H
       atom_frac         2.94433871       -2.28992392        3.21080439  H
       atom_frac        -1.43263750        1.63319478       -1.68588699  O
       atom_frac        -1.52026838        1.66960529       -1.63443316  H
       atom_frac        -1.38000619        1.71328370       -1.72553558  H
       atom_frac         0.05667474        0.72663794       -0.45730469  O
       atom_frac        -0.05900158        0.71075110       -0.47654735  H
       atom_frac         0.03577965        0.76825068       -0.36887596  H
       atom_frac         0.15112850        1.47997016       -0.15359309  O
       atom_frac         0.15252422        1.53794073       -0.23372363  H
       atom_frac         0.10595998        1.37272815       -0.16574549  H
       atom_frac         1.05989413        2.00263918        0.41816161  O
       atom_frac         1.01637813        1.95049510        0.35125640  H
       atom_frac         1.10719633        1.93907558        0.47187092  H
       atom_frac         3.30214027        0.89176119        0.16778172  O
       atom_frac         3.22022423        0.84738645        0.16499637  H
       atom_frac         3.33371906        0.85863341        0.08204699  H
       atom_frac         1.22725865       -0.64935061        2.57567591  O
       atom_frac         1.12392466       -0.64676421        2.55031949  H
       atom_frac         1.23270957       -0.64409052        2.66795580  H
       atom_frac         0.70571027        0.86388030        1.20277520  O
       atom_frac         0.64745954        0.94149246        1.24919429  H
       atom_frac         0.69962392        0.89097553        1.11190625  H
       atom_frac        -0.27657069        2.59380504       -1.05930539  O
       atom_frac        -0.21044201        2.57283372       -1.00475560  H
       atom_frac        -0.27195923        2.49024773       -1.06776091  H
       atom_frac        -0.19023707       -0.70596099        0.95869685  O
       atom_frac        -0.15385802       -0.73336886        0.87159076  H
       atom_frac        -0.26654993       -0.76319665        0.98205359  H

 
  Finished reading input file 'geometry.in'.
 

 
  Consistency checks for stacksize environment parameter are next.
 
  | Maximum stacksize for task 0: unlimited
  | Maximum stacksize for task 1: unlimited
  | Maximum stacksize for task 2: unlimited
  | Maximum stacksize for task 3: unlimited
  | Maximum stacksize for task 4: unlimited
  | Maximum stacksize for task 5: unlimited
  | Maximum stacksize for task 6: unlimited
  | Maximum stacksize for task 7: unlimited
  | Maximum stacksize for task 8: unlimited
  | Maximum stacksize for task 9: unlimited
  | Maximum stacksize for task 10: unlimited
  | Maximum stacksize for task 11: unlimited
  | Maximum stacksize for task 12: unlimited
  | Maximum stacksize for task 13: unlimited
  | Maximum stacksize for task 14: unlimited
  | Maximum stacksize for task 15: unlimited
  | Maximum stacksize for task 16: unlimited
  | Maximum stacksize for task 17: unlimited
  | Current stacksize for task 0: unlimited
  | Current stacksize for task 1: unlimited
  | Current stacksize for task 2: unlimited
  | Current stacksize for task 3: unlimited
  | Current stacksize for task 4: unlimited
  | Current stacksize for task 5: unlimited
  | Current stacksize for task 6: unlimited
  | Current stacksize for task 7: unlimited
  | Current stacksize for task 8: unlimited
  | Current stacksize for task 9: unlimited
  | Current stacksize for task 10: unlimited
  | Current stacksize for task 11: unlimited
  | Current stacksize for task 12: unlimited
  | Current stacksize for task 13: unlimited
  | Current stacksize for task 14: unlimited
  | Current stacksize for task 15: unlimited
  | Current stacksize for task 16: unlimited
  | Current stacksize for task 17: unlimited
 
  Consistency checks for the contents of control.in are next.
 
  MPI_IN_PLACE appears to work with this MPI implementation.
  | Keeping use_mpi_in_place .true. (see manual).
  Explicit treatment of the Coulomb operator is needed, but the RI method is not specified.
  Coulomb operator: Defaulting to 'LVL fast' resolution of identity - RI_type = LVL_fast
  Species H: Using default value for prodbas_acc =   1.000000E-06.
  Species H: Using default value max_l_prodbas =     6.
  Species O: Using default value for prodbas_acc =   1.000000E-06.
  Species O: Using default value max_l_prodbas =     6.
  Target number of points in a grid batch is not set.  Since GPU acceleration is enabled, defaulting to  200
  Method for grid partitioning is not set. Defaulting to parallel hash+maxmin partitioning.
  Batch size limit is not set. Defaulting to    200
  By default, will store active basis functions for each batch.
  If in need of memory, prune_basis_once .false. can be used to disable this option.
  communication_type for Hartree potential was not specified.
  Defaulting to calc_hartree .
  Defaulting to Pulay charge density mixer.
  Pulay mixer: Number of relevant iterations not set.
  Defaulting to    8 iterations.
  Pulay mixer: Number of initial linear mixing iterations not set.
  Defaulting to    0 iterations.
  Work space size for distributed Hartree potential not set.
  Defaulting to   0.200000E+03 MB.
  Mixing parameter for charge density mixing has not been set.
  Using default: charge_mix_param =     0.0500.
  The mixing parameter will be adjusted in iteration number     2 of the first full s.c.f. cycle only.
  Algorithm-dependent basis array size parameters:
  | n_max_pulay                         :        8
  Maximum number of self-consistency iterations not provided.
  Presetting  1000 iterations.
  Presetting      1001 iterations before the initial mixing cycle
  is restarted anyway using the sc_init_iter criterion / keyword.
  Presetting a factor      1.000 between actual scf density residual
  and density convergence criterion sc_accuracy_rho below which sc_init_iter
  takes no effect.
  Calculation of forces was not defined in control.in. No forces will be calculated.
  Geometry relaxation not requested: no relaxation will be performed.
  No accuracy limit for integral partition fn. given. Defaulting to  0.1000E-14.
  No occupation type (smearing scheme) given. Defaulting to Gaussian broadening, width =  0.1000E-01 eV.
  The width will be adjusted in iteration number     2 of the first full s.c.f. cycle only.
  S.C.F. convergence parameters will be adjusted in iteration number     2 of the first full s.c.f. cycle only.
  No accuracy for occupation numbers given. Defaulting to  0.1000E-12.
  No threshold value for occupation numbers given. Defaulting to  0.0000E+00.
  No accuracy for fermi level given. Defaulting to  0.1000E-19.
  Maximum # of iterations to find E_F not set. Defaulting to  200.
  Preferred method for the eigenvalue solver ('KS_method') not specified in 'control.in'.
  Calling BLACS routine to test compilation state
  Since ScaLAPACK support is enabled, defaulting to ELPA (via ELSI).
  Will not use alltoall communication since running on < 1024 CPUs.
  Threshold for basis singularities not set.
  Default threshold for basis singularities:  0.1000E-04
  partition_type (choice of integration weights) for integrals was not specified.
  | Using a version of the partition function of Stratmann and coworkers ('stratmann_sparse').
  | At each grid point, the set of atoms used to build the partition table is smoothly restricted to
  | only those atoms whose free-atom density would be non-zero at that grid point.
  Partitioning for Hartree potential was not defined. Using partition_type for integrals.
  | Adjusted default value of keyword multip_moments_threshold to:       0.10000000E-11
  | This value may affect high angular momentum components of the Hartree potential in periodic systems.
  Angular momentum expansion for Kerker preconditioner not set explicitly.
  | Using default value of   0
  No explicit requirement for turning off preconditioner.
  | By default, it will be turned off when the charge convergence reaches
  | sc_accuracy_rho  =   0.100000E-05
  No special mixing parameter while Kerker preconditioner is on.
  Using default: charge_mix_param =     0.0500.
  Threshold for auxiliary basis singularities not set.
  Default threshold for auxiliary basis singularities:  0.1000E-04
  No q(lm)/r^(l+1) cutoff set for long-range Hartree potential.
  | Using default value of  0.100000E-09 .
  | Verify using the multipole_threshold keyword.
  Defaulting to new monopole extrapolation.
  Density update method: automatic selection selected.
  Using density matrix based charge density update.
  Using density matrix based charge density update.
  Using packed matrix style: index .
  Defaulting to use time-reversal symmetry for k-point grid.
  Charge integration errors on the 3D integration grid will be compensated
  by explicit normalization and distribution of residual charges.
  Use the "compensate_multipole_errors" flag to change this behaviour.
  Default to 1D ("use_logsbt") integrations for auxiliary 2-center integrals.
  Default onset of logarithmic r-grid for SBT is -38.000000000000
  Default onset of logarithmic k-grid for SBT is -25.000000000000
  Default range of logarithmic r- and k-grid for SBT is  45.000000000000
  Default number of logarithmic r- and k-grid for SBT is   4096
  Default of use_2d_corr is to use the efficient 2D distribution where possible
 
  Consistency checks for the contents of geometry.in are next.
 

  Range separation radius for Ewald summation (hartree_convergence_parameter):      2.97120547 bohr.
  Number of empty states per atom not set in control.in .
  | Since you are using a method that relies on the unoccupied spectrum
  | (MP2,GW,RPA et al.), will use the full Hamiltonian size (see below)
  | as the max. possible number of states (occupied plus empty).

  Structure-dependent array size parameters: 
  | Maximum number of distinct radial functions  :        9
  | Maximum number of basis functions            :      768
  | Number of Kohn-Sham states (occupied + empty):      768
------------------------------------------------------------

  Performing system and environment tests:
  | Environment variable OMP_NUM_THREADS correctly set to 1.
  | Checking for ScaLAPACK...
  | Testing pdtran()...
  | All pdtran() tests passed.
CUDA runtime version: 11060
CUDA driver version: 11060
  Initializing GPUs...

  Number of GPUs available to MPI task         0 :   1
  Number of GPUs available to MPI task         1 :   1
  Number of GPUs available to MPI task         2 :   1
  Number of GPUs available to MPI task         3 :   1
  Number of GPUs available to MPI task         4 :   1
  Number of GPUs available to MPI task         5 :   1
  Number of GPUs available to MPI task         6 :   1
  Number of GPUs available to MPI task         7 :   1
  Number of GPUs available to MPI task         8 :   1
  Number of GPUs available to MPI task         9 :   1
  Number of GPUs available to MPI task        10 :   1
  Number of GPUs available to MPI task        11 :   1
  Number of GPUs available to MPI task        12 :   1
  Number of GPUs available to MPI task        13 :   1
  Number of GPUs available to MPI task        14 :   1
  Number of GPUs available to MPI task        15 :   1
  Number of GPUs available to MPI task        16 :   1
  Number of GPUs available to MPI task        17 :   1

  | MPI task         0, GPU activated = T, Device Name = NVIDIA A100-SXM4-80GB
  | MPI task         1, GPU activated = T, Device Name = NVIDIA A100-SXM4-80GB
  | MPI task         2, GPU activated = T, Device Name = NVIDIA A100-SXM4-80GB
  | MPI task         3, GPU activated = T, Device Name = NVIDIA A100-SXM4-80GB
  | MPI task         4, GPU activated = T, Device Name = NVIDIA A100-SXM4-80GB
  | MPI task         5, GPU activated = T, Device Name = NVIDIA A100-SXM4-80GB
  | MPI task         6, GPU activated = T, Device Name = NVIDIA A100-SXM4-80GB
  | MPI task         7, GPU activated = T, Device Name = NVIDIA A100-SXM4-80GB
  | MPI task         8, GPU activated = T, Device Name = NVIDIA A100-SXM4-80GB
  | MPI task         9, GPU activated = T, Device Name = NVIDIA A100-SXM4-80GB
  | MPI task        10, GPU activated = T, Device Name = NVIDIA A100-SXM4-80GB
  | MPI task        11, GPU activated = T, Device Name = NVIDIA A100-SXM4-80GB
  | MPI task        12, GPU activated = T, Device Name = NVIDIA A100-SXM4-80GB
  | MPI task        13, GPU activated = T, Device Name = NVIDIA A100-SXM4-80GB
  | MPI task        14, GPU activated = T, Device Name = NVIDIA A100-SXM4-80GB
  | MPI task        15, GPU activated = T, Device Name = NVIDIA A100-SXM4-80GB
  | MPI task        16, GPU activated = T, Device Name = NVIDIA A100-SXM4-80GB
  | MPI task        17, GPU activated = T, Device Name = NVIDIA A100-SXM4-80GB

------------------------------------------------------------
          Preparing all fixed parts of the calculation.
------------------------------------------------------------
  Determining machine precision:
    2.225073858507201E-308
  Setting up grids for atomic and cluster calculations.

  Creating wave function, potential, and density for free atoms.
  Runtime choices for atomic solver:
  | atomic solver xc        : PW-LDA
  | compute density gradient: 0
  | compute kinetic density : F

  Species: H

  List of occupied orbitals and eigenvalues:
    n    l              occ      energy [Ha]    energy [eV]
    1    0           1.0000        -0.232375        -6.3233


  Species: O

  List of occupied orbitals and eigenvalues:
    n    l              occ      energy [Ha]    energy [eV]
    1    0           2.0000       -18.757744      -510.4242
    2    0           2.0000        -0.870917       -23.6989
    2    1           4.0000        -0.337950        -9.1961


  Adding cutoff potential to free-atom effective potential.
  Creating fixed part of basis set: Ionic, confined, hydrogenic.
 
  H                    hydrogenic:
 
  List of hydrogenic basis orbitals: 
    n    l      effective z      eigenvalue [eV]  inner max. [A]     outer max. [A]     outer radius [A]   
    2    0         2.100000       -14.9728           0.193243           1.317208           4.696947
    2    1         3.500000       -41.6669           0.602369           0.602369           3.862494
 
 
  O                    hydrogenic:
 
  List of hydrogenic basis orbitals: 
    n    l      effective z      eigenvalue [eV]  inner max. [A]     outer max. [A]     outer radius [A]   
    2    1         1.800000       -10.9749           1.164242           1.164242           4.691341
    3    2         7.600000       -87.3180           0.624125           0.624125           3.413946
    3    0         6.400000       -61.9207           0.061167           1.081902           4.151495
 
  Creating atomic-like basis functions for current effective potential.

  Species H                   :

  List of atomic basis orbitals and eigenvalues:
    n    l      energy [Ha]    energy [eV]    outer radius [A]
    1    0        -0.232375        -6.3233       4.696947


  Species O                   :

  List of atomic basis orbitals and eigenvalues:
    n    l      energy [Ha]    energy [eV]    outer radius [A]
    1    0       -18.757744      -510.4242       1.830144
    2    0        -0.870917       -23.6989       4.578029
    2    1        -0.337950        -9.1961       4.634338

  Assembling full basis from fixed parts.
  | Species H :   atomic orbital   1 s accepted.
  | Species H :    hydro orbital   2 s accepted.
  | Species H :    hydro orbital   2 p accepted.
  | Species O :   atomic orbital   1 s accepted.
  | Species O :    hydro orbital   3 s accepted.
  | Species O :   atomic orbital   2 s accepted.
  | Species O :   atomic orbital   2 p accepted.
  | Species O :    hydro orbital   2 p accepted.
  | Species O :    hydro orbital   3 d accepted.
 
  Basis size parameters after reduction:
  | Total number of radial functions:        9
  | Total number of basis functions :      768
 
  Per-task memory consumption for arrays in subroutine allocate_ext:
  |           2.268304MB.
  Testing on-site integration grid accuracy.
  |  Species  Function  <phi|h_atom|phi> (log., in eV)  <phi|h_atom|phi> (rad., in eV)
           1        1                 -6.3245358373                 -6.3232436907
           1        2                 14.1326137532                 14.1384481100
           1        3                 25.3627025200                 25.3628451197
           2        4               -510.4241781764               -510.4240769407
           2        5                 14.9072942213                 14.9072945271
           2        6                -21.2004736474                -21.2005650551
           2        7                 -9.1962086505                 -9.1963509834
           2        8                  8.1896755006                  8.1702200081
           2        9                 45.7920584937                 45.7920228520

  Preparing densities etc. for the partition functions (integrals / Hartree potential).

  Preparations completed.
  max(cpu_time)          :      0.067 s.
  Wall clock time (cpu1) :      0.067 s.
------------------------------------------------------------

  Initializing index lists of integration centers etc. from given atomic structure:
  Mapping all atomic coordinates to central unit cell.

  Initializing the k-points
  Using symmetry for reducing the k-points
  | k-points reduced from:        1 to        1
  | Number of k-points                             :         1
  | Consuming          0 KiB for k_phase_exx.
  The eigenvectors in the calculations are REAL.
  | Number of basis functions in the Hamiltonian integrals :      4308
  | Number of basis functions in a single unit cell        :       768
  | Number of centers in hartree potential         :      2583
  | Number of centers in hartree multipole         :      1918
  | Number of centers in electron density summation:      1504
  | Number of centers in basis integrals           :      1600
  | Number of centers in integrals                 :       693
  | Number of centers in hamiltonian               :      1504
  | Consuming          0 KiB for k_phase.
  | Number of super-cells (origin) [n_cells]                     :         125
  | Number of super-cells (after PM_index) [n_cells]             :          28
  | Number of super-cells in hamiltonian [n_cells_in_hamiltonian]:          28
  | Size of matrix packed + index [n_hamiltonian_matrix_size] :      794986
  | Size of matrix packed + index (no_symmetry):     1589203

------------------------------------------------------------
          Begin self-consistency loop: Initialization.

          Date     :  20230221, Time     :  142050.382
------------------------------------------------------------
  | Estimated reciprocal-space cutoff momentum G_max:         3.18230770 bohr^-1 .
  | Reciprocal lattice points for long-range Hartree potential:    3430
  Using simple linear distribution as default method for k-point parallelism.
  * Using 18 tasks for Scalapack Eigenvalue solver.
  Detailed listing of tasks and assigned k-points:
   Task     0 k-point     1 on adag038
   Task     1 k-point     1 on adag038
   Task     2 k-point     1 on adag038
   Task     3 k-point     1 on adag038
   Task     4 k-point     1 on adag038
   Task     5 k-point     1 on adag038
   Task     6 k-point     1 on adag038
   Task     7 k-point     1 on adag038
   Task     8 k-point     1 on adag038
   Task     9 k-point     1 on adag038
   Task    10 k-point     1 on adag038
   Task    11 k-point     1 on adag038
   Task    12 k-point     1 on adag038
   Task    13 k-point     1 on adag038
   Task    14 k-point     1 on adag038
   Task    15 k-point     1 on adag038
   Task    16 k-point     1 on adag038
   Task    17 k-point     1 on adag038
  K-point:     1 Tasks:    18 split into      6 X      3 BLACS grid
  Calculating block size based on n_basis =          768  max_nprow =            6  max_npcol =            3
  ScaLAPACK block size set to:           16
  Allocating        0.250 MB for ovlp
  Allocating        0.250 MB for ham
  Allocating        0.250 MB for eigenvec
  Required Scalapack workspace - INTEGER:            1  REAL:             1
  Partitioning the integration grid into batches with parallel hashing+maxmin method.
  | Number of batches:     3851
  | Maximal batch size:     200
  | Minimal batch size:      99
  | Average batch size:     132.321
  | Standard deviation of batch sizes:      30.078

  Integration load balanced across    18 MPI tasks.
  Work distribution over tasks is as follows:
  Task     0 has      28264 integration points.
  Task     1 has      28248 integration points.
  Task     2 has      28316 integration points.
  Task     3 has      28323 integration points.
  Task     4 has      28327 integration points.
  Task     5 has      28252 integration points.
  Task     6 has      28425 integration points.
  Task     7 has      28344 integration points.
  Task     8 has      28294 integration points.
  Task     9 has      28239 integration points.
  Task    10 has      28306 integration points.
  Task    11 has      28306 integration points.
  Task    12 has      28407 integration points.
  Task    13 has      28328 integration points.
  Task    14 has      28320 integration points.
  Task    15 has      28312 integration points.
  Task    16 has      28264 integration points.
  Task    17 has      28293 integration points.
  Initializing partition tables, free-atom densities, potentials, etc. across the integration grid (initialize_grid_storage).
  | initialize_grid_storage: Actual outermost partition radius vs. multipole_radius_free
  | (-- VB: in principle, multipole_radius_free should be larger, hence this output)
  | Species        1: Confinement radius =              4.999999999999999 AA, multipole_radius_free =              5.054417573612229 AA.
  | Species        1: outer_partition_radius set to              5.054417573612229 AA .
  | Species        2: Confinement radius =              4.999999999999999 AA, multipole_radius_free =              5.048384829883283 AA.
  | Species        2: outer_partition_radius set to              5.048384829883283 AA .
  | The sparse table of interatomic distances needs       5377.82 kbyte instead of     20480.00 kbyte of memory.
  | Net number of integration points:   509568
  | of which are non-zero points    :   406048
  | Numerical average free-atom electrostatic potential    :     -5.45045492 eV
  Renormalizing the initial density to the exact electron count on the 3D integration grid.
  | Initial density: Formal number of electrons (from input files) :     320.0000000000
  | Integrated number of electrons on 3D grid     :     319.9993549708
  | Charge integration error                      :      -0.0006450292
  | Normalization factor for density and gradient :       1.0000020157
  Renormalizing the free-atom superposition density to the exact electron count on the 3D integration grid.
  | Formal number of electrons (from input files) :     320.0000000000
  | Integrated number of electrons on 3D grid     :     319.9993549708
  | Charge integration error                      :      -0.0006450292
  | Normalization factor for density and gradient :       1.0000020157
  Obtaining max. number of non-zero basis functions in each batch (get_n_compute_maxes).
  | Maximal number of non-zero basis functions:      459 in task     0
  | Maximal number of non-zero basis functions:      424 in task     1
  | Maximal number of non-zero basis functions:      438 in task     2
  | Maximal number of non-zero basis functions:      424 in task     3
  | Maximal number of non-zero basis functions:      422 in task     4
  | Maximal number of non-zero basis functions:      433 in task     5
  | Maximal number of non-zero basis functions:      451 in task     6
  | Maximal number of non-zero basis functions:      431 in task     7
  | Maximal number of non-zero basis functions:      419 in task     8
  | Maximal number of non-zero basis functions:      415 in task     9
  | Maximal number of non-zero basis functions:      432 in task    10
  | Maximal number of non-zero basis functions:      429 in task    11
  | Maximal number of non-zero basis functions:      426 in task    12
  | Maximal number of non-zero basis functions:      450 in task    13
  | Maximal number of non-zero basis functions:      416 in task    14
  | Maximal number of non-zero basis functions:      423 in task    15
  | Maximal number of non-zero basis functions:      440 in task    16
  | Maximal number of non-zero basis functions:      422 in task    17
  Integrating Hamiltonian matrix: batch-based integration.
  GPU acceleration will be used when integrating the Hamiltonian matrix.
  Reporting GPU memory usage by myid 0.  Note that it is likely not the only MPI task binding to its GPU!
  Allocating        1.685 MB on GPU for hamiltonian_shell
  Allocating        0.734 MB on GPU for wave
  Allocating        0.002 MB on GPU for partition
  Allocating        0.734 MB on GPU for h_times_psi
  Time summed over all CPUs for integration: real work       13.286 s, elapsed       13.767 s
  Deallocating memory used on GPU for Hamiltonian integration.
  Integrating overlap matrix.
  Time summed over all CPUs for integration: real work       10.416 s, elapsed       10.885 s
  Deallocating overlap matrix.

  Updating Kohn-Sham eigenvalues and eigenvectors using ELSI and the ELPA eigensolver.
  Singularity check in k-point 1 (analysis for other k-points may follow below):
  Overlap matrix is not singular
  | Lowest and highest eigenvalues :  0.2120E-02,  0.7371E+01
  Finished singularity check of overlap matrix
  | Time :     0.167 s
  Starting ELPA eigensolver (GPU)
  Finished Cholesky decomposition
  | Time :     0.007 s
  Finished transformation to standard eigenproblem
  | Time :     0.031 s
  Finished solving standard eigenproblem
  | Time :     0.218 s
  Finished back-transformation of eigenvectors
  | Time :     0.020 s

  Obtaining occupation numbers and electronic chemical potential using ELSI.
  | Note that, for insulating systems, the printed 'chemical potential' value is not uniquely defined.
  | It can be anywhere in the energy gap, as long as it correctly separates occupied and unoccupied states.
  | In systems with a gap, the physically relevant chemical potential is the VBM or HOMO.

  | Chemical potential (Fermi level):    -6.53259138 eV
  Writing Kohn-Sham eigenvalues.

  State    Occupation    Eigenvalue [Ha]    Eigenvalue [eV]
      1       2.00000         -18.934541         -515.23508
      2       2.00000         -18.896614         -514.20304
      3       2.00000         -18.894918         -514.15687
      4       2.00000         -18.894404         -514.14288
      5       2.00000         -18.891254         -514.05717
      6       2.00000         -18.889070         -513.99776
      7       2.00000         -18.888688         -513.98735
      8       2.00000         -18.886589         -513.93024
      9       2.00000         -18.885571         -513.90253
     10       2.00000         -18.885232         -513.89332
     11       2.00000         -18.883611         -513.84919
     12       2.00000         -18.877270         -513.67666
     13       2.00000         -18.876194         -513.64737
     14       2.00000         -18.873746         -513.58076
     15       2.00000         -18.872842         -513.55615
     16       2.00000         -18.871605         -513.52249
     17       2.00000         -18.871262         -513.51316
     18       2.00000         -18.869846         -513.47462
     19       2.00000         -18.869300         -513.45978
     20       2.00000         -18.868710         -513.44372
     21       2.00000         -18.865918         -513.36776
     22       2.00000         -18.863815         -513.31053
     23       2.00000         -18.861095         -513.23651
     24       2.00000         -18.860444         -513.21878
     25       2.00000         -18.849806         -512.92932
     26       2.00000         -18.845629         -512.81565
     27       2.00000         -18.844979         -512.79798
     28       2.00000         -18.843456         -512.75654
     29       2.00000         -18.839479         -512.64831
     30       2.00000         -18.838542         -512.62281
     31       2.00000         -18.836293         -512.56162
     32       2.00000         -18.833819         -512.49430
     33       2.00000          -1.196622          -32.56175
     34       2.00000          -1.151880          -31.34425
     35       2.00000          -1.148552          -31.25368
     36       2.00000          -1.144798          -31.15154
     37       2.00000          -1.141049          -31.04951
     38       2.00000          -1.138218          -30.97249
     39       2.00000          -1.136595          -30.92833
     40       2.00000          -1.133145          -30.83444
     41       2.00000          -1.127491          -30.68058
     42       2.00000          -1.126214          -30.64584
     43       2.00000          -1.117485          -30.40832
     44       2.00000          -1.115032          -30.34157
     45       2.00000          -1.111373          -30.24200
     46       2.00000          -1.108651          -30.16792
     47       2.00000          -1.105258          -30.07561
     48       2.00000          -1.100735          -29.95251
     49       2.00000          -1.099287          -29.91313
     50       2.00000          -1.097216          -29.85675
     51       2.00000          -1.095922          -29.82156
     52       2.00000          -1.092152          -29.71896
     53       2.00000          -1.090068          -29.66225
     54       2.00000          -1.087146          -29.58274
     55       2.00000          -1.081469          -29.42827
     56       2.00000          -1.075149          -29.25629
     57       2.00000          -1.059103          -28.81965
     58       2.00000          -1.058174          -28.79437
     59       2.00000          -1.051518          -28.61326
     60       2.00000          -1.050064          -28.57370
     61       2.00000          -1.049429          -28.55643
     62       2.00000          -1.041492          -28.34044
     63       2.00000          -1.034508          -28.15038
     64       2.00000          -1.032624          -28.09912
     65       2.00000          -0.734449          -19.98539
     66       2.00000          -0.687779          -18.71543
     67       2.00000          -0.686134          -18.67067
     68       2.00000          -0.678823          -18.47170
     69       2.00000          -0.675168          -18.37226
     70       2.00000          -0.674742          -18.36068
     71       2.00000          -0.665098          -18.09825
     72       2.00000          -0.662388          -18.02448
     73       2.00000          -0.661383          -17.99714
     74       2.00000          -0.653799          -17.79077
     75       2.00000          -0.653120          -17.77229
     76       2.00000          -0.652094          -17.74438
     77       2.00000          -0.649186          -17.66525
     78       2.00000          -0.648186          -17.63803
     79       2.00000          -0.645833          -17.57401
     80       2.00000          -0.641064          -17.44424
     81       2.00000          -0.640168          -17.41987
     82       2.00000          -0.637242          -17.34022
     83       2.00000          -0.632743          -17.21781
     84       2.00000          -0.629617          -17.13274
     85       2.00000          -0.627946          -17.08727
     86       2.00000          -0.625813          -17.02923
     87       2.00000          -0.620642          -16.88854
     88       2.00000          -0.615350          -16.74453
     89       2.00000          -0.611349          -16.63567
     90       2.00000          -0.607902          -16.54185
     91       2.00000          -0.607173          -16.52203
     92       2.00000          -0.598553          -16.28745
     93       2.00000          -0.596730          -16.23786
     94       2.00000          -0.584444          -15.90353
     95       2.00000          -0.580469          -15.79538
     96       2.00000          -0.576017          -15.67421
     97       2.00000          -0.574374          -15.62950
     98       2.00000          -0.573532          -15.60659
     99       2.00000          -0.566751          -15.42208
    100       2.00000          -0.561266          -15.27282
    101       2.00000          -0.559757          -15.23177
    102       2.00000          -0.556112          -15.13257
    103       2.00000          -0.551661          -15.01145
    104       2.00000          -0.550018          -14.96674
    105       2.00000          -0.546652          -14.87517
    106       2.00000          -0.542560          -14.76381
    107       2.00000          -0.541791          -14.74288
    108       2.00000          -0.540684          -14.71277
    109       2.00000          -0.535046          -14.55935
    110       2.00000          -0.534421          -14.54232
    111       2.00000          -0.531890          -14.47347
    112       2.00000          -0.530589          -14.43806
    113       2.00000          -0.527890          -14.36462
    114       2.00000          -0.523652          -14.24929
    115       2.00000          -0.520250          -14.15673
    116       2.00000          -0.519637          -14.14004
    117       2.00000          -0.518011          -14.09579
    118       2.00000          -0.516095          -14.04367
    119       2.00000          -0.513049          -13.96078
    120       2.00000          -0.507880          -13.82012
    121       2.00000          -0.506416          -13.78028
    122       2.00000          -0.505517          -13.75581
    123       2.00000          -0.503621          -13.70421
    124       2.00000          -0.501934          -13.65832
    125       2.00000          -0.500153          -13.60985
    126       2.00000          -0.494945          -13.46813
    127       2.00000          -0.491248          -13.36753
    128       2.00000          -0.484962          -13.19650
    129       2.00000          -0.480931          -13.08679
    130       2.00000          -0.476162          -12.95703
    131       2.00000          -0.474236          -12.90460
    132       2.00000          -0.473173          -12.87569
    133       2.00000          -0.472561          -12.85904
    134       2.00000          -0.470294          -12.79736
    135       2.00000          -0.469133          -12.76576
    136       2.00000          -0.468944          -12.76061
    137       2.00000          -0.466917          -12.70546
    138       2.00000          -0.464982          -12.65282
    139       2.00000          -0.463562          -12.61416
    140       2.00000          -0.462864          -12.59517
    141       2.00000          -0.461507          -12.55826
    142       2.00000          -0.460895          -12.54158
    143       2.00000          -0.460166          -12.52176
    144       2.00000          -0.453944          -12.35244
    145       2.00000          -0.453142          -12.33061
    146       2.00000          -0.452185          -12.30458
    147       2.00000          -0.451752          -12.29280
    148       2.00000          -0.449246          -12.22461
    149       2.00000          -0.448578          -12.20641
    150       2.00000          -0.448032          -12.19158
    151       2.00000          -0.445638          -12.12643
    152       2.00000          -0.445361          -12.11890
    153       2.00000          -0.440317          -11.98163
    154       2.00000          -0.437530          -11.90579
    155       2.00000          -0.436245          -11.87083
    156       2.00000          -0.433791          -11.80405
    157       2.00000          -0.432907          -11.78001
    158       2.00000          -0.428640          -11.66388
    159       2.00000          -0.427134          -11.62291
    160       2.00000          -0.426024          -11.59271
    161       0.00000          -0.176081           -4.79141
    162       0.00000          -0.122231           -3.32608
    163       0.00000          -0.113190           -3.08005
    164       0.00000          -0.110558           -3.00844
    165       0.00000          -0.105588           -2.87320
    166       0.00000          -0.103464           -2.81540
    167       0.00000          -0.097756           -2.66008
    168       0.00000          -0.076416           -2.07939
    169       0.00000          -0.072185           -1.96426
    170       0.00000          -0.070251           -1.91162
    171       0.00000          -0.060859           -1.65605
    172       0.00000          -0.057400           -1.56195
    173       0.00000          -0.053491           -1.45557
    174       0.00000          -0.051526           -1.40208
    175       0.00000          -0.050409           -1.37169
    176       0.00000          -0.046664           -1.26979
    177       0.00000          -0.044289           -1.20517
    178       0.00000          -0.036000           -0.97960
    179       0.00000          -0.028503           -0.77562
    180       0.00000          -0.024674           -0.67143
    181       0.00000          -0.017446           -0.47472
    182       0.00000          -0.011701           -0.31839
    183       0.00000          -0.007469           -0.20325
    184       0.00000          -0.002061           -0.05608
    185       0.00000           0.004932            0.13420
    186       0.00000           0.007811            0.21254
    187       0.00000           0.013392            0.36440
    188       0.00000           0.020642            0.56169
    189       0.00000           0.022896            0.62304
    190       0.00000           0.024904            0.67767
    191       0.00000           0.027882            0.75871
    192       0.00000           0.029306            0.79746
    193       0.00000           0.035221            0.95841
    194       0.00000           0.037198            1.01221
    195       0.00000           0.040761            1.10917
    196       0.00000           0.043511            1.18398
    197       0.00000           0.048813            1.32827
    198       0.00000           0.050823            1.38295
    199       0.00000           0.052897            1.43940
    200       0.00000           0.057079            1.55319
    201       0.00000           0.061737            1.67994
    202       0.00000           0.064429            1.75320
    203       0.00000           0.066444            1.80802
    204       0.00000           0.070494            1.91824
    205       0.00000           0.070498            1.91836
    206       0.00000           0.072231            1.96550
    207       0.00000           0.074302            2.02186
    208       0.00000           0.077419            2.10667
    209       0.00000           0.078524            2.13675
    210       0.00000           0.079763            2.17047
    211       0.00000           0.082492            2.24471
    212       0.00000           0.087477            2.38037
    213       0.00000           0.089758            2.44244
    214       0.00000           0.094145            2.56183
    215       0.00000           0.095581            2.60089
    216       0.00000           0.095983            2.61183
    217       0.00000           0.100420            2.73257
    218       0.00000           0.103984            2.82955
    219       0.00000           0.110232            2.99956
    220       0.00000           0.112994            3.07473
    221       0.00000           0.118858            3.23429
    222       0.00000           0.123422            3.35849
    223       0.00000           0.132882            3.61591
    224       0.00000           0.134452            3.65862
    225       0.00000           0.136879            3.72467
    226       0.00000           0.145961            3.97181
    227       0.00000           0.150642            4.09918
    228       0.00000           0.162509            4.42209
    229       0.00000           0.164048            4.46398
    230       0.00000           0.170914            4.65080
    231       0.00000           0.177304            4.82469
    232       0.00000           0.184841            5.02979
    233       0.00000           0.189424            5.15449
    234       0.00000           0.196103            5.33623
    235       0.00000           0.197861            5.38407
    236       0.00000           0.207743            5.65296
    237       0.00000           0.213321            5.80477
    238       0.00000           0.219768            5.98018
    239       0.00000           0.220587            6.00248
    240       0.00000           0.226653            6.16755
    241       0.00000           0.232226            6.31918
    242       0.00000           0.241182            6.56290
    243       0.00000           0.243361            6.62219
    244       0.00000           0.253270            6.89184
    245       0.00000           0.256077            6.96821
    246       0.00000           0.257692            7.01215
    247       0.00000           0.270892            7.37135
    248       0.00000           0.277059            7.53917
    249       0.00000           0.281269            7.65373
    250       0.00000           0.285311            7.76370
    251       0.00000           0.286824            7.80486
    252       0.00000           0.293668            7.99112
    253       0.00000           0.297043            8.08296
    254       0.00000           0.307640            8.37132
    255       0.00000           0.313878            8.54107
    256       0.00000           0.318803            8.67506
    257       0.00000           0.335121            9.11910
    258       0.00000           0.339590            9.24071
    259       0.00000           0.344615            9.37746
[...]
  |    H      0     4.527807 A      4.527807 A        1.268855E-16 a.u.
  |    H      0     4.527807 A      4.583499 A       -4.900954E-17 a.u.
  |    H      0     4.527807 A      4.583499 A        4.713786E-16 a.u.
  |    H      2     3.678162 A  2.180220E+05 A            0.556529 a.u.
  |    H      1     3.958095 A  1.721251E+08 A            0.841931 a.u.
  |    H      0     4.527807 A  3.866455E+16 A            0.581436 a.u.
  |    O      0     2.043000 A      2.043000 A       -1.436841E-16 a.u.
  |    O      3     3.498446 A      3.498446 A        3.043453E-17 a.u.
  |    O      3     3.498446 A      3.498446 A        1.541443E-16 a.u.
  |    O      0     3.905335 A      3.905335 A        2.173090E-16 a.u.
  |    O      0     3.905335 A      3.905335 A        7.213445E-17 a.u.
  |    O      0     4.101052 A      4.101052 A        2.361718E-16 a.u.
  |    O      1     4.101052 A      4.101052 A        3.235185E-17 a.u.
  |    O      0     4.359549 A      4.359549 A       -5.329475E-17 a.u.
  |    O      1     4.413171 A      4.413171 A        3.261883E-17 a.u.
  |    O      1     4.522403 A      4.522403 A        6.417997E-16 a.u.
  |    O      1     4.522403 A      4.522403 A        4.224783E-16 a.u.
  |    O      2     4.522403 A      4.522403 A       -4.387647E-16 a.u.
  |    O      0     4.522403 A      4.578029 A        2.602039E-16 a.u.
  |    O      0     4.578029 A      4.578029 A        1.226235E-16 a.u.
  |    O      1     4.578029 A      4.578029 A       -6.107316E-16 a.u.
  |    O      1     4.578029 A      4.578029 A       -2.224438E-16 a.u.
  |    O      2     4.578029 A      4.578029 A       -7.020279E-16 a.u.
  |    O      2     4.522403 A      4.578029 A        1.323470E-15 a.u.
  |    O      2     4.578029 A      4.578029 A        7.923696E-16 a.u.
  |    O      2     4.522403 A      4.578029 A       -9.951815E-16 a.u.
  |    O      0     4.578029 A      4.634338 A       -8.813582E-18 a.u.
  |    O      1     4.578029 A      4.634338 A       -3.325386E-17 a.u.
  |    O      1     4.634338 A      4.634338 A        9.588032E-16 a.u.
  |    O      2     4.578029 A      4.634338 A        1.064715E-17 a.u.
  |    O      2     4.578029 A      4.634338 A       -3.770343E-15 a.u.
  |    O      4     3.251020 A  1.511584E+03 A            1.513372 a.u.
  |    O      3     3.541477 A  1.434166E+04 A            4.293220 a.u.
  |    O      2     4.634338 A  5.584435E+05 A            9.352428 a.u.
  |    O      1     4.634338 A  2.821283E+08 A            2.261940 a.u.
  |    O      0     4.578029 A  4.264100E+16 A            0.641234 a.u.

  | Shrink_full_auxil_basis : there are       38  radial auxiliary wave functions
                            accepted and       5 rejected.
  | Shrink_full_auxil_basis : there are totally                4544 partial auxiliary wave functions.
 
  | Maximal number of product basis functions per thread :   256   256
 
  | Minimal total memory requirement for three-center overlap :      10.450 Gbs
  | Number of local auxiliary basis functions on task:      0   256
  | Number of local auxiliary basis functions on task:      1   256
  | Number of local auxiliary basis functions on task:      2   256
  | Number of local auxiliary basis functions on task:      3   256
  | Number of local auxiliary basis functions on task:      4   256
  | Number of local auxiliary basis functions on task:      5   256
  | Number of local auxiliary basis functions on task:      6   256
  | Number of local auxiliary basis functions on task:      7   256
  | Number of local auxiliary basis functions on task:      8   256
  | Number of local auxiliary basis functions on task:      9   256
  | Number of local auxiliary basis functions on task:     10   256
  | Number of local auxiliary basis functions on task:     11   256
  | Number of local auxiliary basis functions on task:     12   256
  | Number of local auxiliary basis functions on task:     13   256
  | Number of local auxiliary basis functions on task:     14   240
  | Number of local auxiliary basis functions on task:     15   240
  | Number of local auxiliary basis functions on task:     16   240
  | Number of local auxiliary basis functions on task:     17   240
  | 2D aux task distribution:      3 X      6
  | 2D block size (nb_aux_2d):     64
 
  Basis pair condensation :    295296  -->     228746
 
 --------------------------------------------
  Constructing auxiliary basis (full product) ...
 
  Product basis:
  | charge radius: extent of product basis function
  | field radius: extent of its Coulomb potential
  | Species   l  charge radius    field radius  multipol momen
  |    H      1     3.910002 A      3.910002 A       -2.487223E-16 a.u.
  |    H      1     3.958095 A      3.958095 A       -2.441841E-16 a.u.
  |    H      0     4.527807 A      4.527807 A        1.268855E-16 a.u.
  |    H      0     4.527807 A      4.583499 A       -4.900954E-17 a.u.
  |    H      0     4.527807 A      4.583499 A        4.713786E-16 a.u.
  |    H      2     3.678162 A  2.180220E+05 A            0.556529 a.u.
  |    H      1     3.958095 A  1.721251E+08 A            0.841931 a.u.
  |    H      0     4.527807 A  3.866455E+16 A            0.581436 a.u.
  |    O      0     2.043000 A      2.043000 A       -1.436841E-16 a.u.
  |    O      3     3.498446 A      3.498446 A        3.043453E-17 a.u.
  |    O      3     3.498446 A      3.498446 A        1.541443E-16 a.u.
  |    O      0     3.905335 A      3.905335 A        2.173090E-16 a.u.
  |    O      0     3.905335 A      3.905335 A        7.213445E-17 a.u.
  |    O      0     4.101052 A      4.101052 A        2.361718E-16 a.u.
  |    O      1     4.101052 A      4.101052 A        3.235185E-17 a.u.
  |    O      0     4.359549 A      4.359549 A       -5.329475E-17 a.u.
  |    O      1     4.413171 A      4.413171 A        3.261883E-17 a.u.
  |    O      1     4.522403 A      4.522403 A        6.417997E-16 a.u.
  |    O      1     4.522403 A      4.522403 A        4.224783E-16 a.u.
  |    O      2     4.522403 A      4.522403 A       -4.387647E-16 a.u.
  |    O      0     4.522403 A      4.578029 A        2.602039E-16 a.u.
  |    O      0     4.578029 A      4.578029 A        1.226235E-16 a.u.
  |    O      1     4.578029 A      4.578029 A       -6.107316E-16 a.u.
  |    O      1     4.578029 A      4.578029 A       -2.224438E-16 a.u.
  |    O      2     4.578029 A      4.578029 A       -7.020279E-16 a.u.
  |    O      2     4.522403 A      4.578029 A        1.323470E-15 a.u.
  |    O      2     4.578029 A      4.578029 A        7.923696E-16 a.u.
  |    O      2     4.522403 A      4.578029 A       -9.951815E-16 a.u.
  |    O      0     4.578029 A      4.634338 A       -8.813582E-18 a.u.
  |    O      1     4.578029 A      4.634338 A       -3.325386E-17 a.u.
  |    O      1     4.634338 A      4.634338 A        9.588032E-16 a.u.
  |    O      2     4.578029 A      4.634338 A        1.064715E-17 a.u.
  |    O      2     4.578029 A      4.634338 A       -3.770343E-15 a.u.
  |    O      4     3.251020 A  1.511584E+03 A            1.513372 a.u.
  |    O      3     3.541477 A  1.434166E+04 A            4.293220 a.u.
  |    O      2     4.634338 A  5.584435E+05 A            9.352428 a.u.
  |    O      1     4.634338 A  2.821283E+08 A            2.261940 a.u.
  |    O      0     4.578029 A  4.264100E+16 A            0.641234 a.u.

  | Shrink_full_auxil_basis : there are       38  radial auxiliary wave functions
                            accepted and       5 rejected.
  | Shrink_full_auxil_basis : there are totally                4544 partial auxiliary wave functions.
 
  | Maximal number of product basis functions per thread :   256   256
 
  | Minimal total memory requirement for three-center overlap :      10.450 Gbs
  | Number of local auxiliary basis functions on task:      0   256
  | Number of local auxiliary basis functions on task:      1   256
  | Number of local auxiliary basis functions on task:      2   256
  | Number of local auxiliary basis functions on task:      3   256
  | Number of local auxiliary basis functions on task:      4   256
  | Number of local auxiliary basis functions on task:      5   256
  | Number of local auxiliary basis functions on task:      6   256
  | Number of local auxiliary basis functions on task:      7   256
  | Number of local auxiliary basis functions on task:      8   256
  | Number of local auxiliary basis functions on task:      9   256
  | Number of local auxiliary basis functions on task:     10   256
  | Number of local auxiliary basis functions on task:     11   256
  | Number of local auxiliary basis functions on task:     12   256
  | Number of local auxiliary basis functions on task:     13   256
  | Number of local auxiliary basis functions on task:     14   240
  | Number of local auxiliary basis functions on task:     15   240
  | Number of local auxiliary basis functions on task:     16   240
  | Number of local auxiliary basis functions on task:     17   240
  | 2D aux task distribution:      3 X      6
  | 2D block size (nb_aux_2d):     64
 
  Basis pair condensation :    295296  -->     228746
dP_dE (Bohr^3) at every cycle:--->
 (369.835564924595,0.000000000000000E+000) (-23.9735201164608,0.000000000000000E+000) (1.52858576559506,0.000000000000000E+000)
 (-23.9732547556435,0.000000000000000E+000) (355.060181766601,0.000000000000000E+000) (-5.63148185031023,0.000000000000000E+000)
 (1.53830861871529,0.000000000000000E+000) (-5.61926213519221,0.000000000000000E+000) (361.684057141148,0.000000000000000E+000)
DFPT polarizability (Bohr^3)        xx        yy        zz        xy        xz        yz
  | Polarizability:--->                       369.835564925                  355.060181767                  361.684057141                  -23.973520116                    1.528585766                   -5.631481850

DFPT for dielectric_constant:--->  # PARSE DFPT_dielectric_tensor
               1.720291409854396            -0.046690805973133             0.002977072246711
              -0.046690289156647             1.691514887055187            -0.010967868929416
               0.002996008466605            -0.010944069823367             1.704415540709752

                                               :  max(cpu_time)    wall_clock(cpu1)
  | Time for  dielectric calculation            :        0.000 s           0.000 s
===========================================================================

------------------------------------------------------------------------------
  Final output of selected total energy values:

  The following output summarizes some interesting total energy values
  at the end of a run (AFTER all relaxation, molecular dynamics, etc.).

  | Total energy of the DFT / Hartree-Fock s.c.f. calculation      :         -66108.966198250 eV
  | Final zero-broadening corrected energy (caution - metals only) :         -66108.966198250 eV
  | For reference only, the value of 1 Hartree used in FHI-aims is :             27.211384500 eV
  | For reference only, the overall average (free atom contribution
  | + realspace contribution) of the electrostatic potential after
  | s.c.f. convergence is                                          :             -5.034441684 eV

  Before relying on these values, please be sure to understand exactly which
  total energy value is referred to by a given number. Different objects may
  all carry the same name 'total energy'. Definitions:

  Total energy of the DFT / Hartree-Fock s.c.f. calculation:
  | Note that this energy does not include ANY quantities calculated after the
  | s.c.f. cycle, in particular not ANY RPA, MP2, etc. many-body perturbation terms.

  Final zero-broadening corrected energy:
  | For metallic systems only, a broadening of the occupation numbers at the Fermi
  | level can be extrapolated back to zero broadening by an electron-gas inspired
  | formula. For all systems that are not real metals, this value can be
  | meaningless and should be avoided.

------------------------------------------------------------------------------
  Methods described in the following list of references were used in this FHI-aims run.
  If you publish the results, please make sure to cite these reference if they apply.
  FHI-aims is an academic code, and for our developers (often, Ph.D. students
  and postdocs), scientific credit in the community is essential.
  Thank you for helping us!

  For any use of FHI-aims, please cite:

    Volker Blum, Ralf Gehrke, Felix Hanke, Paula Havu, Ville Havu,
    Xinguo Ren, Karsten Reuter, and Matthias Scheffler
    'Ab initio molecular simulations with numeric atom-centered orbitals'
    Computer Physics Communications 180, 2175-2196 (2009)
    http://doi.org/10.1016/j.cpc.2009.06.022


  For Hartree-Fock, hybrid functionals, or many-body perturbation theory used in your run, please cite:

    Xinguo Ren, Patrick Rinke, Volker Blum, Juergen Wieferink, Alex Tkatchenko,
    Andrea Sanfilippo, Karsten Reuter, and Matthias Scheffler,
    'Resolution-of-identity approach to Hartree-Fock, hybrid density functionals,
    RPA, MP2, and GW with numeric atom-centered orbital basis functions'
    New Journal of Physics 14, 053020 (2012).
    http://doi.org/10.1088/1367-2630/14/5/053020


  The provided symmetry information was generated with SPGlib:

    Atsushi Togo, Yusuke Seto, Dimitar Pashov
    SPGlib 1.7.3 obtained from http://spglib.sourceforge.net
    Copyright (C) 2008 Atsushi Togo


  The DFPT (perturbation by an electric field) part of the code was used.
  Here is the corresponding reference:

    Honghui Shang, Nathaniel Raimbault, Mariana Rossi,
    Christian Carbogno, Patrick Rinke and Matthias Scheffler,
    'All-Electron, Real-Space Perturbation Theory for Homogeneous
    Electric Fields: Theory, Implementation, and Application within dft'
    New Journal of Physics, 20(7):073040, 2018


  The ELSI infrastructure was used in your run to solve the Kohn-Sham electronic structure.
  Please check out http://elsi-interchange.org to learn more.
  If scalability is important for your project, please acknowledge ELSI by citing:

    V. W-z. Yu, F. Corsetti, A. Garcia, W. P. Huhn, M. Jacquelin, W. Jia,
    B. Lange, L. Lin, J. Lu, W. Mi, A. Seifitokaldani, A. Vazquez-Mayagoitia,
    C. Yang, H. Yang, and V. Blum
    'ELSI: A unified software interface for Kohn-Sham electronic structure solvers'
    Computer Physics Communications 222, 267-285 (2018).
    http://doi.org/10.1016/j.cpc.2017.09.007


  For the real-space grid partitioning and parallelization used in this calculation, please cite:

    Ville Havu, Volker Blum, Paula Havu, and Matthias Scheffler,
    'Efficient O(N) integration for all-electron electronic structure calculation'
    'using numerically tabulated basis functions'
    Journal of Computational Physics 228, 8367-8379 (2009).
    http://doi.org/10.1016/j.jcp.2009.08.008


  The high-level electronic structure method used in your calculation
  employed our efficient localized resolution of identity for the Coulomb operator.
  Some calculations, especially large-scale hybrid density functional theory,
  are only possible thanks to this development. For this feature, please cite:

    Arvid Ihrig, Juergen Wieferink, Igor Ying Zhang, Matti Ropo, Xinguo Ren,
    Patrick Rinke, Matthias Scheffler, and Volker Blum,
    'Accurate localized resolution of identity approach for linear-scaling
    hybrid density functionals and for many-body perturbation theory'
    New Journal of Physics 117, 093020 (2015).
    http://doi.org/10.1088/1367-2630/17/9/093020

  Of course, there are many other important community references, e.g., those cited in the
  above references. Our list is limited to references that describe implementations in the
  FHI-aims code. The reason is purely practical (length of this list) - please credit others as well.

------------------------------------------------------------
          Leaving FHI-aims.
          Date     :  20230221, Time     :  142900.141

          Computational steps:
          | Number of self-consistency cycles          :           45
          | Number of SCF (re)initializations          :            1
          | Number of coupled perturbed self-consistency cycles          :            0
          | Number of CPSCF (re)initializations          :            0

          Detailed time accounting                     :  max(cpu_time)    wall_clock(cpu1)
          | Total time                                  :      482.598 s         501.021 s
          | GPU initialization                          :        2.121 s           9.574 s
          | Preparation time                            :        0.067 s           0.067 s
          | Boundary condition initalization            :        1.531 s           1.531 s
          | Grid partitioning                           :        0.446 s           0.447 s
          | Preloading free-atom quantities on grid     :        2.418 s           2.419 s
          | Free-atom superposition energy              :        0.315 s           0.315 s
          | Total time for integrations                 :       12.729 s          13.037 s
          | Product basis setup: Total time             :        0.000 s           0.000 s
          | Product basis: | 2-center integrations     :(       0.000 s)  (       0.000 s)
          | Product basis: | LVL 3-center & coefficient:(       0.000 s)  (       0.000 s)
          | Total time for solution of K.-S. equations  :        3.980 s          13.052 s
          | Total time for density update               :        8.997 s           9.788 s
          | Total time for mixing & preconditioning     :        8.516 s           8.520 s
          | Total time for Hartree multipole update     :        0.106 s           0.104 s
          | Total time for Hartree multipole sum        :       35.633 s          35.645 s
          | Total time for total energy evaluation      :        0.006 s           0.010 s
          | Total time for DFPT                         :      405.251 s         405.413 s
          | Total time first_order_DM                   :        0.310 s           0.313 s
          | Total time first_order_density              :       87.626 s          87.648 s
          | Total time first_order_potential            :       52.463 s          52.483 s
          | Total time first_order_H                    :      174.512 s         174.580 s
          | Total time solving of Sternheimer equations :        0.197 s           0.195 s
          | Total time for dielectric constant          :        0.000 s           0.000 s
          | Total time momentum matrix                  :        0.000 s           0.000 s

          GPU acceleration has been used for charge density update.
          GPU acceleration has been used for real-space Hamiltonian integration.
          Due to GPU usage, wall_clock(cpu1) will give a more reliable estimate for timings.

          Partial memory accounting:
          | Residual value for overall tracked memory usage across tasks:     0.000000 MB (should be 0.000000 MB)
          | Peak values for overall tracked memory usage:
          |   Minimum:      119.025 MB (on task  0 after allocating DFPT_pulay_mixing::pulay_mix::alphas)
          |   Maximum:      119.025 MB (on task  0 after allocating DFPT_pulay_mixing::pulay_mix::alphas)
          |   Average:      119.025 MB
          | Largest tracked array allocation:
          |   Minimum:       42.457 MB (DFPT_pulay_mixing::initialize_pulay_mixing::X_in_diffs on task  0)
          |   Maximum:       42.457 MB (DFPT_pulay_mixing::initialize_pulay_mixing::X_in_diffs on task  0)
          |   Average:       42.457 MB
          Note:  These values currently only include a subset of arrays which are explicitly tracked.
          The "true" memory usage will be greater.

          Have a nice day.
------------------------------------------------------------
