------------------------------------------------------------
          Invoking FHI-aims ...

          When using FHI-aims, please cite the following reference:

            Volker Blum, Ralf Gehrke, Felix Hanke, Paula Havu,
            Ville Havu, Xinguo Ren, Karsten Reuter, and Matthias Scheffler,
            'Ab Initio Molecular Simulations with Numeric Atom-Centered Orbitals',
            Computer Physics Communications 180, 2175-2196 (2009)

          In addition, many other developments in FHI-aims are likely important for
          your particular application. A partial list of references is given at the end of
          this file. Thank you for giving credit to the authors of these developments.

          For any questions about FHI-aims, please visit our slack channel at

            https://fhi-aims.slack.com

          and our main development and support site at

            https://aims-git.rz-berlin.mpg.de .

          The latter site, in particular, has a wiki to collect information, as well
          as an issue tracker to log discussions, suggest improvements, and report issues
          or bugs. https://aims-git.rz-berlin.mpg.de is also the main development site
          of the project and all new and updated code versions can be obtained there.
          Please send an email to aims-coordinators@fhi-berlin.mpg.de and we will add
          you to these sites. They are for you and everyone is welcome there.

------------------------------------------------------------



  Date     :  20230221, Time     :  135903.566
  Time zero on CPU 1             :   0.394318000000000E+00  s.
  Internal wall clock time zero  :           446219943.566  s.

  FHI-aims created a unique identifier for this run for later identification
  aims_uuid : 1C0EEA0B-C5E5-498F-AA6C-BFFAD016535C

  Build configuration of the current instance of FHI-aims
  -------------------------------------------------------
  FHI-aims version      : 221103
  Commit number         : 42523251a
  CMake host system     : Linux-5.3.18-150300.59.68-default
  CMake version         : 3.17.0
  Fortran compiler      : /mpcdf/soft/SLE_15/packages/x86_64/intel_oneapi/2021.3/mpi/2021.3.0/bin/mpiifort (Intel) version 20.2.3.20210609
  Fortran compiler flags: -O3 -ip -fp-model precise
  C compiler            : /mpcdf/soft/SLE_15/packages/x86_64/intel/2021.3.0/bin/icc (Intel) version 20.2.3.20210609
  C compiler flags      : -O3 -ip -fp-model precise -std=gnu99
  CUDA compiler         : /mpcdf/soft/SLE_15/packages/x86_64/cuda/11.6.2/bin/nvcc
  CUDA compiler flags   : -O3 -DAdd_ -lcublas
  HIP compiler          :
  HIP compiler flags    :
  HIP GPU arch          :
  ELPA2 kernel          : AVX512
  Using MPI
  Using ScaLAPACK
  Using LibXC
  Using CUDA
  Using i-PI
  Using RLSY
  Linking against: /mpcdf/soft/SLE_15/packages/x86_64/cuda/11.6.2/lib64/libcublas.so
                   /mpcdf/soft/SLE_15/packages/x86_64/cuda/11.6.2/lib64/libcudart.so
                   /mpcdf/soft/SLE_15/packages/x86_64/intel_oneapi/2021.3/mkl/latest/lib/intel64/libmkl_intel_lp64.so
                   /mpcdf/soft/SLE_15/packages/x86_64/intel_oneapi/2021.3/mkl/latest/lib/intel64/libmkl_sequential.so
                   /mpcdf/soft/SLE_15/packages/x86_64/intel_oneapi/2021.3/mkl/latest/lib/intel64/libmkl_core.so
                   /mpcdf/soft/SLE_15/packages/x86_64/intel_oneapi/2021.3/mkl/latest/lib/intel64/libmkl_blacs_intelmpi_lp64.so
                   /mpcdf/soft/SLE_15/packages/x86_64/intel_oneapi/2021.3/mkl/latest/lib/intel64/libmkl_scalapack_lp64.so

  Using       18 parallel tasks.
  Task        0 on host adag039 reporting.
  Task        1 on host adag039 reporting.
  Task        2 on host adag039 reporting.
  Task        3 on host adag039 reporting.
  Task        4 on host adag039 reporting.
  Task        5 on host adag039 reporting.
  Task        6 on host adag039 reporting.
  Task        7 on host adag039 reporting.
  Task        8 on host adag039 reporting.
  Task        9 on host adag039 reporting.
  Task       10 on host adag039 reporting.
  Task       11 on host adag039 reporting.
  Task       12 on host adag039 reporting.
  Task       13 on host adag039 reporting.
  Task       14 on host adag039 reporting.
  Task       15 on host adag039 reporting.
  Task       16 on host adag039 reporting.
  Task       17 on host adag039 reporting.

  Obtaining array dimensions for all initial allocations:
  
  -----------------------------------------------------------------------
  Parsing control.in (first pass over file, find array dimensions only).
  The contents of control.in will be repeated verbatim below
  unless switched off by setting 'verbatim_writeout .false.' .
  in the first line of control.in .
  -----------------------------------------------------------------------
  
  #########################################################################################
  #
  #  Volker Blum, 2017 : Test run input file control.in for simple H2O
  #
  #########################################################################################
  #
  #  Physical model
  #
    xc                 pw-lda
    spin               none
    relativistic       none
    charge             0.
  
    use_gpu
  
    DFPT dielectric
    ri_density_restart write
    ri_rho1 write
  #  ri_density_restart read 0
  #  ri_rho1 read
    ri_full_output .true.
    sc_accuracy_rho    1d-6
  #  use_calculate_fock_matrix_old .false.
  #  wave_threshold 1e-8
    k_grid 1 1 1
  #  output cube eigenstate 160
  #  output cube eigenstate 161
    wave_threshold 1e-8
    default_prodbas_acc 1e-6
    default_max_l_prodbas 6
  #
  #  Relaxation
  #
  #  relax_geometry   bfgs 1.e-2
  #
  
  ################################################################################
  
  
  ################################################################################
  #
  #  FHI-aims code project
  #  VB, Fritz-Haber Institut, 2009
  #
  #  Suggested "light" defaults for H atom (to be pasted into control.in file)
  #  Be sure to double-check any results obtained with these settings for post-processing,
  #  e.g., with the "tight" defaults and larger basis sets.
  #
  ################################################################################
    species        H
  #     global species definitions
      nucleus             1
      mass                1.00794
  #
      l_hartree           4
  #
      cut_pot             3.5  1.5  1.0
      basis_dep_cutoff    1e-4
  #
      radial_base         24 5.0
      radial_multiplier   1
      angular_grids       specified
        division   0.2421   50
        division   0.3822  110
        division   0.4799  194
        division   0.5341  302
  #      division   0.5626  434
  #      division   0.5922  590
  #      division   0.6542  770
  #      division   0.6868 1202
  #      outer_grid  770
        outer_grid  302
  ################################################################################
  #
  #  Definition of "minimal" basis
  #
  ################################################################################
  #     valence basis states
      valence      1  s   1.
  #     ion occupancy
      ion_occ      1  s   0.5
  ################################################################################
  #
  #  Suggested additional basis functions. For production calculations,
  #  uncomment them one after another (the most important basis functions are
  #  listed first).
  #
  #  Basis constructed for dimers: 0.5 A, 0.7 A, 1.0 A, 1.5 A, 2.5 A
  #
  ################################################################################
  #  "First tier" - improvements: -1014.90 meV to -62.69 meV
       hydro 2 s 2.1
       hydro 2 p 3.5
  #  "Second tier" - improvements: -12.89 meV to -1.83 meV
  #     hydro 1 s 0.85
  #     hydro 2 p 3.7
  #     hydro 2 s 1.2
  #     hydro 3 d 7
  #  "Third tier" - improvements: -0.25 meV to -0.12 meV
  #     hydro 4 f 11.2
  #     hydro 3 p 4.8
  #     hydro 4 d 9
  #     hydro 3 s 3.2
  ################################################################################
  #
  #  FHI-aims code project
  #  VB, Fritz-Haber Institut, 2009
  #
  #  Suggested "light" defaults for O atom (to be pasted into control.in file)
  #  Be sure to double-check any results obtained with these settings for post-processing,
  #  e.g., with the "tight" defaults and larger basis sets.
  #
  ################################################################################
    species        O
  #     global species definitions
      nucleus             8
      mass                15.9994
  #
      l_hartree           4
  #
      cut_pot             3.5  1.5  1.0
      basis_dep_cutoff    1e-4
  #
      radial_base         36 5.0
      radial_multiplier   1
       angular_grids specified
        division   0.2659   50
        division   0.4451  110
        division   0.6052  194
        division   0.7543  302
  #      division   0.8014  434
  #      division   0.8507  590
  #      division   0.8762  770
  #      division   0.9023  974
  #      division   1.2339 1202
  #      outer_grid 974
        outer_grid 302
  ################################################################################
  #
  #  Definition of "minimal" basis
  #
  ################################################################################
  #     valence basis states
      valence      2  s   2.
      valence      2  p   4.
  #     ion occupancy
      ion_occ      2  s   1.
      ion_occ      2  p   3.
  ################################################################################
  #
  #  Suggested additional basis functions. For production calculations,
  #  uncomment them one after another (the most important basis functions are
  #  listed first).
  #
  #  Constructed for dimers: 1.0 A, 1.208 A, 1.5 A, 2.0 A, 3.0 A
  #
  ################################################################################
  #  "First tier" - improvements: -699.05 meV to -159.38 meV
       hydro 2 p 1.8
       hydro 3 d 7.6
       hydro 3 s 6.4
  #  "Second tier" - improvements: -49.91 meV to -5.39 meV
  #     hydro 4 f 11.6
  #     hydro 3 p 6.2
  #     hydro 3 d 5.6
  #     hydro 5 g 17.6
  #     hydro 1 s 0.75
  #  "Third tier" - improvements: -2.83 meV to -0.50 meV
  #     ionic 2 p auto
  #     hydro 4 f 10.8
  #     hydro 4 d 4.7
  #     hydro 2 s 6.8
  #  "Fourth tier" - improvements: -0.40 meV to -0.12 meV
  #     hydro 3 p 5
  #     hydro 3 s 3.3
  #     hydro 5 g 15.6
  #     hydro 4 f 17.6
  #     hydro 4 d 14
  # Further basis functions - -0.08 meV and below
  #     hydro 3 s 2.1
  #     hydro 4 d 11.6
  #     hydro 3 p 16
  #     hydro 2 s 17.2
  
  -----------------------------------------------------------------------
  Completed first pass over input file control.in .
  -----------------------------------------------------------------------
  
  
  -----------------------------------------------------------------------
  Parsing geometry.in (first pass over file, find array dimensions only).
  The contents of geometry.in will be repeated verbatim below
  unless switched off by setting 'verbatim_writeout .false.' .
  in the first line of geometry.in .
  -----------------------------------------------------------------------
  
  #=======================================================
  # FHI-aims file: /ada/ptmp/mpsd/alewis/bulk_water/qmdata/data/geoms/38.in
  # Created using the Atomic Simulation Environment (ASE)
  # Tue Feb 21 11:23:37 2023
  #=======================================================
  lattice_vector 10.0541900000000002 0.0000000000000000 0.0000000000000000
  lattice_vector 0.0000000000000000 10.0541900000000002 0.0000000000000000
  lattice_vector 0.0000000000000000 0.0000000000000000 10.0541900000000002
  atom 6.8437999999999999 6.4465399999999997 -2.2535599999999998 O
  atom 6.1163800000000004 7.0516500000000004 -1.8699500000000000 H
  atom 6.6724199999999998 5.8922299999999996 -3.1127300000000000 H
  atom 3.1462800000000000 18.5660999999999987 5.9052100000000003 O
  atom 3.5136599999999998 17.7139999999999986 5.7014100000000001 H
  atom 2.1905399999999999 18.5564999999999998 6.0320600000000004 H
  atom 2.9086900000000000 5.7285800000000000 5.0927600000000002 O
  atom 3.4677400000000000 6.0382800000000003 4.3435300000000003 H
  atom 3.2740399999999998 4.9234299999999998 5.5436100000000001 H
  atom 0.2631730000000000 0.9818220000000000 -0.1959340000000000 O
  atom -0.3537210000000000 1.5366200000000001 0.3537660000000000 H
  atom 0.7195800000000000 0.7858600000000000 0.6502370000000000 H
  atom -11.3004999999999995 -1.0820099999999999 19.1092000000000013 O
  atom -10.6608999999999998 -0.2490320000000000 19.3561000000000014 H
  atom -12.2910000000000004 -0.7138240000000000 19.2667999999999999 H
  atom 1.8452700000000000 -1.7626599999999999 10.8202999999999996 O
  atom 1.3558600000000001 -2.3683200000000002 11.0821000000000005 H
  atom 1.7071799999999999 -1.1583800000000000 11.5352999999999994 H
  atom 4.1791799999999997 0.9238970000000000 1.3939600000000001 O
  atom 4.2044499999999996 2.0271100000000000 1.1093599999999999 H
  atom 3.8781500000000002 0.5103910000000000 0.5631920000000000 H
  atom 0.4659320000000000 -6.2394100000000003 -3.5794999999999999 O
  atom 0.0548640000000000 -5.4844299999999997 -3.0769700000000002 H
  atom -0.3224710000000000 -6.6707799999999997 -3.9929600000000001 H
  atom 13.2674000000000003 -0.1037960000000000 -1.3263900000000000 O
  atom 12.7562999999999995 -0.6416670000000000 -0.6221270000000000 H
  atom 12.6430000000000007 0.6204860000000000 -1.9252899999999999 H
  atom 5.7966499999999996 2.0344400000000000 6.5916399999999999 O
  atom 5.6734200000000001 1.9861899999999999 7.6493900000000004 H
  atom 5.3598100000000004 1.1087199999999999 6.5954199999999998 H
  atom 12.8973999999999993 11.1595999999999993 -5.3381699999999999 O
  atom 13.4364000000000008 10.5052000000000003 -5.2173900000000000 H
  atom 12.4084000000000003 11.2157999999999998 -4.4870099999999997 H
  atom 3.8077000000000001 -6.1989700000000001 6.7440499999999997 O
  atom 4.2708599999999999 -6.1452900000000001 7.7132699999999996 H
  atom 4.3308999999999997 -7.0283899999999999 6.5557800000000004 H
  atom 7.2993300000000003 5.2843499999999999 -5.1041699999999999 O
  atom 6.7703800000000003 5.7397999999999998 -5.7602300000000000 H
  atom 8.0728100000000005 5.6505799999999997 -5.0703699999999996 H
  atom 0.2461860000000000 8.6976499999999994 6.4155199999999999 O
  atom 0.3740670000000000 9.5326599999999999 6.7722899999999999 H
  atom -0.4265920000000000 8.3941800000000004 6.9550000000000001 H
  atom -4.6206300000000002 -0.3502600000000000 5.7942000000000000 O
  atom -5.4902600000000001 -0.6846670000000000 5.7976200000000002 H
  atom -4.3300599999999996 -0.8837260000000000 4.9950599999999996 H
  atom 3.9549500000000002 15.2971000000000004 11.5630000000000006 O
  atom 3.1536900000000001 14.6624999999999996 11.8612000000000002 H
  atom 4.1294000000000004 14.9499999999999993 10.6984999999999992 H
  atom -8.8922500000000007 0.3955620000000000 2.5093600000000000 O
  atom -9.6218000000000004 0.3967900000000000 3.1850999999999998 H
  atom -8.1240400000000008 0.7632890000000000 3.0092500000000002 H
  atom 0.3795660000000000 6.1666200000000000 21.2893000000000008 O
  atom -0.4954390000000000 6.5568499999999998 21.6236999999999995 H
  atom 0.8057060000000000 5.8155200000000002 22.0972000000000008 H
  atom 1.5630700000000000 1.3392400000000000 -2.7686799999999998 O
  atom 0.9913600000000000 1.4316599999999999 -1.7893300000000001 H
  atom 1.4936700000000001 2.2593000000000001 -3.0914299999999999 H
  atom -4.9739800000000001 4.5119999999999996 -0.9048710000000000 O
  atom -4.3236999999999997 5.1012300000000002 -1.1827099999999999 H
  atom -4.5608899999999997 3.6571899999999999 -0.8782960000000000 H
  atom 15.2189999999999994 -3.6020400000000001 3.5935800000000002 O
  atom 14.9037000000000006 -3.6761900000000001 2.6655500000000001 H
  atom 15.3914000000000009 -2.5635300000000001 3.5371899999999998 H
  atom 8.3626000000000005 18.7984000000000009 2.0748300000000000 O
  atom 8.6016399999999997 19.4527999999999999 2.7794300000000001 H
  atom 8.7600099999999994 19.0043000000000006 1.3142499999999999 H
  atom 2.1299999999999999 13.6024999999999991 13.1325000000000003 O
  atom 1.8748199999999999 14.0932999999999993 13.8493999999999993 H
  atom 2.5586500000000001 12.9210999999999991 13.4308999999999994 H
  atom 7.7334699999999996 5.9689800000000002 11.7356999999999996 O
  atom 7.7716300000000000 6.8981399999999997 11.4593000000000007 H
  atom 7.1570499999999999 5.8347699999999998 12.3864999999999998 H
  atom 0.0945180000000000 6.2603600000000004 4.5291800000000002 O
  atom 0.6088650000000000 5.5904100000000003 4.9525199999999998 H
  atom 0.5568820000000000 6.8901399999999997 4.9801700000000002 H
  atom -1.8368000000000000 3.6830400000000001 10.1808999999999994 O
  atom -1.3146800000000001 4.0253399999999999 9.3152000000000008 H
  atom -2.0942900000000000 4.3626100000000001 10.9167000000000005 H
  atom -3.9724800000000000 12.1341000000000001 9.4676500000000008 O
  atom -4.0580499999999997 11.3290000000000006 10.1595999999999993 H
  atom -3.2628599999999999 12.6427999999999994 9.6239399999999993 H
  atom 9.6373300000000004 5.3618399999999999 8.4464000000000006 O
  atom 10.0482999999999993 5.6339399999999999 9.2250800000000002 H
  atom 9.0588700000000006 6.2323599999999999 8.4708900000000007 H
  atom -2.0144400000000000 12.7263999999999999 5.1661999999999999 O
  atom -2.0305900000000001 13.7219999999999995 5.1847599999999998 H
  atom -2.8442599999999998 12.4192999999999998 5.7558999999999996 H
  atom 5.9491199999999997 -0.8461649999999999 -1.5942499999999999 O
  atom 4.8036199999999996 -0.7172450000000000 -1.4184000000000001 H
  atom 6.0617000000000001 -0.6394710000000000 -2.4964499999999998 H
  atom 8.9883000000000006 0.1217360000000000 4.2691900000000000 O
  atom 9.3941800000000004 -0.1951750000000000 4.9840499999999999 H
  atom 8.6408199999999997 0.9254040000000000 4.4105600000000003 H
  atom 5.5541900000000002 -0.9482800000000000 -6.9193699999999998 O
  atom 4.9379400000000002 -0.4752780000000000 -7.5436899999999998 H
  atom 6.3751800000000003 -0.7992540000000000 -7.4268299999999998 H
  
  -----------------------------------------------------------------------
  Completed first pass over input file geometry.in .
  -----------------------------------------------------------------------
  

  Basic array size parameters:
  | Number of species                 :        2
  | Number of atoms                   :       96
  | Number of lattice vectors         :        3
  | Max. basis fn. angular momentum   :        2
  | Max. atomic/ionic basis occupied n:        2
  | Max. number of basis fn. types    :        2
  | Max. radial fns per species/type  :        3
  | Max. logarithmic grid size        :     1301
  | Max. radial integration grid size :       36
  | Max. angular integration grid size:      302
  | Max. angular grid division number :        8
  | Radial grid for Hartree potential :     1301
  | Number of spin channels           :        1

------------------------------------------------------------
          Reading file control.in.
------------------------------------------------------------
  XC: Using Perdew-Wang parametrisation of Ceperley-Alder LDA.
  Spin treatment: No spin polarisation.
  Non-relativistic treatment of kinetic energy.
  Charge =   0.000000E+00: Neutral system requested explicitly.
  DFPT calculation will begin after the DFT/HF calculation.
  Convergence accuracy of self-consistent charge density:  0.1000E-05
  Found k-point grid:         1         1         1
  Threshold value for wave function integration:  0.1000E-07
 
  Reading configuration options for species H                   .
  | Found nuclear charge :   1.0000
  | Found atomic mass :    1.00794000000000      amu
  | Found l_max for Hartree potential  :   4
  | Found cutoff potl. onset [A], width [A], scale factor :    3.50000    1.50000    1.00000
  | Threshold for basis-dependent cutoff potential is   0.100000E-03
  | Found data for basic radial integration grid :    24 points, outermost radius =    5.000 A
  | Found multiplier for basic radial grid :   1
  | Found angular grid specification: user-specified.
  | Specified grid contains     5 separate shells.
  | Check grid settings after all constraints further below.
  | Found free-atom valence shell :  1 s   1.000
  | No ionic wave fns used. Skipping ion_occ.
  | Found hydrogenic basis function :  2 s   2.100
  | Found hydrogenic basis function :  2 p   3.500
  Species H                   : Missing cutoff potential type.
  Defaulting to exp(1/x)/(1-x)^2 type cutoff potential.
  Species H : No 'logarithmic' tag. Using default grid for free atom:
  | Default logarithmic grid data [bohr] : 0.1000E-03 0.1000E+03 0.1012E+01
  Species H : On-site basis accuracy parameter (for Gram-Schmidt orthonormalisation) not specified.
  Using default value basis_acc =  0.1000000E-03.
  Species H                   : Using default innermost maximum threshold i_radial=  2 for radial functions.
  Species H                   : Default cutoff onset for free atom density etc. : 0.35000000E+01 AA.
  Species H                   : Basic radial grid will be enhanced according to radial_multiplier =   1, to contain    24 grid points.
 
  Reading configuration options for species O                   .
  | Found nuclear charge :   8.0000
  | Found atomic mass :    15.9994000000000      amu
  | Found l_max for Hartree potential  :   4
  | Found cutoff potl. onset [A], width [A], scale factor :    3.50000    1.50000    1.00000
  | Threshold for basis-dependent cutoff potential is   0.100000E-03
  | Found data for basic radial integration grid :    36 points, outermost radius =    5.000 A
  | Found multiplier for basic radial grid :   1
  | Found angular grid specification: user-specified.
  | Specified grid contains     5 separate shells.
  | Check grid settings after all constraints further below.
  | Found free-atom valence shell :  2 s   2.000
  | Found free-atom valence shell :  2 p   4.000
  | No ionic wave fns used. Skipping ion_occ.
  | No ionic wave fns used. Skipping ion_occ.
  | Found hydrogenic basis function :  2 p   1.800
  | Found hydrogenic basis function :  3 d   7.600
  | Found hydrogenic basis function :  3 s   6.400
  Species O                   : Missing cutoff potential type.
  Defaulting to exp(1/x)/(1-x)^2 type cutoff potential.
  Species O : No 'logarithmic' tag. Using default grid for free atom:
  | Default logarithmic grid data [bohr] : 0.1000E-03 0.1000E+03 0.1012E+01
  Species O : On-site basis accuracy parameter (for Gram-Schmidt orthonormalisation) not specified.
  Using default value basis_acc =  0.1000000E-03.
  Species O                   : Using default innermost maximum threshold i_radial=  2 for radial functions.
  Species O                   : Default cutoff onset for free atom density etc. : 0.35000000E+01 AA.
  Species O                   : Basic radial grid will be enhanced according to radial_multiplier =   1, to contain    36 grid points.
 
  Finished reading input file 'control.in'.
 
------------------------------------------------------------


------------------------------------------------------------
          Reading geometry description geometry.in.
------------------------------------------------------------
  | The smallest distance between any two atoms is         0.82151410 AA.
  | The first atom of this pair is atom number                     16 .
  | The second atom of this pair is atom number                    17 .
  | Wigner-Seitz cell of the first atom image           0     0     0 .
  | (The Wigner-Seitz cell of the second atom is 0 0 0  by definition.)

  Symmetry information by spglib:
  | Precision set to  0.1E-04
  | Number of Operations  : 1
  | Space group           : 1
  | International         : P1
  | Schoenflies           : C1^1
  Input structure read successfully.
  The structure contains       96 atoms,  and a total of        320.000 electrons.

  Input geometry:
  | Unit cell:
  |       10.05419000        0.00000000        0.00000000
  |        0.00000000       10.05419000        0.00000000
  |        0.00000000        0.00000000       10.05419000
  | Atomic structure:
  |       Atom                x [A]            y [A]            z [A]
  |    1: Species O             6.84380000        6.44654000       -2.25356000
  |    2: Species H             6.11638000        7.05165000       -1.86995000
  |    3: Species H             6.67242000        5.89223000       -3.11273000
  |    4: Species O             3.14628000       18.56610000        5.90521000
  |    5: Species H             3.51366000       17.71400000        5.70141000
  |    6: Species H             2.19054000       18.55650000        6.03206000
  |    7: Species O             2.90869000        5.72858000        5.09276000
  |    8: Species H             3.46774000        6.03828000        4.34353000
  |    9: Species H             3.27404000        4.92343000        5.54361000
  |   10: Species O             0.26317300        0.98182200       -0.19593400
  |   11: Species H            -0.35372100        1.53662000        0.35376600
  |   12: Species H             0.71958000        0.78586000        0.65023700
  |   13: Species O           -11.30050000       -1.08201000       19.10920000
  |   14: Species H           -10.66090000       -0.24903200       19.35610000
  |   15: Species H           -12.29100000       -0.71382400       19.26680000
  |   16: Species O             1.84527000       -1.76266000       10.82030000
  |   17: Species H             1.35586000       -2.36832000       11.08210000
  |   18: Species H             1.70718000       -1.15838000       11.53530000
  |   19: Species O             4.17918000        0.92389700        1.39396000
  |   20: Species H             4.20445000        2.02711000        1.10936000
  |   21: Species H             3.87815000        0.51039100        0.56319200
  |   22: Species O             0.46593200       -6.23941000       -3.57950000
  |   23: Species H             0.05486400       -5.48443000       -3.07697000
  |   24: Species H            -0.32247100       -6.67078000       -3.99296000
  |   25: Species O            13.26740000       -0.10379600       -1.32639000
  |   26: Species H            12.75630000       -0.64166700       -0.62212700
  |   27: Species H            12.64300000        0.62048600       -1.92529000
  |   28: Species O             5.79665000        2.03444000        6.59164000
  |   29: Species H             5.67342000        1.98619000        7.64939000
  |   30: Species H             5.35981000        1.10872000        6.59542000
  |   31: Species O            12.89740000       11.15960000       -5.33817000
  |   32: Species H            13.43640000       10.50520000       -5.21739000
  |   33: Species H            12.40840000       11.21580000       -4.48701000
  |   34: Species O             3.80770000       -6.19897000        6.74405000
  |   35: Species H             4.27086000       -6.14529000        7.71327000
  |   36: Species H             4.33090000       -7.02839000        6.55578000
  |   37: Species O             7.29933000        5.28435000       -5.10417000
  |   38: Species H             6.77038000        5.73980000       -5.76023000
  |   39: Species H             8.07281000        5.65058000       -5.07037000
  |   40: Species O             0.24618600        8.69765000        6.41552000
  |   41: Species H             0.37406700        9.53266000        6.77229000
  |   42: Species H            -0.42659200        8.39418000        6.95500000
  |   43: Species O            -4.62063000       -0.35026000        5.79420000
  |   44: Species H            -5.49026000       -0.68466700        5.79762000
  |   45: Species H            -4.33006000       -0.88372600        4.99506000
  |   46: Species O             3.95495000       15.29710000       11.56300000
  |   47: Species H             3.15369000       14.66250000       11.86120000
  |   48: Species H             4.12940000       14.95000000       10.69850000
  |   49: Species O            -8.89225000        0.39556200        2.50936000
  |   50: Species H            -9.62180000        0.39679000        3.18510000
  |   51: Species H            -8.12404000        0.76328900        3.00925000
  |   52: Species O             0.37956600        6.16662000       21.28930000
  |   53: Species H            -0.49543900        6.55685000       21.62370000
  |   54: Species H             0.80570600        5.81552000       22.09720000
  |   55: Species O             1.56307000        1.33924000       -2.76868000
  |   56: Species H             0.99136000        1.43166000       -1.78933000
  |   57: Species H             1.49367000        2.25930000       -3.09143000
  |   58: Species O            -4.97398000        4.51200000       -0.90487100
  |   59: Species H            -4.32370000        5.10123000       -1.18271000
  |   60: Species H            -4.56089000        3.65719000       -0.87829600
  |   61: Species O            15.21900000       -3.60204000        3.59358000
  |   62: Species H            14.90370000       -3.67619000        2.66555000
  |   63: Species H            15.39140000       -2.56353000        3.53719000
  |   64: Species O             8.36260000       18.79840000        2.07483000
  |   65: Species H             8.60164000       19.45280000        2.77943000
  |   66: Species H             8.76001000       19.00430000        1.31425000
  |   67: Species O             2.13000000       13.60250000       13.13250000
  |   68: Species H             1.87482000       14.09330000       13.84940000
  |   69: Species H             2.55865000       12.92110000       13.43090000
  |   70: Species O             7.73347000        5.96898000       11.73570000
  |   71: Species H             7.77163000        6.89814000       11.45930000
  |   72: Species H             7.15705000        5.83477000       12.38650000
  |   73: Species O             0.09451800        6.26036000        4.52918000
  |   74: Species H             0.60886500        5.59041000        4.95252000
  |   75: Species H             0.55688200        6.89014000        4.98017000
  |   76: Species O            -1.83680000        3.68304000       10.18090000
  |   77: Species H            -1.31468000        4.02534000        9.31520000
  |   78: Species H            -2.09429000        4.36261000       10.91670000
  |   79: Species O            -3.97248000       12.13410000        9.46765000
  |   80: Species H            -4.05805000       11.32900000       10.15960000
  |   81: Species H            -3.26286000       12.64280000        9.62394000
  |   82: Species O             9.63733000        5.36184000        8.44640000
  |   83: Species H            10.04830000        5.63394000        9.22508000
  |   84: Species H             9.05887000        6.23236000        8.47089000
  |   85: Species O            -2.01444000       12.72640000        5.16620000
  |   86: Species H            -2.03059000       13.72200000        5.18476000
  |   87: Species H            -2.84426000       12.41930000        5.75590000
  |   88: Species O             5.94912000       -0.84616500       -1.59425000
  |   89: Species H             4.80362000       -0.71724500       -1.41840000
  |   90: Species H             6.06170000       -0.63947100       -2.49645000
  |   91: Species O             8.98830000        0.12173600        4.26919000
  |   92: Species H             9.39418000       -0.19517500        4.98405000
  |   93: Species H             8.64082000        0.92540400        4.41056000
  |   94: Species O             5.55419000       -0.94828000       -6.91937000
  |   95: Species H             4.93794000       -0.47527800       -7.54369000
  |   96: Species H             6.37518000       -0.79925400       -7.42683000

  Lattice parameters for 3D lattice (in Angstroms) :    10.054190   10.054190   10.054190
  Angle(s) between unit vectors (in degrees)       :    90.000000   90.000000   90.000000


  Quantities derived from the lattice vectors (in Angstrom^-1):
  | Reciprocal lattice vector 1:  0.624932  0.000000  0.000000
  | Reciprocal lattice vector 2:  0.000000  0.624932  0.000000
  | Reciprocal lattice vector 3:  0.000000  0.000000  0.624932
  | Unit cell volume                               :   0.101635E+04  Angstrom^3

  Fractional coordinates:
                         L1                L2                L3
       atom_frac         0.68069133        0.64117945       -0.22414138  O
       atom_frac         0.60834140        0.70136431       -0.18598714  H
       atom_frac         0.66364570        0.58604721       -0.30959530  H
       atom_frac         0.31293222        1.84660326        0.58733821  O
       atom_frac         0.34947221        1.76185252        0.56706806  H
       atom_frac         0.21787334        1.84564843        0.59995484  H
       atom_frac         0.28930128        0.56977041        0.50653111  O
       atom_frac         0.34490496        0.60057349        0.43201193  H
       atom_frac         0.32563936        0.48968937        0.55137311  H
       atom_frac         0.02617546        0.09765302       -0.01948780  O
       atom_frac        -0.03518145        0.15283379        0.03518593  H
       atom_frac         0.07157016        0.07816244        0.06467324  H
       atom_frac        -1.12395926       -0.10761782        1.90062054  O
       atom_frac        -1.06034400       -0.02476898        1.92517746  H
       atom_frac        -1.22247541       -0.07099766        1.91629559  H
       atom_frac         0.18353244       -0.17531596        1.07619808  O
       atom_frac         0.13485522       -0.23555552        1.10223698  H
       atom_frac         0.16979787       -0.11521366        1.14731271  H
       atom_frac         0.41566551        0.09189174        0.13864468  O
       atom_frac         0.41817889        0.20161843        0.11033808  H
       atom_frac         0.38572476        0.05076401        0.05601565  H
       atom_frac         0.04634207       -0.62057809       -0.35602072  O
       atom_frac         0.00545683       -0.54548701       -0.30603858  H
       atom_frac        -0.03207329       -0.66348259       -0.39714388  H
       atom_frac         1.31958915       -0.01032366       -0.13192410  O
       atom_frac         1.26875462       -0.06382085       -0.06187739  H
       atom_frac         1.25748569        0.06171417       -0.19149131  H
       atom_frac         0.57654073        0.20234748        0.65561124  O
       atom_frac         0.56428414        0.19754848        0.76081614  H
       atom_frac         0.53309217        0.11027442        0.65598721  H
       atom_frac         1.28278857        1.10994521       -0.53093984  O
       atom_frac         1.33639806        1.04485791       -0.51892693  H
       atom_frac         1.23415213        1.11553492       -0.44628259  H
       atom_frac         0.37871773       -0.61655588        0.67077010  O
       atom_frac         0.42478409       -0.61121682        0.76716971  H
       atom_frac         0.43075573       -0.69905084        0.65204457  H
       atom_frac         0.72599881        0.52558684       -0.50766596  O
       atom_frac         0.67338891        0.57088637       -0.57291836  H
       atom_frac         0.80292992        0.56201245       -0.50430418  H
       atom_frac         0.02448591        0.86507715        0.63809417  O
       atom_frac         0.03720509        0.94812809        0.67357888  H
       atom_frac        -0.04242928        0.83489371        0.69175140  H
       atom_frac        -0.45957258       -0.03483722        0.57629705  O
       atom_frac        -0.54606686       -0.06809768        0.57663720  H
       atom_frac        -0.43067219       -0.08789629        0.49681377  H
       atom_frac         0.39336336        1.52146518        1.15006778  O
       atom_frac         0.31366923        1.45834722        1.17972706  H
       atom_frac         0.41071434        1.48694226        1.06408373  H
       atom_frac        -0.88443226        0.03934300        0.24958351  O
       atom_frac        -0.95699405        0.03946514        0.31679330  H
       atom_frac        -0.80802531        0.07591750        0.29930308  H
       atom_frac         0.03775202        0.61333832        2.11745551  O
       atom_frac        -0.04927687        0.65215099        2.15071527  H
       atom_frac         0.08013634        0.57841756        2.19781007  H
       atom_frac         0.15546454        0.13320218       -0.27537574  O
       atom_frac         0.09860168        0.14239436       -0.17796859  H
       atom_frac         0.14856194        0.22471228       -0.30747678  H
       atom_frac        -0.49471713        0.44876813       -0.08999939  O
       atom_frac        -0.43003962        0.50737354       -0.11763354  H
       atom_frac        -0.45363077        0.36374785       -0.08735622  H
       atom_frac         1.51369727       -0.35826258        0.35742113  O
       atom_frac         1.48233721       -0.36563761        0.26511832  H
       atom_frac         1.53084435       -0.25497131        0.35181253  H
       atom_frac         0.83175273        1.86970805        0.20636471  O
       atom_frac         0.85552789        1.93479534        0.27644494  H
       atom_frac         0.87127954        1.89018708        0.13071665  H
       atom_frac         0.21185197        1.35291853        1.30617185  O
       atom_frac         0.18647151        1.40173400        1.37747546  H
       atom_frac         0.25448594        1.28514579        1.33585102  H
       atom_frac         0.76917882        0.59368084        1.16724470  O
       atom_frac         0.77297425        0.68609605        1.13975367  H
       atom_frac         0.71184750        0.58033218        1.23197393  H
       atom_frac         0.00940086        0.62266180        0.45047687  O
       atom_frac         0.06055833        0.55602788        0.49258269  H
       atom_frac         0.05538805        0.68530036        0.49533279  H
       atom_frac        -0.18269000        0.36631892        1.01260271  O
       atom_frac        -0.13075941        0.40036443        0.92649930  H
       atom_frac        -0.20830022        0.43390964        1.08578612  H
       atom_frac        -0.39510692        1.20686997        0.94166213  O
       atom_frac        -0.40361780        1.12679390        1.01048419  H
       atom_frac        -0.32452739        1.25746579        0.95720690  H
       atom_frac         0.95853868        0.53329408        0.84008757  O
       atom_frac         0.99941417        0.56035742        0.91753587  H
       atom_frac         0.90100446        0.61987689        0.84252337  H
       atom_frac        -0.20035826        1.26578073        0.51383553  O
       atom_frac        -0.20196455        1.36480413        0.51568152  H
       atom_frac        -0.28289300        1.23523625        0.57248769  H
       atom_frac         0.59170555       -0.08416043       -0.15856573  O
       atom_frac         0.47777295       -0.07133792       -0.14107551  H
       atom_frac         0.60290287       -0.06360244       -0.24829947  H
       atom_frac         0.89398549        0.01210799        0.42461800  O
       atom_frac         0.93435473       -0.01941230        0.49571870  H
       atom_frac         0.85942478        0.09204163        0.43867880  H
       atom_frac         0.55242541       -0.09431690       -0.68820760  O
       atom_frac         0.49113255       -0.04727164       -0.75030311  H
       atom_frac         0.63408191       -0.07949462       -0.73868009  H

 
  Finished reading input file 'geometry.in'.
 

 
  Consistency checks for stacksize environment parameter are next.
 
  | Maximum stacksize for task 0: unlimited
  | Maximum stacksize for task 1: unlimited
  | Maximum stacksize for task 2: unlimited
  | Maximum stacksize for task 3: unlimited
  | Maximum stacksize for task 4: unlimited
  | Maximum stacksize for task 5: unlimited
  | Maximum stacksize for task 6: unlimited
  | Maximum stacksize for task 7: unlimited
  | Maximum stacksize for task 8: unlimited
  | Maximum stacksize for task 9: unlimited
  | Maximum stacksize for task 10: unlimited
  | Maximum stacksize for task 11: unlimited
  | Maximum stacksize for task 12: unlimited
  | Maximum stacksize for task 13: unlimited
  | Maximum stacksize for task 14: unlimited
  | Maximum stacksize for task 15: unlimited
  | Maximum stacksize for task 16: unlimited
  | Maximum stacksize for task 17: unlimited
  | Current stacksize for task 0: unlimited
  | Current stacksize for task 1: unlimited
  | Current stacksize for task 2: unlimited
  | Current stacksize for task 3: unlimited
  | Current stacksize for task 4: unlimited
  | Current stacksize for task 5: unlimited
  | Current stacksize for task 6: unlimited
  | Current stacksize for task 7: unlimited
  | Current stacksize for task 8: unlimited
  | Current stacksize for task 9: unlimited
  | Current stacksize for task 10: unlimited
  | Current stacksize for task 11: unlimited
  | Current stacksize for task 12: unlimited
  | Current stacksize for task 13: unlimited
  | Current stacksize for task 14: unlimited
  | Current stacksize for task 15: unlimited
  | Current stacksize for task 16: unlimited
  | Current stacksize for task 17: unlimited
 
  Consistency checks for the contents of control.in are next.
 
  MPI_IN_PLACE appears to work with this MPI implementation.
  | Keeping use_mpi_in_place .true. (see manual).
  Explicit treatment of the Coulomb operator is needed, but the RI method is not specified.
  Coulomb operator: Defaulting to 'LVL fast' resolution of identity - RI_type = LVL_fast
  Species H: Using default value for prodbas_acc =   1.000000E-06.
  Species H: Using default value max_l_prodbas =     6.
  Species O: Using default value for prodbas_acc =   1.000000E-06.
  Species O: Using default value max_l_prodbas =     6.
  Target number of points in a grid batch is not set.  Since GPU acceleration is enabled, defaulting to  200
  Method for grid partitioning is not set. Defaulting to parallel hash+maxmin partitioning.
  Batch size limit is not set. Defaulting to    200
  By default, will store active basis functions for each batch.
  If in need of memory, prune_basis_once .false. can be used to disable this option.
  communication_type for Hartree potential was not specified.
  Defaulting to calc_hartree .
  Defaulting to Pulay charge density mixer.
  Pulay mixer: Number of relevant iterations not set.
  Defaulting to    8 iterations.
  Pulay mixer: Number of initial linear mixing iterations not set.
  Defaulting to    0 iterations.
  Work space size for distributed Hartree potential not set.
  Defaulting to   0.200000E+03 MB.
  Mixing parameter for charge density mixing has not been set.
  Using default: charge_mix_param =     0.0500.
  The mixing parameter will be adjusted in iteration number     2 of the first full s.c.f. cycle only.
  Algorithm-dependent basis array size parameters:
  | n_max_pulay                         :        8
  Maximum number of self-consistency iterations not provided.
  Presetting  1000 iterations.
  Presetting      1001 iterations before the initial mixing cycle
  is restarted anyway using the sc_init_iter criterion / keyword.
  Presetting a factor      1.000 between actual scf density residual
  and density convergence criterion sc_accuracy_rho below which sc_init_iter
  takes no effect.
  Calculation of forces was not defined in control.in. No forces will be calculated.
  Geometry relaxation not requested: no relaxation will be performed.
  No accuracy limit for integral partition fn. given. Defaulting to  0.1000E-14.
  No occupation type (smearing scheme) given. Defaulting to Gaussian broadening, width =  0.1000E-01 eV.
  The width will be adjusted in iteration number     2 of the first full s.c.f. cycle only.
  S.C.F. convergence parameters will be adjusted in iteration number     2 of the first full s.c.f. cycle only.
  No accuracy for occupation numbers given. Defaulting to  0.1000E-12.
  No threshold value for occupation numbers given. Defaulting to  0.0000E+00.
  No accuracy for fermi level given. Defaulting to  0.1000E-19.
  Maximum # of iterations to find E_F not set. Defaulting to  200.
  Preferred method for the eigenvalue solver ('KS_method') not specified in 'control.in'.
  Calling BLACS routine to test compilation state
  Since ScaLAPACK support is enabled, defaulting to ELPA (via ELSI).
  Will not use alltoall communication since running on < 1024 CPUs.
  Threshold for basis singularities not set.
  Default threshold for basis singularities:  0.1000E-04
  partition_type (choice of integration weights) for integrals was not specified.
  | Using a version of the partition function of Stratmann and coworkers ('stratmann_sparse').
  | At each grid point, the set of atoms used to build the partition table is smoothly restricted to
  | only those atoms whose free-atom density would be non-zero at that grid point.
  Partitioning for Hartree potential was not defined. Using partition_type for integrals.
  | Adjusted default value of keyword multip_moments_threshold to:       0.10000000E-11
  | This value may affect high angular momentum components of the Hartree potential in periodic systems.
  Angular momentum expansion for Kerker preconditioner not set explicitly.
  | Using default value of   0
  No explicit requirement for turning off preconditioner.
  | By default, it will be turned off when the charge convergence reaches
  | sc_accuracy_rho  =   0.100000E-05
  No special mixing parameter while Kerker preconditioner is on.
  Using default: charge_mix_param =     0.0500.
  Threshold for auxiliary basis singularities not set.
  Default threshold for auxiliary basis singularities:  0.1000E-04
  No q(lm)/r^(l+1) cutoff set for long-range Hartree potential.
  | Using default value of  0.100000E-09 .
  | Verify using the multipole_threshold keyword.
  Defaulting to new monopole extrapolation.
  Density update method: automatic selection selected.
  Using density matrix based charge density update.
  Using density matrix based charge density update.
  Using packed matrix style: index .
  Defaulting to use time-reversal symmetry for k-point grid.
  Charge integration errors on the 3D integration grid will be compensated
  by explicit normalization and distribution of residual charges.
  Use the "compensate_multipole_errors" flag to change this behaviour.
  Default to 1D ("use_logsbt") integrations for auxiliary 2-center integrals.
  Default onset of logarithmic r-grid for SBT is -38.000000000000
  Default onset of logarithmic k-grid for SBT is -25.000000000000
  Default range of logarithmic r- and k-grid for SBT is  45.000000000000
  Default number of logarithmic r- and k-grid for SBT is   4096
  Default of use_2d_corr is to use the efficient 2D distribution where possible
 
  Consistency checks for the contents of geometry.in are next.
 

  Range separation radius for Ewald summation (hartree_convergence_parameter):      3.04600158 bohr.
  Number of empty states per atom not set in control.in .
  | Since you are using a method that relies on the unoccupied spectrum
  | (MP2,GW,RPA et al.), will use the full Hamiltonian size (see below)
  | as the max. possible number of states (occupied plus empty).

  Structure-dependent array size parameters: 
  | Maximum number of distinct radial functions  :        9
  | Maximum number of basis functions            :      768
  | Number of Kohn-Sham states (occupied + empty):      768
------------------------------------------------------------

  Performing system and environment tests:
  | Environment variable OMP_NUM_THREADS correctly set to 1.
  | Checking for ScaLAPACK...
  | Testing pdtran()...
  | All pdtran() tests passed.
CUDA runtime version: 11060
CUDA driver version: 11060
  Initializing GPUs...

  Number of GPUs available to MPI task         0 :   1
  Number of GPUs available to MPI task         1 :   1
  Number of GPUs available to MPI task         2 :   1
  Number of GPUs available to MPI task         3 :   1
  Number of GPUs available to MPI task         4 :   1
  Number of GPUs available to MPI task         5 :   1
  Number of GPUs available to MPI task         6 :   1
  Number of GPUs available to MPI task         7 :   1
  Number of GPUs available to MPI task         8 :   1
  Number of GPUs available to MPI task         9 :   1
  Number of GPUs available to MPI task        10 :   1
  Number of GPUs available to MPI task        11 :   1
  Number of GPUs available to MPI task        12 :   1
  Number of GPUs available to MPI task        13 :   1
  Number of GPUs available to MPI task        14 :   1
  Number of GPUs available to MPI task        15 :   1
  Number of GPUs available to MPI task        16 :   1
  Number of GPUs available to MPI task        17 :   1

  | MPI task         0, GPU activated = T, Device Name = NVIDIA A100-SXM4-80GB
  | MPI task         1, GPU activated = T, Device Name = NVIDIA A100-SXM4-80GB
  | MPI task         2, GPU activated = T, Device Name = NVIDIA A100-SXM4-80GB
  | MPI task         3, GPU activated = T, Device Name = NVIDIA A100-SXM4-80GB
  | MPI task         4, GPU activated = T, Device Name = NVIDIA A100-SXM4-80GB
  | MPI task         5, GPU activated = T, Device Name = NVIDIA A100-SXM4-80GB
  | MPI task         6, GPU activated = T, Device Name = NVIDIA A100-SXM4-80GB
  | MPI task         7, GPU activated = T, Device Name = NVIDIA A100-SXM4-80GB
  | MPI task         8, GPU activated = T, Device Name = NVIDIA A100-SXM4-80GB
  | MPI task         9, GPU activated = T, Device Name = NVIDIA A100-SXM4-80GB
  | MPI task        10, GPU activated = T, Device Name = NVIDIA A100-SXM4-80GB
  | MPI task        11, GPU activated = T, Device Name = NVIDIA A100-SXM4-80GB
  | MPI task        12, GPU activated = T, Device Name = NVIDIA A100-SXM4-80GB
  | MPI task        13, GPU activated = T, Device Name = NVIDIA A100-SXM4-80GB
  | MPI task        14, GPU activated = T, Device Name = NVIDIA A100-SXM4-80GB
  | MPI task        15, GPU activated = T, Device Name = NVIDIA A100-SXM4-80GB
  | MPI task        16, GPU activated = T, Device Name = NVIDIA A100-SXM4-80GB
  | MPI task        17, GPU activated = T, Device Name = NVIDIA A100-SXM4-80GB

------------------------------------------------------------
          Preparing all fixed parts of the calculation.
------------------------------------------------------------
  Determining machine precision:
    2.225073858507201E-308
  Setting up grids for atomic and cluster calculations.

  Creating wave function, potential, and density for free atoms.
  Runtime choices for atomic solver:
  | atomic solver xc        : PW-LDA
  | compute density gradient: 0
  | compute kinetic density : F

  Species: H

  List of occupied orbitals and eigenvalues:
    n    l              occ      energy [Ha]    energy [eV]
    1    0           1.0000        -0.232375        -6.3233


  Species: O

  List of occupied orbitals and eigenvalues:
    n    l              occ      energy [Ha]    energy [eV]
    1    0           2.0000       -18.757744      -510.4242
    2    0           2.0000        -0.870917       -23.6989
    2    1           4.0000        -0.337950        -9.1961


  Adding cutoff potential to free-atom effective potential.
  Creating fixed part of basis set: Ionic, confined, hydrogenic.
 
  H                    hydrogenic:
 
  List of hydrogenic basis orbitals: 
    n    l      effective z      eigenvalue [eV]  inner max. [A]     outer max. [A]     outer radius [A]   
    2    0         2.100000       -14.9728           0.193243           1.317208           4.696947
    2    1         3.500000       -41.6669           0.602369           0.602369           3.862494
 
 
  O                    hydrogenic:
 
  List of hydrogenic basis orbitals: 
    n    l      effective z      eigenvalue [eV]  inner max. [A]     outer max. [A]     outer radius [A]   
    2    1         1.800000       -10.9749           1.164242           1.164242           4.691341
    3    2         7.600000       -87.3180           0.624125           0.624125           3.413946
    3    0         6.400000       -61.9207           0.061167           1.081902           4.151495
 
  Creating atomic-like basis functions for current effective potential.

  Species H                   :

  List of atomic basis orbitals and eigenvalues:
    n    l      energy [Ha]    energy [eV]    outer radius [A]
    1    0        -0.232375        -6.3233       4.696947


  Species O                   :

  List of atomic basis orbitals and eigenvalues:
    n    l      energy [Ha]    energy [eV]    outer radius [A]
    1    0       -18.757744      -510.4242       1.830144
    2    0        -0.870917       -23.6989       4.578029
    2    1        -0.337950        -9.1961       4.634338

  Assembling full basis from fixed parts.
  | Species H :   atomic orbital   1 s accepted.
  | Species H :    hydro orbital   2 s accepted.
  | Species H :    hydro orbital   2 p accepted.
  | Species O :   atomic orbital   1 s accepted.
  | Species O :    hydro orbital   3 s accepted.
  | Species O :   atomic orbital   2 s accepted.
  | Species O :   atomic orbital   2 p accepted.
  | Species O :    hydro orbital   2 p accepted.
  | Species O :    hydro orbital   3 d accepted.
 
  Basis size parameters after reduction:
  | Total number of radial functions:        9
  | Total number of basis functions :      768
 
  Per-task memory consumption for arrays in subroutine allocate_ext:
  |           2.268304MB.
  Testing on-site integration grid accuracy.
  |  Species  Function  <phi|h_atom|phi> (log., in eV)  <phi|h_atom|phi> (rad., in eV)
           1        1                 -6.3245358373                 -6.3232436907
           1        2                 14.1326137532                 14.1384481100
           1        3                 25.3627025200                 25.3628451197
           2        4               -510.4241781764               -510.4240769407
           2        5                 14.9072942213                 14.9072945271
           2        6                -21.2004736474                -21.2005650551
           2        7                 -9.1962086505                 -9.1963509834
           2        8                  8.1896755006                  8.1702200081
           2        9                 45.7920584937                 45.7920228520

  Preparing densities etc. for the partition functions (integrals / Hartree potential).

  Preparations completed.
  max(cpu_time)          :      0.074 s.
  Wall clock time (cpu1) :      0.069 s.
------------------------------------------------------------

  Initializing index lists of integration centers etc. from given atomic structure:
  Mapping all atomic coordinates to central unit cell.

  Initializing the k-points
  Using symmetry for reducing the k-points
  | k-points reduced from:        1 to        1
  | Number of k-points                             :         1
  | Consuming          0 KiB for k_phase_exx.
  The eigenvectors in the calculations are REAL.
  | Number of basis functions in the Hamiltonian integrals :      4237
  | Number of basis functions in a single unit cell        :       768
  | Number of centers in hartree potential         :      2575
  | Number of centers in hartree multipole         :      1846
  | Number of centers in electron density summation:      1438
  | Number of centers in basis integrals           :      1518
  | Number of centers in integrals                 :       671
  | Number of centers in hamiltonian               :      1438
  | Consuming          0 KiB for k_phase.
  | Number of super-cells (origin) [n_cells]                     :         125
  | Number of super-cells (after PM_index) [n_cells]             :          28
  | Number of super-cells in hamiltonian [n_cells_in_hamiltonian]:          28
  | Size of matrix packed + index [n_hamiltonian_matrix_size] :      748774
  | Size of matrix packed + index (no_symmetry):     1496779

------------------------------------------------------------
          Begin self-consistency loop: Initialization.

          Date     :  20230221, Time     :  135926.381
------------------------------------------------------------
  | Estimated reciprocal-space cutoff momentum G_max:         3.10054753 bohr^-1 .
  | Reciprocal lattice points for long-range Hartree potential:    3406
  Using simple linear distribution as default method for k-point parallelism.
  * Using 18 tasks for Scalapack Eigenvalue solver.
  Detailed listing of tasks and assigned k-points:
   Task     0 k-point     1 on adag039
   Task     1 k-point     1 on adag039
   Task     2 k-point     1 on adag039
   Task     3 k-point     1 on adag039
   Task     4 k-point     1 on adag039
   Task     5 k-point     1 on adag039
   Task     6 k-point     1 on adag039
   Task     7 k-point     1 on adag039
   Task     8 k-point     1 on adag039
   Task     9 k-point     1 on adag039
   Task    10 k-point     1 on adag039
   Task    11 k-point     1 on adag039
   Task    12 k-point     1 on adag039
   Task    13 k-point     1 on adag039
   Task    14 k-point     1 on adag039
   Task    15 k-point     1 on adag039
   Task    16 k-point     1 on adag039
   Task    17 k-point     1 on adag039
  K-point:     1 Tasks:    18 split into      6 X      3 BLACS grid
  Calculating block size based on n_basis =          768  max_nprow =            6  max_npcol =            3
  ScaLAPACK block size set to:           16
  Allocating        0.250 MB for ovlp
  Allocating        0.250 MB for ham
  Allocating        0.250 MB for eigenvec
  Required Scalapack workspace - INTEGER:            1  REAL:             1
  Partitioning the integration grid into batches with parallel hashing+maxmin method.
  | Number of batches:     3968
  | Maximal batch size:     189
  | Minimal batch size:      99
  | Average batch size:     128.419
  | Standard deviation of batch sizes:      21.695

  Integration load balanced across    18 MPI tasks.
  Work distribution over tasks is as follows:
  Task     0 has      28322 integration points.
  Task     1 has      28330 integration points.
  Task     2 has      28258 integration points.
  Task     3 has      28424 integration points.
  Task     4 has      28282 integration points.
  Task     5 has      28247 integration points.
  Task     6 has      28408 integration points.
  Task     7 has      28323 integration points.
  Task     8 has      28318 integration points.
  Task     9 has      28261 integration points.
  Task    10 has      28315 integration points.
  Task    11 has      28251 integration points.
  Task    12 has      28235 integration points.
  Task    13 has      28328 integration points.
  Task    14 has      28346 integration points.
  Task    15 has      28281 integration points.
  Task    16 has      28325 integration points.
  Task    17 has      28314 integration points.
  Initializing partition tables, free-atom densities, potentials, etc. across the integration grid (initialize_grid_storage).
  | initialize_grid_storage: Actual outermost partition radius vs. multipole_radius_free
  | (-- VB: in principle, multipole_radius_free should be larger, hence this output)
  | Species        1: Confinement radius =              4.999999999999999 AA, multipole_radius_free =              5.054417573612229 AA.
  | Species        1: outer_partition_radius set to              5.054417573612229 AA .
  | Species        2: Confinement radius =              4.999999999999999 AA, multipole_radius_free =              5.048384829883283 AA.
  | Species        2: outer_partition_radius set to              5.048384829883283 AA .
  | The sparse table of interatomic distances needs       4794.70 kbyte instead of     18434.59 kbyte of memory.
  | Net number of integration points:   509568
  | of which are non-zero points    :   409400
  | Numerical average free-atom electrostatic potential    :     -5.12748516 eV
  Renormalizing the initial density to the exact electron count on the 3D integration grid.
  | Initial density: Formal number of electrons (from input files) :     320.0000000000
  | Integrated number of electrons on 3D grid     :     319.9986116114
  | Charge integration error                      :      -0.0013883886
  | Normalization factor for density and gradient :       1.0000043387
  Renormalizing the free-atom superposition density to the exact electron count on the 3D integration grid.
  | Formal number of electrons (from input files) :     320.0000000000
  | Integrated number of electrons on 3D grid     :     319.9986116114
  | Charge integration error                      :      -0.0013883886
  | Normalization factor for density and gradient :       1.0000043387
  Obtaining max. number of non-zero basis functions in each batch (get_n_compute_maxes).
  | Maximal number of non-zero basis functions:      414 in task     0
  | Maximal number of non-zero basis functions:      404 in task     1
  | Maximal number of non-zero basis functions:      399 in task     2
  | Maximal number of non-zero basis functions:      397 in task     3
  | Maximal number of non-zero basis functions:      415 in task     4
  | Maximal number of non-zero basis functions:      408 in task     5
  | Maximal number of non-zero basis functions:      410 in task     6
  | Maximal number of non-zero basis functions:      418 in task     7
  | Maximal number of non-zero basis functions:      397 in task     8
  | Maximal number of non-zero basis functions:      398 in task     9
  | Maximal number of non-zero basis functions:      418 in task    10
  | Maximal number of non-zero basis functions:      405 in task    11
  | Maximal number of non-zero basis functions:      396 in task    12
  | Maximal number of non-zero basis functions:      406 in task    13
  | Maximal number of non-zero basis functions:      420 in task    14
  | Maximal number of non-zero basis functions:      403 in task    15
  | Maximal number of non-zero basis functions:      409 in task    16
  | Maximal number of non-zero basis functions:      407 in task    17
  Integrating Hamiltonian matrix: batch-based integration.
  GPU acceleration will be used when integrating the Hamiltonian matrix.
  Reporting GPU memory usage by myid 0.  Note that it is likely not the only MPI task binding to its GPU!
  Allocating        1.371 MB on GPU for hamiltonian_shell
  Allocating        0.626 MB on GPU for wave
  Allocating        0.002 MB on GPU for partition
  Allocating        0.626 MB on GPU for h_times_psi
  Time summed over all CPUs for integration: real work       10.508 s, elapsed       10.759 s
  Deallocating memory used on GPU for Hamiltonian integration.
  Integrating overlap matrix.
  Time summed over all CPUs for integration: real work        8.507 s, elapsed        8.661 s
  Deallocating overlap matrix.

  Updating Kohn-Sham eigenvalues and eigenvectors using ELSI and the ELPA eigensolver.
  Singularity check in k-point 1 (analysis for other k-points may follow below):
  Overlap matrix is not singular
  | Lowest and highest eigenvalues :  0.2115E-02,  0.7170E+01
  Finished singularity check of overlap matrix
  | Time :     2.835 s
  Starting ELPA eigensolver (GPU)
  Finished Cholesky decomposition
  | Time :     0.018 s
  Finished transformation to standard eigenproblem
  | Time :     0.596 s
  Finished solving standard eigenproblem
  | Time :     4.405 s
  Finished back-transformation of eigenvectors
  | Time :     0.052 s

  Obtaining occupation numbers and electronic chemical potential using ELSI.
  | Note that, for insulating systems, the printed 'chemical potential' value is not uniquely defined.
  | It can be anywhere in the energy gap, as long as it correctly separates occupied and unoccupied states.
  | In systems with a gap, the physically relevant chemical potential is the VBM or HOMO.

  | Chemical potential (Fermi level):    -6.15627550 eV
  Writing Kohn-Sham eigenvalues.

  State    Occupation    Eigenvalue [Ha]    Eigenvalue [eV]
      1       2.00000         -18.918092         -514.78746
      2       2.00000         -18.918011         -514.78527
      3       2.00000         -18.915400         -514.71424
      4       2.00000         -18.905637         -514.44855
      5       2.00000         -18.898975         -514.26729
      6       2.00000         -18.897678         -514.23197
      7       2.00000         -18.896688         -514.20504
      8       2.00000         -18.891887         -514.07439
      9       2.00000         -18.891356         -514.05996
     10       2.00000         -18.889382         -514.00623
     11       2.00000         -18.880660         -513.76889
     12       2.00000         -18.880164         -513.75540
     13       2.00000         -18.879083         -513.72597
     14       2.00000         -18.873473         -513.57334
     15       2.00000         -18.871147         -513.51004
     16       2.00000         -18.869990         -513.47856
     17       2.00000         -18.864997         -513.34269
     18       2.00000         -18.864227         -513.32174
     19       2.00000         -18.863327         -513.29726
     20       2.00000         -18.863133         -513.29197
     21       2.00000         -18.860513         -513.22067
     22       2.00000         -18.856818         -513.12014
     23       2.00000         -18.853410         -513.02740
     24       2.00000         -18.851847         -512.98485
     25       2.00000         -18.851266         -512.96905
     26       2.00000         -18.851118         -512.96501
     27       2.00000         -18.850641         -512.95203
     28       2.00000         -18.849528         -512.92175
     29       2.00000         -18.845149         -512.80260
     30       2.00000         -18.843594         -512.76029
     31       2.00000         -18.840506         -512.67625
     32       2.00000         -18.835404         -512.53743
     33       2.00000          -1.183179          -32.19595
     34       2.00000          -1.169184          -31.81512
     35       2.00000          -1.169020          -31.81064
     36       2.00000          -1.154580          -31.41773
     37       2.00000          -1.148514          -31.25267
     38       2.00000          -1.147809          -31.23348
     39       2.00000          -1.145195          -31.16234
     40       2.00000          -1.137939          -30.96490
     41       2.00000          -1.137109          -30.94232
     42       2.00000          -1.126520          -30.65416
     43       2.00000          -1.125959          -30.63891
     44       2.00000          -1.113628          -30.30337
     45       2.00000          -1.111147          -30.23585
     46       2.00000          -1.110352          -30.21421
     47       2.00000          -1.105714          -30.08800
     48       2.00000          -1.100617          -29.94931
     49       2.00000          -1.089269          -29.64051
     50       2.00000          -1.088502          -29.61964
     51       2.00000          -1.087994          -29.60583
     52       2.00000          -1.085288          -29.53219
     53       2.00000          -1.084582          -29.51299
     54       2.00000          -1.078995          -29.36096
     55       2.00000          -1.074263          -29.23218
     56       2.00000          -1.071867          -29.16698
     57       2.00000          -1.069097          -29.09160
     58       2.00000          -1.065712          -28.99950
     59       2.00000          -1.059543          -28.83163
     60       2.00000          -1.056032          -28.73609
     61       2.00000          -1.055421          -28.71947
     62       2.00000          -1.045451          -28.44817
     63       2.00000          -1.039220          -28.27861
     64       2.00000          -1.036011          -28.19129
     65       2.00000          -0.725408          -19.73934
     66       2.00000          -0.712571          -19.39005
     67       2.00000          -0.703158          -19.13389
     68       2.00000          -0.698662          -19.01155
     69       2.00000          -0.696676          -18.95753
     70       2.00000          -0.684015          -18.61300
     71       2.00000          -0.683940          -18.61095
     72       2.00000          -0.682191          -18.56336
     73       2.00000          -0.680079          -18.50589
     74       2.00000          -0.668690          -18.19598
     75       2.00000          -0.659472          -17.94515
     76       2.00000          -0.653474          -17.78193
     77       2.00000          -0.643441          -17.50892
     78       2.00000          -0.642109          -17.47269
     79       2.00000          -0.640069          -17.41717
     80       2.00000          -0.633893          -17.24911
     81       2.00000          -0.632359          -17.20737
     82       2.00000          -0.629207          -17.12159
     83       2.00000          -0.627200          -17.06698
     84       2.00000          -0.624743          -17.00012
     85       2.00000          -0.622905          -16.95010
     86       2.00000          -0.621028          -16.89903
     87       2.00000          -0.620884          -16.89511
     88       2.00000          -0.615443          -16.74704
     89       2.00000          -0.609724          -16.59144
     90       2.00000          -0.609243          -16.57835
     91       2.00000          -0.608151          -16.54862
     92       2.00000          -0.601639          -16.37144
     93       2.00000          -0.598444          -16.28450
     94       2.00000          -0.592479          -16.12218
     95       2.00000          -0.586810          -15.96793
     96       2.00000          -0.586696          -15.96480
     97       2.00000          -0.570626          -15.52752
     98       2.00000          -0.568410          -15.46721
     99       2.00000          -0.566557          -15.41680
    100       2.00000          -0.565758          -15.39506
    101       2.00000          -0.563217          -15.32591
    102       2.00000          -0.559835          -15.23388
    103       2.00000          -0.557825          -15.17919
    104       2.00000          -0.557350          -15.16625
    105       2.00000          -0.553446          -15.06004
    106       2.00000          -0.552018          -15.02116
    107       2.00000          -0.551161          -14.99785
    108       2.00000          -0.547473          -14.89751
    109       2.00000          -0.545164          -14.83466
    110       2.00000          -0.538333          -14.64879
    111       2.00000          -0.531840          -14.47210
    112       2.00000          -0.529182          -14.39977
    113       2.00000          -0.528348          -14.37708
    114       2.00000          -0.525676          -14.30438
    115       2.00000          -0.522939          -14.22988
    116       2.00000          -0.520129          -14.15343
    117       2.00000          -0.517098          -14.07095
    118       2.00000          -0.516249          -14.04784
    119       2.00000          -0.514063          -13.98836
    120       2.00000          -0.511009          -13.90526
    121       2.00000          -0.506185          -13.77399
    122       2.00000          -0.502119          -13.66335
    123       2.00000          -0.501352          -13.64248
    124       2.00000          -0.498055          -13.55276
    125       2.00000          -0.494992          -13.46942
    126       2.00000          -0.490132          -13.33718
    127       2.00000          -0.488862          -13.30261
    128       2.00000          -0.486445          -13.23685
    129       2.00000          -0.486007          -13.22494
    130       2.00000          -0.484099          -13.17301
    131       2.00000          -0.477976          -13.00639
    132       2.00000          -0.477432          -12.99158
    133       2.00000          -0.475993          -12.95242
    134       2.00000          -0.475817          -12.94763
    135       2.00000          -0.474035          -12.89915
    136       2.00000          -0.473098          -12.87365
    137       2.00000          -0.470204          -12.79490
    138       2.00000          -0.467563          -12.72305
    139       2.00000          -0.467172          -12.71240
    140       2.00000          -0.463909          -12.62362
    141       2.00000          -0.459665          -12.50812
    142       2.00000          -0.454901          -12.37850
    143       2.00000          -0.454012          -12.35428
    144       2.00000          -0.452598          -12.31582
    145       2.00000          -0.451902          -12.29688
    146       2.00000          -0.451189          -12.27747
    147       2.00000          -0.450588          -12.26113
    148       2.00000          -0.449523          -12.23215
    149       2.00000          -0.447204          -12.16903
    150       2.00000          -0.445234          -12.11544
    151       2.00000          -0.443762          -12.07537
    152       2.00000          -0.442787          -12.04884
    153       2.00000          -0.442243          -12.03404
    154       2.00000          -0.438014          -11.91897
    155       2.00000          -0.434952          -11.83565
    156       2.00000          -0.433776          -11.80366
    157       2.00000          -0.432937          -11.78081
    158       2.00000          -0.432112          -11.75835
    159       2.00000          -0.429123          -11.67704
    160       2.00000          -0.425978          -11.59145
    161       0.00000          -0.172872           -4.70410
    162       0.00000          -0.122224           -3.32587
    163       0.00000          -0.115243           -3.13593
    164       0.00000          -0.111829           -3.04303
    165       0.00000          -0.110150           -2.99733
    166       0.00000          -0.102182           -2.78050
    167       0.00000          -0.089119           -2.42504
    168       0.00000          -0.077584           -2.11117
    169       0.00000          -0.074544           -2.02844
    170       0.00000          -0.068119           -1.85362
    171       0.00000          -0.063091           -1.71681
    172       0.00000          -0.061570           -1.67541
    173       0.00000          -0.055668           -1.51481
    174       0.00000          -0.053539           -1.45686
    175       0.00000          -0.049379           -1.34366
    176       0.00000          -0.044274           -1.20475
    177       0.00000          -0.038073           -1.03602
    178       0.00000          -0.030172           -0.82101
    179       0.00000          -0.027839           -0.75754
    180       0.00000          -0.018988           -0.51668
    181       0.00000          -0.010051           -0.27349
    182       0.00000          -0.004344           -0.11820
    183       0.00000          -0.002599           -0.07073
    184       0.00000           0.002340            0.06367
    185       0.00000           0.005456            0.14848
    186       0.00000           0.010393            0.28281
    187       0.00000           0.018844            0.51276
    188       0.00000           0.021611            0.58806
    189       0.00000           0.024165            0.65758
    190       0.00000           0.026820            0.72980
    191       0.00000           0.030600            0.83266
    192       0.00000           0.036336            0.98876
    193       0.00000           0.039238            1.06773
    194       0.00000           0.041845            1.13866
    195       0.00000           0.044485            1.21050
    196       0.00000           0.047979            1.30557
    197       0.00000           0.049524            1.34761
    198       0.00000           0.054770            1.49037
    199       0.00000           0.056274            1.53129
    200       0.00000           0.057872            1.57478
    201       0.00000           0.061463            1.67250
    202       0.00000           0.062328            1.69602
    203       0.00000           0.067561            1.83842
    204       0.00000           0.070631            1.92196
    205       0.00000           0.073348            1.99589
    206       0.00000           0.076105            2.07092
    207       0.00000           0.078436            2.13435
    208       0.00000           0.079942            2.17533
    209       0.00000           0.081005            2.20427
    210       0.00000           0.086288            2.34803
    211       0.00000           0.089302            2.43004
    212       0.00000           0.092658            2.52134
    213       0.00000           0.094460            2.57038
    214       0.00000           0.097275            2.64700
    215       0.00000           0.100877            2.74501
    216       0.00000           0.105117            2.86038
    217       0.00000           0.106459            2.89689
    218       0.00000           0.110554            3.00833
    219       0.00000           0.114017            3.10255
    220       0.00000           0.120154            3.26957
    221       0.00000           0.123569            3.36249
    222       0.00000           0.131747            3.58501
    223       0.00000           0.133694            3.63800
    224       0.00000           0.142000            3.86402
    225       0.00000           0.144406            3.92949
    226       0.00000           0.149155            4.05871
    227       0.00000           0.152787            4.15754
    228       0.00000           0.157754            4.29271
    229       0.00000           0.162933            4.43364
    230       0.00000           0.170759            4.64659
    231       0.00000           0.182710            4.97178
    232       0.00000           0.185816            5.05630
    233       0.00000           0.189898            5.16738
    234       0.00000           0.195117            5.30940
    235       0.00000           0.200340            5.45153
    236       0.00000           0.206469            5.61832
    237       0.00000           0.210909            5.73914
    238       0.00000           0.215491            5.86380
    239       0.00000           0.220739            6.00662
    240       0.00000           0.222707            6.06017
    241       0.00000           0.227491            6.19035
    242       0.00000           0.228955            6.23018
    243       0.00000           0.237005            6.44924
    244       0.00000           0.248080            6.75060
    245       0.00000           0.249583            6.79149
    246       0.00000           0.257717            7.01284
    247       0.00000           0.266937            7.26373
    248       0.00000           0.270690            7.36586
    249       0.00000           0.276206            7.51594
    250       0.00000           0.280328            7.62810
    251       0.00000           0.286278            7.79001
    252       0.00000           0.290601            7.90764
    253       0.00000           0.292746            7.96604
    254       0.00000           0.297133            8.08541
    255       0.00000           0.305543            8.31424
    256       0.00000           0.313067            8.51898
    257       0.00000           0.316147            8.60280
    258       0.00000           0.328392            8.93600
    259       0.00000           0.336437            9.15492
    260       0.00000           0.343835            9.35623
    261       0.00000           0.350168            9.52856
[...]
  |    H      0     4.527807 A      4.527807 A        1.268855E-16 a.u.
  |    H      0     4.527807 A      4.583499 A       -4.900954E-17 a.u.
  |    H      0     4.527807 A      4.583499 A        4.713786E-16 a.u.
  |    H      2     3.678162 A  2.180220E+05 A            0.556529 a.u.
  |    H      1     3.958095 A  1.721251E+08 A            0.841931 a.u.
  |    H      0     4.527807 A  3.866455E+16 A            0.581436 a.u.
  |    O      0     2.043000 A      2.043000 A       -1.436841E-16 a.u.
  |    O      3     3.498446 A      3.498446 A        3.043453E-17 a.u.
  |    O      3     3.498446 A      3.498446 A        1.541443E-16 a.u.
  |    O      0     3.905335 A      3.905335 A        2.173090E-16 a.u.
  |    O      0     3.905335 A      3.905335 A        7.213445E-17 a.u.
  |    O      0     4.101052 A      4.101052 A        2.361718E-16 a.u.
  |    O      1     4.101052 A      4.101052 A        3.235185E-17 a.u.
  |    O      0     4.359549 A      4.359549 A       -5.329475E-17 a.u.
  |    O      1     4.413171 A      4.413171 A        3.261883E-17 a.u.
  |    O      1     4.522403 A      4.522403 A        6.417997E-16 a.u.
  |    O      1     4.522403 A      4.522403 A        4.224783E-16 a.u.
  |    O      2     4.522403 A      4.522403 A       -4.387647E-16 a.u.
  |    O      0     4.522403 A      4.578029 A        2.602039E-16 a.u.
  |    O      0     4.578029 A      4.578029 A        1.226235E-16 a.u.
  |    O      1     4.578029 A      4.578029 A       -6.107316E-16 a.u.
  |    O      1     4.578029 A      4.578029 A       -2.224438E-16 a.u.
  |    O      2     4.578029 A      4.578029 A       -7.020279E-16 a.u.
  |    O      2     4.522403 A      4.578029 A        1.323470E-15 a.u.
  |    O      2     4.578029 A      4.578029 A        7.923696E-16 a.u.
  |    O      2     4.522403 A      4.578029 A       -9.951815E-16 a.u.
  |    O      0     4.578029 A      4.634338 A       -8.813582E-18 a.u.
  |    O      1     4.578029 A      4.634338 A       -3.325386E-17 a.u.
  |    O      1     4.634338 A      4.634338 A        9.588032E-16 a.u.
  |    O      2     4.578029 A      4.634338 A        1.064715E-17 a.u.
  |    O      2     4.578029 A      4.634338 A       -3.770343E-15 a.u.
  |    O      4     3.251020 A  1.511584E+03 A            1.513372 a.u.
  |    O      3     3.541477 A  1.434166E+04 A            4.293220 a.u.
  |    O      2     4.634338 A  5.584435E+05 A            9.352428 a.u.
  |    O      1     4.634338 A  2.821283E+08 A            2.261940 a.u.
  |    O      0     4.578029 A  4.264100E+16 A            0.641234 a.u.

  | Shrink_full_auxil_basis : there are       38  radial auxiliary wave functions
                            accepted and       5 rejected.
  | Shrink_full_auxil_basis : there are totally                4544 partial auxiliary wave functions.
 
  | Maximal number of product basis functions per thread :   256   256
 
  | Minimal total memory requirement for three-center overlap :      10.450 Gbs
  | Number of local auxiliary basis functions on task:      0   256
  | Number of local auxiliary basis functions on task:      1   256
  | Number of local auxiliary basis functions on task:      2   256
  | Number of local auxiliary basis functions on task:      3   256
  | Number of local auxiliary basis functions on task:      4   256
  | Number of local auxiliary basis functions on task:      5   256
  | Number of local auxiliary basis functions on task:      6   256
  | Number of local auxiliary basis functions on task:      7   256
  | Number of local auxiliary basis functions on task:      8   256
  | Number of local auxiliary basis functions on task:      9   256
  | Number of local auxiliary basis functions on task:     10   256
  | Number of local auxiliary basis functions on task:     11   256
  | Number of local auxiliary basis functions on task:     12   256
  | Number of local auxiliary basis functions on task:     13   256
  | Number of local auxiliary basis functions on task:     14   240
  | Number of local auxiliary basis functions on task:     15   240
  | Number of local auxiliary basis functions on task:     16   240
  | Number of local auxiliary basis functions on task:     17   240
  | 2D aux task distribution:      3 X      6
  | 2D block size (nb_aux_2d):     64
 
  Basis pair condensation :    295296  -->     214137
 
 --------------------------------------------
  Constructing auxiliary basis (full product) ...
 
  Product basis:
  | charge radius: extent of product basis function
  | field radius: extent of its Coulomb potential
  | Species   l  charge radius    field radius  multipol momen
  |    H      1     3.910002 A      3.910002 A       -2.487223E-16 a.u.
  |    H      1     3.958095 A      3.958095 A       -2.441841E-16 a.u.
  |    H      0     4.527807 A      4.527807 A        1.268855E-16 a.u.
  |    H      0     4.527807 A      4.583499 A       -4.900954E-17 a.u.
  |    H      0     4.527807 A      4.583499 A        4.713786E-16 a.u.
  |    H      2     3.678162 A  2.180220E+05 A            0.556529 a.u.
  |    H      1     3.958095 A  1.721251E+08 A            0.841931 a.u.
  |    H      0     4.527807 A  3.866455E+16 A            0.581436 a.u.
  |    O      0     2.043000 A      2.043000 A       -1.436841E-16 a.u.
  |    O      3     3.498446 A      3.498446 A        3.043453E-17 a.u.
  |    O      3     3.498446 A      3.498446 A        1.541443E-16 a.u.
  |    O      0     3.905335 A      3.905335 A        2.173090E-16 a.u.
  |    O      0     3.905335 A      3.905335 A        7.213445E-17 a.u.
  |    O      0     4.101052 A      4.101052 A        2.361718E-16 a.u.
  |    O      1     4.101052 A      4.101052 A        3.235185E-17 a.u.
  |    O      0     4.359549 A      4.359549 A       -5.329475E-17 a.u.
  |    O      1     4.413171 A      4.413171 A        3.261883E-17 a.u.
  |    O      1     4.522403 A      4.522403 A        6.417997E-16 a.u.
  |    O      1     4.522403 A      4.522403 A        4.224783E-16 a.u.
  |    O      2     4.522403 A      4.522403 A       -4.387647E-16 a.u.
  |    O      0     4.522403 A      4.578029 A        2.602039E-16 a.u.
  |    O      0     4.578029 A      4.578029 A        1.226235E-16 a.u.
  |    O      1     4.578029 A      4.578029 A       -6.107316E-16 a.u.
  |    O      1     4.578029 A      4.578029 A       -2.224438E-16 a.u.
  |    O      2     4.578029 A      4.578029 A       -7.020279E-16 a.u.
  |    O      2     4.522403 A      4.578029 A        1.323470E-15 a.u.
  |    O      2     4.578029 A      4.578029 A        7.923696E-16 a.u.
  |    O      2     4.522403 A      4.578029 A       -9.951815E-16 a.u.
  |    O      0     4.578029 A      4.634338 A       -8.813582E-18 a.u.
  |    O      1     4.578029 A      4.634338 A       -3.325386E-17 a.u.
  |    O      1     4.634338 A      4.634338 A        9.588032E-16 a.u.
  |    O      2     4.578029 A      4.634338 A        1.064715E-17 a.u.
  |    O      2     4.578029 A      4.634338 A       -3.770343E-15 a.u.
  |    O      4     3.251020 A  1.511584E+03 A            1.513372 a.u.
  |    O      3     3.541477 A  1.434166E+04 A            4.293220 a.u.
  |    O      2     4.634338 A  5.584435E+05 A            9.352428 a.u.
  |    O      1     4.634338 A  2.821283E+08 A            2.261940 a.u.
  |    O      0     4.578029 A  4.264100E+16 A            0.641234 a.u.

  | Shrink_full_auxil_basis : there are       38  radial auxiliary wave functions
                            accepted and       5 rejected.
  | Shrink_full_auxil_basis : there are totally                4544 partial auxiliary wave functions.
 
  | Maximal number of product basis functions per thread :   256   256
 
  | Minimal total memory requirement for three-center overlap :      10.450 Gbs
  | Number of local auxiliary basis functions on task:      0   256
  | Number of local auxiliary basis functions on task:      1   256
  | Number of local auxiliary basis functions on task:      2   256
  | Number of local auxiliary basis functions on task:      3   256
  | Number of local auxiliary basis functions on task:      4   256
  | Number of local auxiliary basis functions on task:      5   256
  | Number of local auxiliary basis functions on task:      6   256
  | Number of local auxiliary basis functions on task:      7   256
  | Number of local auxiliary basis functions on task:      8   256
  | Number of local auxiliary basis functions on task:      9   256
  | Number of local auxiliary basis functions on task:     10   256
  | Number of local auxiliary basis functions on task:     11   256
  | Number of local auxiliary basis functions on task:     12   256
  | Number of local auxiliary basis functions on task:     13   256
  | Number of local auxiliary basis functions on task:     14   240
  | Number of local auxiliary basis functions on task:     15   240
  | Number of local auxiliary basis functions on task:     16   240
  | Number of local auxiliary basis functions on task:     17   240
  | 2D aux task distribution:      3 X      6
  | 2D block size (nb_aux_2d):     64
 
  Basis pair condensation :    295296  -->     214137
dP_dE (Bohr^3) at every cycle:--->
 (349.266565006183,0.000000000000000E+000) (0.559172254702016,0.000000000000000E+000) (-10.1189678991245,0.000000000000000E+000)
 (0.564947000180974,0.000000000000000E+000) (351.307379547071,0.000000000000000E+000) (3.43674127293192,0.000000000000000E+000)
 (-10.1328776682562,0.000000000000000E+000) (3.44297317930922,0.000000000000000E+000) (354.659242952648,0.000000000000000E+000)
DFPT polarizability (Bohr^3)        xx        yy        zz        xy        xz        yz
  | Polarizability:--->                       349.266565006                  351.307379547                  354.659242953                    0.559172255                  -10.118967899                    3.436741273

DFPT for dielectric_constant:--->  # PARSE DFPT_dielectric_tensor
               1.639924900207747             0.001024513323463            -0.018539935315417
               0.001035093790633             1.643664073012327             0.006296784566487
              -0.018565420742639             0.006308202642152             1.649805344666216

                                               :  max(cpu_time)    wall_clock(cpu1)
  | Time for  dielectric calculation            :        0.000 s           0.001 s
===========================================================================

------------------------------------------------------------------------------
  Final output of selected total energy values:

  The following output summarizes some interesting total energy values
  at the end of a run (AFTER all relaxation, molecular dynamics, etc.).

  | Total energy of the DFT / Hartree-Fock s.c.f. calculation      :         -66108.614160185 eV
  | Final zero-broadening corrected energy (caution - metals only) :         -66108.614160185 eV
  | For reference only, the value of 1 Hartree used in FHI-aims is :             27.211384500 eV
  | For reference only, the overall average (free atom contribution
  | + realspace contribution) of the electrostatic potential after
  | s.c.f. convergence is                                          :             -4.724254384 eV

  Before relying on these values, please be sure to understand exactly which
  total energy value is referred to by a given number. Different objects may
  all carry the same name 'total energy'. Definitions:

  Total energy of the DFT / Hartree-Fock s.c.f. calculation:
  | Note that this energy does not include ANY quantities calculated after the
  | s.c.f. cycle, in particular not ANY RPA, MP2, etc. many-body perturbation terms.

  Final zero-broadening corrected energy:
  | For metallic systems only, a broadening of the occupation numbers at the Fermi
  | level can be extrapolated back to zero broadening by an electron-gas inspired
  | formula. For all systems that are not real metals, this value can be
  | meaningless and should be avoided.

------------------------------------------------------------------------------
  Methods described in the following list of references were used in this FHI-aims run.
  If you publish the results, please make sure to cite these reference if they apply.
  FHI-aims is an academic code, and for our developers (often, Ph.D. students
  and postdocs), scientific credit in the community is essential.
  Thank you for helping us!

  For any use of FHI-aims, please cite:

    Volker Blum, Ralf Gehrke, Felix Hanke, Paula Havu, Ville Havu,
    Xinguo Ren, Karsten Reuter, and Matthias Scheffler
    'Ab initio molecular simulations with numeric atom-centered orbitals'
    Computer Physics Communications 180, 2175-2196 (2009)
    http://doi.org/10.1016/j.cpc.2009.06.022


  For Hartree-Fock, hybrid functionals, or many-body perturbation theory used in your run, please cite:

    Xinguo Ren, Patrick Rinke, Volker Blum, Juergen Wieferink, Alex Tkatchenko,
    Andrea Sanfilippo, Karsten Reuter, and Matthias Scheffler,
    'Resolution-of-identity approach to Hartree-Fock, hybrid density functionals,
    RPA, MP2, and GW with numeric atom-centered orbital basis functions'
    New Journal of Physics 14, 053020 (2012).
    http://doi.org/10.1088/1367-2630/14/5/053020


  The provided symmetry information was generated with SPGlib:

    Atsushi Togo, Yusuke Seto, Dimitar Pashov
    SPGlib 1.7.3 obtained from http://spglib.sourceforge.net
    Copyright (C) 2008 Atsushi Togo


  The DFPT (perturbation by an electric field) part of the code was used.
  Here is the corresponding reference:

    Honghui Shang, Nathaniel Raimbault, Mariana Rossi,
    Christian Carbogno, Patrick Rinke and Matthias Scheffler,
    'All-Electron, Real-Space Perturbation Theory for Homogeneous
    Electric Fields: Theory, Implementation, and Application within dft'
    New Journal of Physics, 20(7):073040, 2018


  The ELSI infrastructure was used in your run to solve the Kohn-Sham electronic structure.
  Please check out http://elsi-interchange.org to learn more.
  If scalability is important for your project, please acknowledge ELSI by citing:

    V. W-z. Yu, F. Corsetti, A. Garcia, W. P. Huhn, M. Jacquelin, W. Jia,
    B. Lange, L. Lin, J. Lu, W. Mi, A. Seifitokaldani, A. Vazquez-Mayagoitia,
    C. Yang, H. Yang, and V. Blum
    'ELSI: A unified software interface for Kohn-Sham electronic structure solvers'
    Computer Physics Communications 222, 267-285 (2018).
    http://doi.org/10.1016/j.cpc.2017.09.007


  For the real-space grid partitioning and parallelization used in this calculation, please cite:

    Ville Havu, Volker Blum, Paula Havu, and Matthias Scheffler,
    'Efficient O(N) integration for all-electron electronic structure calculation'
    'using numerically tabulated basis functions'
    Journal of Computational Physics 228, 8367-8379 (2009).
    http://doi.org/10.1016/j.jcp.2009.08.008


  The high-level electronic structure method used in your calculation
  employed our efficient localized resolution of identity for the Coulomb operator.
  Some calculations, especially large-scale hybrid density functional theory,
  are only possible thanks to this development. For this feature, please cite:

    Arvid Ihrig, Juergen Wieferink, Igor Ying Zhang, Matti Ropo, Xinguo Ren,
    Patrick Rinke, Matthias Scheffler, and Volker Blum,
    'Accurate localized resolution of identity approach for linear-scaling
    hybrid density functionals and for many-body perturbation theory'
    New Journal of Physics 117, 093020 (2015).
    http://doi.org/10.1088/1367-2630/17/9/093020

  Of course, there are many other important community references, e.g., those cited in the
  above references. Our list is limited to references that describe implementations in the
  FHI-aims code. The reason is purely practical (length of this list) - please credit others as well.

------------------------------------------------------------
          Leaving FHI-aims.
          Date     :  20230221, Time     :  140725.609

          Computational steps:
          | Number of self-consistency cycles          :           45
          | Number of SCF (re)initializations          :            1
          | Number of coupled perturbed self-consistency cycles          :            0
          | Number of CPSCF (re)initializations          :            0

          Detailed time accounting                     :  max(cpu_time)    wall_clock(cpu1)
          | Total time                                  :      467.985 s         502.043 s
          | GPU initialization                          :        2.264 s          21.139 s
          | Preparation time                            :        0.074 s           0.069 s
          | Boundary condition initalization            :        1.526 s           1.526 s
          | Grid partitioning                           :        0.442 s           0.442 s
          | Preloading free-atom quantities on grid     :        2.183 s           2.180 s
          | Free-atom superposition energy              :        0.300 s           0.299 s
          | Total time for integrations                 :       12.178 s          12.744 s
          | Product basis setup: Total time             :        0.000 s           0.000 s
          | Product basis: | 2-center integrations     :(       0.000 s)  (       0.000 s)
          | Product basis: | LVL 3-center & coefficient:(       0.000 s)  (       0.000 s)
          | Total time for solution of K.-S. equations  :        5.119 s          17.893 s
          | Total time for density update               :        8.832 s           9.898 s
          | Total time for mixing & preconditioning     :        8.789 s           8.791 s
          | Total time for Hartree multipole update     :        0.105 s           0.105 s
          | Total time for Hartree multipole sum        :       38.379 s          38.394 s
          | Total time for total energy evaluation      :        0.006 s           0.005 s
          | Total time for DFPT                         :      387.272 s         387.422 s
          | Total time first_order_DM                   :        0.281 s           0.281 s
          | Total time first_order_density              :       77.916 s          77.933 s
          | Total time first_order_potential            :       52.166 s          52.186 s
          | Total time first_order_H                    :      151.715 s         151.763 s
          | Total time solving of Sternheimer equations :        0.183 s           0.183 s
          | Total time for dielectric constant          :        0.000 s           0.001 s
          | Total time momentum matrix                  :        0.000 s           0.000 s

          GPU acceleration has been used for charge density update.
          GPU acceleration has been used for real-space Hamiltonian integration.
          Due to GPU usage, wall_clock(cpu1) will give a more reliable estimate for timings.

          Partial memory accounting:
          | Residual value for overall tracked memory usage across tasks:     0.000000 MB (should be 0.000000 MB)
          | Peak values for overall tracked memory usage:
          |   Minimum:      112.149 MB (on task  0 after allocating DFPT_pulay_mixing::pulay_mix::alphas)
          |   Maximum:      112.149 MB (on task  0 after allocating DFPT_pulay_mixing::pulay_mix::alphas)
          |   Average:      112.149 MB
          | Largest tracked array allocation:
          |   Minimum:       39.989 MB (DFPT_pulay_mixing::initialize_pulay_mixing::X_in_diffs on task  0)
          |   Maximum:       39.989 MB (DFPT_pulay_mixing::initialize_pulay_mixing::X_in_diffs on task  0)
          |   Average:       39.989 MB
          Note:  These values currently only include a subset of arrays which are explicitly tracked.
          The "true" memory usage will be greater.

          Have a nice day.
------------------------------------------------------------
