------------------------------------------------------------
          Invoking FHI-aims ...

          When using FHI-aims, please cite the following reference:

            Volker Blum, Ralf Gehrke, Felix Hanke, Paula Havu,
            Ville Havu, Xinguo Ren, Karsten Reuter, and Matthias Scheffler,
            'Ab Initio Molecular Simulations with Numeric Atom-Centered Orbitals',
            Computer Physics Communications 180, 2175-2196 (2009)

          In addition, many other developments in FHI-aims are likely important for
          your particular application. A partial list of references is given at the end of
          this file. Thank you for giving credit to the authors of these developments.

          For any questions about FHI-aims, please visit our slack channel at

            https://fhi-aims.slack.com

          and our main development and support site at

            https://aims-git.rz-berlin.mpg.de .

          The latter site, in particular, has a wiki to collect information, as well
          as an issue tracker to log discussions, suggest improvements, and report issues
          or bugs. https://aims-git.rz-berlin.mpg.de is also the main development site
          of the project and all new and updated code versions can be obtained there.
          Please send an email to aims-coordinators@fhi-berlin.mpg.de and we will add
          you to these sites. They are for you and everyone is welcome there.

------------------------------------------------------------



  Date     :  20230221, Time     :  163509.747
  Time zero on CPU 1             :   0.384062000000000E+00  s.
  Internal wall clock time zero  :           446229309.747  s.

  FHI-aims created a unique identifier for this run for later identification
  aims_uuid : C0836CC1-C8DE-4A68-AA1F-0405A612E587

  Build configuration of the current instance of FHI-aims
  -------------------------------------------------------
  FHI-aims version      : 221103
  Commit number         : 42523251a
  CMake host system     : Linux-5.3.18-150300.59.68-default
  CMake version         : 3.17.0
  Fortran compiler      : /mpcdf/soft/SLE_15/packages/x86_64/intel_oneapi/2021.3/mpi/2021.3.0/bin/mpiifort (Intel) version 20.2.3.20210609
  Fortran compiler flags: -O3 -ip -fp-model precise
  C compiler            : /mpcdf/soft/SLE_15/packages/x86_64/intel/2021.3.0/bin/icc (Intel) version 20.2.3.20210609
  C compiler flags      : -O3 -ip -fp-model precise -std=gnu99
  CUDA compiler         : /mpcdf/soft/SLE_15/packages/x86_64/cuda/11.6.2/bin/nvcc
  CUDA compiler flags   : -O3 -DAdd_ -lcublas
  HIP compiler          :
  HIP compiler flags    :
  HIP GPU arch          :
  ELPA2 kernel          : AVX512
  Using MPI
  Using ScaLAPACK
  Using LibXC
  Using CUDA
  Using i-PI
  Using RLSY
  Linking against: /mpcdf/soft/SLE_15/packages/x86_64/cuda/11.6.2/lib64/libcublas.so
                   /mpcdf/soft/SLE_15/packages/x86_64/cuda/11.6.2/lib64/libcudart.so
                   /mpcdf/soft/SLE_15/packages/x86_64/intel_oneapi/2021.3/mkl/latest/lib/intel64/libmkl_intel_lp64.so
                   /mpcdf/soft/SLE_15/packages/x86_64/intel_oneapi/2021.3/mkl/latest/lib/intel64/libmkl_sequential.so
                   /mpcdf/soft/SLE_15/packages/x86_64/intel_oneapi/2021.3/mkl/latest/lib/intel64/libmkl_core.so
                   /mpcdf/soft/SLE_15/packages/x86_64/intel_oneapi/2021.3/mkl/latest/lib/intel64/libmkl_blacs_intelmpi_lp64.so
                   /mpcdf/soft/SLE_15/packages/x86_64/intel_oneapi/2021.3/mkl/latest/lib/intel64/libmkl_scalapack_lp64.so

  Using       18 parallel tasks.
  Task        0 on host adag039 reporting.
  Task        1 on host adag039 reporting.
  Task        2 on host adag039 reporting.
  Task        3 on host adag039 reporting.
  Task        4 on host adag039 reporting.
  Task        5 on host adag039 reporting.
  Task        6 on host adag039 reporting.
  Task        7 on host adag039 reporting.
  Task        8 on host adag039 reporting.
  Task        9 on host adag039 reporting.
  Task       10 on host adag039 reporting.
  Task       11 on host adag039 reporting.
  Task       12 on host adag039 reporting.
  Task       13 on host adag039 reporting.
  Task       14 on host adag039 reporting.
  Task       15 on host adag039 reporting.
  Task       16 on host adag039 reporting.
  Task       17 on host adag039 reporting.

  Obtaining array dimensions for all initial allocations:
  
  -----------------------------------------------------------------------
  Parsing control.in (first pass over file, find array dimensions only).
  The contents of control.in will be repeated verbatim below
  unless switched off by setting 'verbatim_writeout .false.' .
  in the first line of control.in .
  -----------------------------------------------------------------------
  
  #########################################################################################
  #
  #  Volker Blum, 2017 : Test run input file control.in for simple H2O
  #
  #########################################################################################
  #
  #  Physical model
  #
    xc                 pw-lda
    spin               none
    relativistic       none
    charge             0.
  
    use_gpu
  
    DFPT dielectric
    ri_density_restart write
    ri_rho1 write
  #  ri_density_restart read 0
  #  ri_rho1 read
    ri_full_output .true.
    sc_accuracy_rho    1d-6
  #  use_calculate_fock_matrix_old .false.
  #  wave_threshold 1e-8
    k_grid 1 1 1
  #  output cube eigenstate 160
  #  output cube eigenstate 161
    wave_threshold 1e-8
    default_prodbas_acc 1e-6
    default_max_l_prodbas 6
  #
  #  Relaxation
  #
  #  relax_geometry   bfgs 1.e-2
  #
  
  ################################################################################
  
  
  ################################################################################
  #
  #  FHI-aims code project
  #  VB, Fritz-Haber Institut, 2009
  #
  #  Suggested "light" defaults for H atom (to be pasted into control.in file)
  #  Be sure to double-check any results obtained with these settings for post-processing,
  #  e.g., with the "tight" defaults and larger basis sets.
  #
  ################################################################################
    species        H
  #     global species definitions
      nucleus             1
      mass                1.00794
  #
      l_hartree           4
  #
      cut_pot             3.5  1.5  1.0
      basis_dep_cutoff    1e-4
  #
      radial_base         24 5.0
      radial_multiplier   1
      angular_grids       specified
        division   0.2421   50
        division   0.3822  110
        division   0.4799  194
        division   0.5341  302
  #      division   0.5626  434
  #      division   0.5922  590
  #      division   0.6542  770
  #      division   0.6868 1202
  #      outer_grid  770
        outer_grid  302
  ################################################################################
  #
  #  Definition of "minimal" basis
  #
  ################################################################################
  #     valence basis states
      valence      1  s   1.
  #     ion occupancy
      ion_occ      1  s   0.5
  ################################################################################
  #
  #  Suggested additional basis functions. For production calculations,
  #  uncomment them one after another (the most important basis functions are
  #  listed first).
  #
  #  Basis constructed for dimers: 0.5 A, 0.7 A, 1.0 A, 1.5 A, 2.5 A
  #
  ################################################################################
  #  "First tier" - improvements: -1014.90 meV to -62.69 meV
       hydro 2 s 2.1
       hydro 2 p 3.5
  #  "Second tier" - improvements: -12.89 meV to -1.83 meV
  #     hydro 1 s 0.85
  #     hydro 2 p 3.7
  #     hydro 2 s 1.2
  #     hydro 3 d 7
  #  "Third tier" - improvements: -0.25 meV to -0.12 meV
  #     hydro 4 f 11.2
  #     hydro 3 p 4.8
  #     hydro 4 d 9
  #     hydro 3 s 3.2
  ################################################################################
  #
  #  FHI-aims code project
  #  VB, Fritz-Haber Institut, 2009
  #
  #  Suggested "light" defaults for O atom (to be pasted into control.in file)
  #  Be sure to double-check any results obtained with these settings for post-processing,
  #  e.g., with the "tight" defaults and larger basis sets.
  #
  ################################################################################
    species        O
  #     global species definitions
      nucleus             8
      mass                15.9994
  #
      l_hartree           4
  #
      cut_pot             3.5  1.5  1.0
      basis_dep_cutoff    1e-4
  #
      radial_base         36 5.0
      radial_multiplier   1
       angular_grids specified
        division   0.2659   50
        division   0.4451  110
        division   0.6052  194
        division   0.7543  302
  #      division   0.8014  434
  #      division   0.8507  590
  #      division   0.8762  770
  #      division   0.9023  974
  #      division   1.2339 1202
  #      outer_grid 974
        outer_grid 302
  ################################################################################
  #
  #  Definition of "minimal" basis
  #
  ################################################################################
  #     valence basis states
      valence      2  s   2.
      valence      2  p   4.
  #     ion occupancy
      ion_occ      2  s   1.
      ion_occ      2  p   3.
  ################################################################################
  #
  #  Suggested additional basis functions. For production calculations,
  #  uncomment them one after another (the most important basis functions are
  #  listed first).
  #
  #  Constructed for dimers: 1.0 A, 1.208 A, 1.5 A, 2.0 A, 3.0 A
  #
  ################################################################################
  #  "First tier" - improvements: -699.05 meV to -159.38 meV
       hydro 2 p 1.8
       hydro 3 d 7.6
       hydro 3 s 6.4
  #  "Second tier" - improvements: -49.91 meV to -5.39 meV
  #     hydro 4 f 11.6
  #     hydro 3 p 6.2
  #     hydro 3 d 5.6
  #     hydro 5 g 17.6
  #     hydro 1 s 0.75
  #  "Third tier" - improvements: -2.83 meV to -0.50 meV
  #     ionic 2 p auto
  #     hydro 4 f 10.8
  #     hydro 4 d 4.7
  #     hydro 2 s 6.8
  #  "Fourth tier" - improvements: -0.40 meV to -0.12 meV
  #     hydro 3 p 5
  #     hydro 3 s 3.3
  #     hydro 5 g 15.6
  #     hydro 4 f 17.6
  #     hydro 4 d 14
  # Further basis functions - -0.08 meV and below
  #     hydro 3 s 2.1
  #     hydro 4 d 11.6
  #     hydro 3 p 16
  #     hydro 2 s 17.2
  
  -----------------------------------------------------------------------
  Completed first pass over input file control.in .
  -----------------------------------------------------------------------
  
  
  -----------------------------------------------------------------------
  Parsing geometry.in (first pass over file, find array dimensions only).
  The contents of geometry.in will be repeated verbatim below
  unless switched off by setting 'verbatim_writeout .false.' .
  in the first line of geometry.in .
  -----------------------------------------------------------------------
  
  #=======================================================
  # FHI-aims file: /ada/ptmp/mpsd/alewis/bulk_water/qmdata/data/geoms/401.in
  # Created using the Atomic Simulation Environment (ASE)
  # Tue Feb 21 11:23:37 2023
  #=======================================================
  lattice_vector 9.9197299999999995 0.0000000000000000 0.0000000000000000
  lattice_vector 0.0000000000000000 9.9197299999999995 0.0000000000000000
  lattice_vector 0.0000000000000000 0.0000000000000000 9.9197299999999995
  atom -6.6481899999999996 26.2382999999999988 0.2262370000000000 O
  atom -6.2606700000000002 25.5368999999999993 -0.4688980000000000 H
  atom -6.2660600000000004 26.0217999999999989 1.0580300000000000 H
  atom 8.5882000000000005 23.3278999999999996 -11.9382000000000001 O
  atom 8.1496499999999994 23.3220999999999989 -11.0756999999999994 H
  atom 8.4159500000000005 22.5048999999999992 -12.2340999999999998 H
  atom 17.2177000000000007 -15.6334000000000000 -5.2908099999999996 O
  atom 18.2213999999999992 -15.6730000000000000 -4.9391200000000000 H
  atom 17.3845999999999989 -15.5459999999999994 -6.2568099999999998 H
  atom 2.6416499999999998 9.1087699999999998 3.5960399999999999 O
  atom 2.5295999999999998 9.7651100000000000 4.2953400000000004 H
  atom 3.2533500000000002 9.5195299999999996 3.1249600000000002 H
  atom -28.9593999999999987 16.8303000000000011 22.4526000000000003 O
  atom -28.9317999999999991 16.9542000000000002 21.6051000000000002 H
  atom -28.4588999999999999 17.4590999999999994 22.9364999999999988 H
  atom 3.1200500000000000 -7.0711800000000000 5.0344400000000000 O
  atom 4.0068500000000000 -7.2726499999999996 5.3738099999999998 H
  atom 2.5493399999999999 -7.7771999999999997 5.3019800000000004 H
  atom -2.3678800000000000 0.6813080000000000 -2.6105499999999999 O
  atom -2.4328799999999999 0.1011940000000000 -1.7840199999999999 H
  atom -3.3731200000000001 0.6508790000000000 -2.8527200000000001 H
  atom 7.2491500000000002 12.9338999999999995 -9.3398599999999998 O
  atom 7.9222000000000001 12.8824000000000005 -8.4825300000000006 H
  atom 6.4546999999999999 12.4524000000000008 -9.0870800000000003 H
  atom 15.0267999999999997 5.5645899999999999 2.8848400000000001 O
  atom 14.5921000000000003 5.5693099999999998 3.6562899999999998 H
  atom 15.7314000000000007 6.2558699999999998 3.0274500000000000 H
  atom -15.8178999999999998 31.3265999999999991 12.7441999999999993 O
  atom -16.2801000000000009 31.7870999999999988 13.6531000000000002 H
  atom -14.8480000000000008 31.1988999999999983 13.1097000000000001 H
  atom -11.8963999999999999 6.4469399999999997 -7.0405400000000000 O
  atom -12.0105000000000004 6.8019900000000000 -6.2129899999999996 H
  atom -11.0180000000000007 6.6449499999999997 -7.2004000000000001 H
  atom 19.3366000000000007 -11.3333999999999993 6.1448900000000002 O
  atom 18.9054000000000002 -10.8656000000000006 6.6679399999999998 H
  atom 20.2835999999999999 -11.4639000000000006 6.4355399999999996 H
  atom -10.1616999999999997 -6.4887499999999996 2.0410800000000000 O
  atom -9.3796199999999992 -6.5258500000000002 1.3431400000000000 H
  atom -9.6849600000000002 -6.0615899999999998 2.6469800000000001 H
  atom 8.7751300000000008 -10.0943000000000005 -0.2083680000000000 O
  atom 9.3696900000000003 -9.5595800000000004 -0.7607770000000000 H
  atom 8.4024000000000001 -9.5806000000000004 0.4020990000000000 H
  atom -25.9531999999999989 -5.2134900000000002 18.1209999999999987 O
  atom -25.6112000000000002 -6.1378100000000000 17.7578999999999994 H
  atom -26.9344000000000001 -5.3722700000000003 17.9770000000000003 H
  atom 1.1350100000000001 -18.8939999999999984 -1.4662400000000000 O
  atom 1.3693400000000000 -18.1104999999999983 -1.0169299999999999 H
  atom 1.6007000000000000 -19.4840000000000018 -0.8871670000000000 H
  atom 15.3320000000000007 -3.1267299999999998 17.3903999999999996 O
  atom 15.8680000000000003 -3.3140299999999998 18.0489999999999995 H
  atom 14.5901999999999994 -3.7792400000000002 17.3596000000000004 H
  atom -13.3265999999999991 0.3780260000000000 13.3821999999999992 O
  atom -13.5943000000000005 -0.5111520000000001 13.7706999999999997 H
  atom -12.4953000000000003 0.5401589999999999 13.5619999999999994 H
  atom -5.2398100000000003 22.1312999999999995 7.7355099999999997 O
  atom -5.2748600000000003 21.2473999999999990 8.0111299999999996 H
  atom -4.6813200000000004 22.2174000000000014 6.8906499999999999 H
  atom 2.1078600000000001 -12.1043000000000003 -2.4195099999999998 O
  atom 2.0985299999999998 -12.5140999999999991 -1.4818000000000000 H
  atom 2.5108199999999998 -12.8948000000000000 -2.9788199999999998 H
  atom -0.5064640000000000 16.9876000000000005 -0.5413940000000000 O
  atom -1.4458100000000000 16.7029999999999994 -0.5796190000000000 H
  atom -0.5776510000000000 17.8939999999999984 -0.4791480000000000 H
  atom 1.6645700000000001 -6.7951499999999996 9.9112600000000004 O
  atom 1.6809400000000001 -6.0605599999999997 9.2703500000000005 H
  atom 2.5066600000000001 -6.6112099999999998 10.2246000000000006 H
  atom -7.8669700000000002 48.4170000000000016 10.5069999999999997 O
  atom -7.9277899999999999 48.4455000000000027 11.5304000000000002 H
  atom -7.4015899999999997 47.5686999999999998 10.3727999999999998 H
  atom 36.6007999999999996 -32.1955000000000027 5.2012799999999997 O
  atom 35.9802999999999997 -32.5373999999999981 5.7581800000000003 H
  atom 37.4977000000000018 -32.0116999999999976 5.7020900000000001 H
  atom -5.5939199999999998 -10.1806999999999999 -1.9853600000000000 O
  atom -6.3325199999999997 -9.9767799999999998 -1.6716899999999999 H
  atom -5.3459300000000001 -11.0975999999999999 -2.2485599999999999 H
  atom 16.6118999999999986 5.9633099999999999 -0.1592990000000000 O
  atom 16.2169999999999987 5.0215500000000004 -0.2379110000000000 H
  atom 17.1659000000000006 5.9601300000000004 0.6587000000000000 H
  atom 15.8887999999999998 12.1510999999999996 5.3831400000000000 O
  atom 16.5532000000000004 12.8015000000000008 5.1526399999999999 H
  atom 16.0381999999999998 11.3201000000000001 4.8787399999999996 H
  atom 1.5374900000000000 20.7265000000000015 -4.2375800000000003 O
  atom 0.6514529999999999 20.5716000000000001 -4.6015699999999997 H
  atom 1.4636100000000001 20.6922999999999995 -3.1790500000000002 H
  atom 20.7972999999999999 -14.9681999999999995 17.9528999999999996 O
  atom 20.5357999999999983 -14.1001999999999992 18.2245999999999988 H
  atom 20.0177000000000014 -15.3170999999999999 17.6661999999999999 H
  atom 8.8589800000000007 21.4201000000000015 33.9260999999999981 O
  atom 9.2240300000000008 22.0128999999999984 33.2383000000000024 H
  atom 9.0274199999999993 22.0147000000000013 34.7916000000000025 H
  atom 10.1367999999999991 -5.8514600000000003 -4.8462100000000001 O
  atom 10.6226000000000003 -5.0358099999999997 -4.6539200000000003 H
  atom 10.7988999999999997 -6.3976899999999999 -4.6218300000000001 H
  atom 14.3775999999999993 23.1951999999999998 1.1630000000000000 O
  atom 14.5203000000000007 23.8539999999999992 1.8210000000000000 H
  atom 14.0670000000000002 22.5734999999999992 1.7964400000000000 H
  
  -----------------------------------------------------------------------
  Completed first pass over input file geometry.in .
  -----------------------------------------------------------------------
  

  Basic array size parameters:
  | Number of species                 :        2
  | Number of atoms                   :       96
  | Number of lattice vectors         :        3
  | Max. basis fn. angular momentum   :        2
  | Max. atomic/ionic basis occupied n:        2
  | Max. number of basis fn. types    :        2
  | Max. radial fns per species/type  :        3
  | Max. logarithmic grid size        :     1301
  | Max. radial integration grid size :       36
  | Max. angular integration grid size:      302
  | Max. angular grid division number :        8
  | Radial grid for Hartree potential :     1301
  | Number of spin channels           :        1

------------------------------------------------------------
          Reading file control.in.
------------------------------------------------------------
  XC: Using Perdew-Wang parametrisation of Ceperley-Alder LDA.
  Spin treatment: No spin polarisation.
  Non-relativistic treatment of kinetic energy.
  Charge =   0.000000E+00: Neutral system requested explicitly.
  DFPT calculation will begin after the DFT/HF calculation.
  Convergence accuracy of self-consistent charge density:  0.1000E-05
  Found k-point grid:         1         1         1
  Threshold value for wave function integration:  0.1000E-07
 
  Reading configuration options for species H                   .
  | Found nuclear charge :   1.0000
  | Found atomic mass :    1.00794000000000      amu
  | Found l_max for Hartree potential  :   4
  | Found cutoff potl. onset [A], width [A], scale factor :    3.50000    1.50000    1.00000
  | Threshold for basis-dependent cutoff potential is   0.100000E-03
  | Found data for basic radial integration grid :    24 points, outermost radius =    5.000 A
  | Found multiplier for basic radial grid :   1
  | Found angular grid specification: user-specified.
  | Specified grid contains     5 separate shells.
  | Check grid settings after all constraints further below.
  | Found free-atom valence shell :  1 s   1.000
  | No ionic wave fns used. Skipping ion_occ.
  | Found hydrogenic basis function :  2 s   2.100
  | Found hydrogenic basis function :  2 p   3.500
  Species H                   : Missing cutoff potential type.
  Defaulting to exp(1/x)/(1-x)^2 type cutoff potential.
  Species H : No 'logarithmic' tag. Using default grid for free atom:
  | Default logarithmic grid data [bohr] : 0.1000E-03 0.1000E+03 0.1012E+01
  Species H : On-site basis accuracy parameter (for Gram-Schmidt orthonormalisation) not specified.
  Using default value basis_acc =  0.1000000E-03.
  Species H                   : Using default innermost maximum threshold i_radial=  2 for radial functions.
  Species H                   : Default cutoff onset for free atom density etc. : 0.35000000E+01 AA.
  Species H                   : Basic radial grid will be enhanced according to radial_multiplier =   1, to contain    24 grid points.
 
  Reading configuration options for species O                   .
  | Found nuclear charge :   8.0000
  | Found atomic mass :    15.9994000000000      amu
  | Found l_max for Hartree potential  :   4
  | Found cutoff potl. onset [A], width [A], scale factor :    3.50000    1.50000    1.00000
  | Threshold for basis-dependent cutoff potential is   0.100000E-03
  | Found data for basic radial integration grid :    36 points, outermost radius =    5.000 A
  | Found multiplier for basic radial grid :   1
  | Found angular grid specification: user-specified.
  | Specified grid contains     5 separate shells.
  | Check grid settings after all constraints further below.
  | Found free-atom valence shell :  2 s   2.000
  | Found free-atom valence shell :  2 p   4.000
  | No ionic wave fns used. Skipping ion_occ.
  | No ionic wave fns used. Skipping ion_occ.
  | Found hydrogenic basis function :  2 p   1.800
  | Found hydrogenic basis function :  3 d   7.600
  | Found hydrogenic basis function :  3 s   6.400
  Species O                   : Missing cutoff potential type.
  Defaulting to exp(1/x)/(1-x)^2 type cutoff potential.
  Species O : No 'logarithmic' tag. Using default grid for free atom:
  | Default logarithmic grid data [bohr] : 0.1000E-03 0.1000E+03 0.1012E+01
  Species O : On-site basis accuracy parameter (for Gram-Schmidt orthonormalisation) not specified.
  Using default value basis_acc =  0.1000000E-03.
  Species O                   : Using default innermost maximum threshold i_radial=  2 for radial functions.
  Species O                   : Default cutoff onset for free atom density etc. : 0.35000000E+01 AA.
  Species O                   : Basic radial grid will be enhanced according to radial_multiplier =   1, to contain    36 grid points.
 
  Finished reading input file 'control.in'.
 
------------------------------------------------------------


------------------------------------------------------------
          Reading geometry description geometry.in.
------------------------------------------------------------
  | The smallest distance between any two atoms is         0.82362102 AA.
  | The first atom of this pair is atom number                     34 .
  | The second atom of this pair is atom number                    35 .
  | Wigner-Seitz cell of the first atom image           0     0     0 .
  | (The Wigner-Seitz cell of the second atom is 0 0 0  by definition.)

  Symmetry information by spglib:
  | Precision set to  0.1E-04
  | Number of Operations  : 1
  | Space group           : 1
  | International         : P1        b
  | Schoenflies           : C1^1
  Input structure read successfully.
  The structure contains       96 atoms,  and a total of        320.000 electrons.

  Input geometry:
  | Unit cell:
  |        9.91973000        0.00000000        0.00000000
  |        0.00000000        9.91973000        0.00000000
  |        0.00000000        0.00000000        9.91973000
  | Atomic structure:
  |       Atom                x [A]            y [A]            z [A]
  |    1: Species O            -6.64819000       26.23830000        0.22623700
  |    2: Species H            -6.26067000       25.53690000       -0.46889800
  |    3: Species H            -6.26606000       26.02180000        1.05803000
  |    4: Species O             8.58820000       23.32790000      -11.93820000
  |    5: Species H             8.14965000       23.32210000      -11.07570000
  |    6: Species H             8.41595000       22.50490000      -12.23410000
  |    7: Species O            17.21770000      -15.63340000       -5.29081000
  |    8: Species H            18.22140000      -15.67300000       -4.93912000
  |    9: Species H            17.38460000      -15.54600000       -6.25681000
  |   10: Species O             2.64165000        9.10877000        3.59604000
  |   11: Species H             2.52960000        9.76511000        4.29534000
  |   12: Species H             3.25335000        9.51953000        3.12496000
  |   13: Species O           -28.95940000       16.83030000       22.45260000
  |   14: Species H           -28.93180000       16.95420000       21.60510000
  |   15: Species H           -28.45890000       17.45910000       22.93650000
  |   16: Species O             3.12005000       -7.07118000        5.03444000
  |   17: Species H             4.00685000       -7.27265000        5.37381000
  |   18: Species H             2.54934000       -7.77720000        5.30198000
  |   19: Species O            -2.36788000        0.68130800       -2.61055000
  |   20: Species H            -2.43288000        0.10119400       -1.78402000
  |   21: Species H            -3.37312000        0.65087900       -2.85272000
  |   22: Species O             7.24915000       12.93390000       -9.33986000
  |   23: Species H             7.92220000       12.88240000       -8.48253000
  |   24: Species H             6.45470000       12.45240000       -9.08708000
  |   25: Species O            15.02680000        5.56459000        2.88484000
  |   26: Species H            14.59210000        5.56931000        3.65629000
  |   27: Species H            15.73140000        6.25587000        3.02745000
  |   28: Species O           -15.81790000       31.32660000       12.74420000
  |   29: Species H           -16.28010000       31.78710000       13.65310000
  |   30: Species H           -14.84800000       31.19890000       13.10970000
  |   31: Species O           -11.89640000        6.44694000       -7.04054000
  |   32: Species H           -12.01050000        6.80199000       -6.21299000
  |   33: Species H           -11.01800000        6.64495000       -7.20040000
  |   34: Species O            19.33660000      -11.33340000        6.14489000
  |   35: Species H            18.90540000      -10.86560000        6.66794000
  |   36: Species H            20.28360000      -11.46390000        6.43554000
  |   37: Species O           -10.16170000       -6.48875000        2.04108000
  |   38: Species H            -9.37962000       -6.52585000        1.34314000
  |   39: Species H            -9.68496000       -6.06159000        2.64698000
  |   40: Species O             8.77513000      -10.09430000       -0.20836800
  |   41: Species H             9.36969000       -9.55958000       -0.76077700
  |   42: Species H             8.40240000       -9.58060000        0.40209900
  |   43: Species O           -25.95320000       -5.21349000       18.12100000
  |   44: Species H           -25.61120000       -6.13781000       17.75790000
  |   45: Species H           -26.93440000       -5.37227000       17.97700000
  |   46: Species O             1.13501000      -18.89400000       -1.46624000
  |   47: Species H             1.36934000      -18.11050000       -1.01693000
  |   48: Species H             1.60070000      -19.48400000       -0.88716700
  |   49: Species O            15.33200000       -3.12673000       17.39040000
  |   50: Species H            15.86800000       -3.31403000       18.04900000
  |   51: Species H            14.59020000       -3.77924000       17.35960000
  |   52: Species O           -13.32660000        0.37802600       13.38220000
  |   53: Species H           -13.59430000       -0.51115200       13.77070000
  |   54: Species H           -12.49530000        0.54015900       13.56200000
  |   55: Species O            -5.23981000       22.13130000        7.73551000
  |   56: Species H            -5.27486000       21.24740000        8.01113000
  |   57: Species H            -4.68132000       22.21740000        6.89065000
  |   58: Species O             2.10786000      -12.10430000       -2.41951000
  |   59: Species H             2.09853000      -12.51410000       -1.48180000
  |   60: Species H             2.51082000      -12.89480000       -2.97882000
  |   61: Species O            -0.50646400       16.98760000       -0.54139400
  |   62: Species H            -1.44581000       16.70300000       -0.57961900
  |   63: Species H            -0.57765100       17.89400000       -0.47914800
  |   64: Species O             1.66457000       -6.79515000        9.91126000
  |   65: Species H             1.68094000       -6.06056000        9.27035000
  |   66: Species H             2.50666000       -6.61121000       10.22460000
  |   67: Species O            -7.86697000       48.41700000       10.50700000
  |   68: Species H            -7.92779000       48.44550000       11.53040000
  |   69: Species H            -7.40159000       47.56870000       10.37280000
  |   70: Species O            36.60080000      -32.19550000        5.20128000
  |   71: Species H            35.98030000      -32.53740000        5.75818000
  |   72: Species H            37.49770000      -32.01170000        5.70209000
  |   73: Species O            -5.59392000      -10.18070000       -1.98536000
  |   74: Species H            -6.33252000       -9.97678000       -1.67169000
  |   75: Species H            -5.34593000      -11.09760000       -2.24856000
  |   76: Species O            16.61190000        5.96331000       -0.15929900
  |   77: Species H            16.21700000        5.02155000       -0.23791100
  |   78: Species H            17.16590000        5.96013000        0.65870000
  |   79: Species O            15.88880000       12.15110000        5.38314000
  |   80: Species H            16.55320000       12.80150000        5.15264000
  |   81: Species H            16.03820000       11.32010000        4.87874000
  |   82: Species O             1.53749000       20.72650000       -4.23758000
  |   83: Species H             0.65145300       20.57160000       -4.60157000
  |   84: Species H             1.46361000       20.69230000       -3.17905000
  |   85: Species O            20.79730000      -14.96820000       17.95290000
  |   86: Species H            20.53580000      -14.10020000       18.22460000
  |   87: Species H            20.01770000      -15.31710000       17.66620000
  |   88: Species O             8.85898000       21.42010000       33.92610000
  |   89: Species H             9.22403000       22.01290000       33.23830000
  |   90: Species H             9.02742000       22.01470000       34.79160000
  |   91: Species O            10.13680000       -5.85146000       -4.84621000
  |   92: Species H            10.62260000       -5.03581000       -4.65392000
  |   93: Species H            10.79890000       -6.39769000       -4.62183000
  |   94: Species O            14.37760000       23.19520000        1.16300000
  |   95: Species H            14.52030000       23.85400000        1.82100000
  |   96: Species H            14.06700000       22.57350000        1.79644000

  Lattice parameters for 3D lattice (in Angstroms) :     9.919730    9.919730    9.919730
  Angle(s) between unit vectors (in degrees)       :    90.000000   90.000000   90.000000


  Quantities derived from the lattice vectors (in Angstrom^-1):
  | Reciprocal lattice vector 1:  0.633403  0.000000  0.000000
  | Reciprocal lattice vector 2:  0.000000  0.633403  0.000000
  | Reciprocal lattice vector 3:  0.000000  0.000000  0.633403
  | Unit cell volume                               :   0.976112E+03  Angstrom^3

  Fractional coordinates:
                         L1                L2                L3
       atom_frac        -0.67019868        2.64506191        0.02280677  O
       atom_frac        -0.63113311        2.57435434       -0.04726923  H
       atom_frac        -0.63167647        2.62323672        0.10665915  H
       atom_frac         0.86576953        2.35166683       -1.20348034  O
       atom_frac         0.82155966        2.35108214       -1.11653241  H
       atom_frac         0.84840515        2.26870086       -1.23330978  H
       atom_frac         1.73570248       -1.57599048       -0.53336230  O
       atom_frac         1.83688467       -1.57998252       -0.49790871  H
       atom_frac         1.75252754       -1.56717975       -0.63074398  H
       atom_frac         0.26630261        0.91824777        0.36251390  O
       atom_frac         0.25500694        0.98441288        0.43300977  H
       atom_frac         0.32796760        0.95965616        0.31502470  H
       atom_frac        -2.91937381        1.69664900        2.26342854  O
       atom_frac        -2.91659148        1.70913926        2.17799275  H
       atom_frac        -2.86891881        1.76003782        2.31221011  H
       atom_frac         0.31452973       -0.71283997        0.50751785  O
       atom_frac         0.40392732       -0.73315000        0.54172946  H
       atom_frac         0.25699691       -0.78401327        0.53448834  H
       atom_frac        -0.23870408        0.06868211       -0.26316745  O
       atom_frac        -0.24525668        0.01020129       -0.17984562  H
       atom_frac        -0.34004151        0.06561459       -0.28758041  H
       atom_frac         0.73078098        1.30385605       -0.94154377  O
       atom_frac         0.79863061        1.29866438       -0.85511702  H
       atom_frac         0.65069311        1.25531642       -0.91606122  H
       atom_frac         1.51483962        0.56096184        0.29081840  O
       atom_frac         1.47101786        0.56143766        0.36858765  H
       atom_frac         1.58586978        0.63064922        0.30519480  H
       atom_frac        -1.59458977        3.15800934        1.28473255  O
       atom_frac        -1.64118378        3.20443198        1.37635803  H
       atom_frac        -1.49681493        3.14513601        1.32157831  H
       atom_frac        -1.19926651        0.64991083       -0.70975117  O
       atom_frac        -1.21076884        0.68570314       -0.62632652  H
       atom_frac        -1.11071572        0.66987206       -0.72586653  H
       atom_frac         1.94930709       -1.14251094        0.61946142  O
       atom_frac         1.90583816       -1.09535239        0.67218967  H
       atom_frac         2.04477340       -1.15566654        0.64876161  H
       atom_frac        -1.02439280       -0.65412567        0.20575963  O
       atom_frac        -0.94555195       -0.65786569        0.13540086  H
       atom_frac        -0.97633303       -0.61106401        0.26683992  H
       atom_frac         0.88461379       -1.01759826       -0.02100541  O
       atom_frac         0.94455091       -0.96369357       -0.07669332  H
       atom_frac         0.84703918       -0.96581258        0.04053528  H
       atom_frac        -2.61632121       -0.52556773        1.82676343  O
       atom_frac        -2.58184447       -0.61874769        1.79015961  H
       atom_frac        -2.71523519       -0.54157422        1.81224691  H
       atom_frac         0.11441944       -1.90468894       -0.14781047  O
       atom_frac         0.13804206       -1.82570493       -0.10251590  H
       atom_frac         0.16136528       -1.96416636       -0.08943459  H
       atom_frac         1.54560658       -0.31520314        1.75311223  O
       atom_frac         1.59964031       -0.33408470        1.81950517  H
       atom_frac         1.47082632       -0.38098214        1.75000731  H
       atom_frac        -1.34344382        0.03810850        1.34904881  O
       atom_frac        -1.37043045       -0.05152882        1.38821319  H
       atom_frac        -1.25964114        0.05445299        1.36717431  H
       atom_frac        -0.52822103        2.23103855        0.77981054  O
       atom_frac        -0.53175439        2.14193330        0.80759557  H
       atom_frac        -0.47192010        2.23971822        0.69464088  H
       atom_frac         0.21249167       -1.22022474       -0.24390886  O
       atom_frac         0.21155112       -1.26153635       -0.14937907  H
       atom_frac         0.25311374       -1.29991441       -0.30029245  H
       atom_frac        -0.05105623        1.71250629       -0.05457749  O
       atom_frac        -0.14575094        1.68381599       -0.05843093  H
       atom_frac        -0.05823253        1.80387974       -0.04830252  H
       atom_frac         0.16780396       -0.68501360        0.99914615  O
       atom_frac         0.16945421       -0.61096018        0.93453652  H
       atom_frac         0.25269438       -0.66647076        1.03073370  H
       atom_frac        -0.79306292        4.88087881        1.05920222  O
       atom_frac        -0.79919413        4.88375188        1.16237035  H
       atom_frac        -0.74614833        4.79536237        1.04567362  H
       atom_frac         3.68969720       -3.24560245        0.52433685  O
       atom_frac         3.62714509       -3.28006911        0.58047749  H
       atom_frac         3.78011297       -3.22707372        0.57482311  H
       atom_frac        -0.56391857       -1.02630818       -0.20014254  O
       atom_frac        -0.63837625       -1.00575116       -0.16852172  H
       atom_frac        -0.53891890       -1.11874013       -0.22667552  H
       atom_frac         1.67463227        0.60115648       -0.01605880  O
       atom_frac         1.63482272        0.50621842       -0.02398362  H
       atom_frac         1.73048057        0.60083591        0.06640302  H
       atom_frac         1.60173714        1.22494261        0.54267001  O
       atom_frac         1.66871477        1.29050892        0.51943349  H
       atom_frac         1.61679804        1.14117017        0.49182185  H
       atom_frac         0.15499313        2.08942179       -0.42718703  O
       atom_frac         0.06567245        2.07380644       -0.46388057  H
       atom_frac         0.14754535        2.08597411       -0.32047747  H
       atom_frac         2.09655908       -1.50893220        1.80981740  O
       atom_frac         2.07019748       -1.42142982        1.83720726  H
       atom_frac         2.01796823       -1.54410453        1.78091541  H
       atom_frac         0.89306665        2.15934305        3.42006284  O
       atom_frac         0.92986704        2.21910274        3.35072628  H
       atom_frac         0.91004695        2.21928419        3.50731320  H
       atom_frac         1.02188265       -0.58988097       -0.48854253  O
       atom_frac         1.07085576       -0.50765595       -0.46915793  H
       atom_frac         1.08862842       -0.64494598       -0.46592296  H
       atom_frac         1.44939429        2.33828945        0.11724109  O
       atom_frac         1.46377976        2.40470255        0.18357354  H
       atom_frac         1.41808295        2.27561637        0.18109767  H

 
  Finished reading input file 'geometry.in'.
 

 
  Consistency checks for stacksize environment parameter are next.
 
  | Maximum stacksize for task 0: unlimited
  | Maximum stacksize for task 1: unlimited
  | Maximum stacksize for task 2: unlimited
  | Maximum stacksize for task 3: unlimited
  | Maximum stacksize for task 4: unlimited
  | Maximum stacksize for task 5: unlimited
  | Maximum stacksize for task 6: unlimited
  | Maximum stacksize for task 7: unlimited
  | Maximum stacksize for task 8: unlimited
  | Maximum stacksize for task 9: unlimited
  | Maximum stacksize for task 10: unlimited
  | Maximum stacksize for task 11: unlimited
  | Maximum stacksize for task 12: unlimited
  | Maximum stacksize for task 13: unlimited
  | Maximum stacksize for task 14: unlimited
  | Maximum stacksize for task 15: unlimited
  | Maximum stacksize for task 16: unlimited
  | Maximum stacksize for task 17: unlimited
  | Current stacksize for task 0: unlimited
  | Current stacksize for task 1: unlimited
  | Current stacksize for task 2: unlimited
  | Current stacksize for task 3: unlimited
  | Current stacksize for task 4: unlimited
  | Current stacksize for task 5: unlimited
  | Current stacksize for task 6: unlimited
  | Current stacksize for task 7: unlimited
  | Current stacksize for task 8: unlimited
  | Current stacksize for task 9: unlimited
  | Current stacksize for task 10: unlimited
  | Current stacksize for task 11: unlimited
  | Current stacksize for task 12: unlimited
  | Current stacksize for task 13: unlimited
  | Current stacksize for task 14: unlimited
  | Current stacksize for task 15: unlimited
  | Current stacksize for task 16: unlimited
  | Current stacksize for task 17: unlimited
 
  Consistency checks for the contents of control.in are next.
 
  MPI_IN_PLACE appears to work with this MPI implementation.
  | Keeping use_mpi_in_place .true. (see manual).
  Explicit treatment of the Coulomb operator is needed, but the RI method is not specified.
  Coulomb operator: Defaulting to 'LVL fast' resolution of identity - RI_type = LVL_fast
  Species H: Using default value for prodbas_acc =   1.000000E-06.
  Species H: Using default value max_l_prodbas =     6.
  Species O: Using default value for prodbas_acc =   1.000000E-06.
  Species O: Using default value max_l_prodbas =     6.
  Target number of points in a grid batch is not set.  Since GPU acceleration is enabled, defaulting to  200
  Method for grid partitioning is not set. Defaulting to parallel hash+maxmin partitioning.
  Batch size limit is not set. Defaulting to    200
  By default, will store active basis functions for each batch.
  If in need of memory, prune_basis_once .false. can be used to disable this option.
  communication_type for Hartree potential was not specified.
  Defaulting to calc_hartree .
  Defaulting to Pulay charge density mixer.
  Pulay mixer: Number of relevant iterations not set.
  Defaulting to    8 iterations.
  Pulay mixer: Number of initial linear mixing iterations not set.
  Defaulting to    0 iterations.
  Work space size for distributed Hartree potential not set.
  Defaulting to   0.200000E+03 MB.
  Mixing parameter for charge density mixing has not been set.
  Using default: charge_mix_param =     0.0500.
  The mixing parameter will be adjusted in iteration number     2 of the first full s.c.f. cycle only.
  Algorithm-dependent basis array size parameters:
  | n_max_pulay                         :        8
  Maximum number of self-consistency iterations not provided.
  Presetting  1000 iterations.
  Presetting      1001 iterations before the initial mixing cycle
  is restarted anyway using the sc_init_iter criterion / keyword.
  Presetting a factor      1.000 between actual scf density residual
  and density convergence criterion sc_accuracy_rho below which sc_init_iter
  takes no effect.
  Calculation of forces was not defined in control.in. No forces will be calculated.
  Geometry relaxation not requested: no relaxation will be performed.
  No accuracy limit for integral partition fn. given. Defaulting to  0.1000E-14.
  No occupation type (smearing scheme) given. Defaulting to Gaussian broadening, width =  0.1000E-01 eV.
  The width will be adjusted in iteration number     2 of the first full s.c.f. cycle only.
  S.C.F. convergence parameters will be adjusted in iteration number     2 of the first full s.c.f. cycle only.
  No accuracy for occupation numbers given. Defaulting to  0.1000E-12.
  No threshold value for occupation numbers given. Defaulting to  0.0000E+00.
  No accuracy for fermi level given. Defaulting to  0.1000E-19.
  Maximum # of iterations to find E_F not set. Defaulting to  200.
  Preferred method for the eigenvalue solver ('KS_method') not specified in 'control.in'.
  Calling BLACS routine to test compilation state
  Since ScaLAPACK support is enabled, defaulting to ELPA (via ELSI).
  Will not use alltoall communication since running on < 1024 CPUs.
  Threshold for basis singularities not set.
  Default threshold for basis singularities:  0.1000E-04
  partition_type (choice of integration weights) for integrals was not specified.
  | Using a version of the partition function of Stratmann and coworkers ('stratmann_sparse').
  | At each grid point, the set of atoms used to build the partition table is smoothly restricted to
  | only those atoms whose free-atom density would be non-zero at that grid point.
  Partitioning for Hartree potential was not defined. Using partition_type for integrals.
  | Adjusted default value of keyword multip_moments_threshold to:       0.10000000E-11
  | This value may affect high angular momentum components of the Hartree potential in periodic systems.
  Angular momentum expansion for Kerker preconditioner not set explicitly.
  | Using default value of   0
  No explicit requirement for turning off preconditioner.
  | By default, it will be turned off when the charge convergence reaches
  | sc_accuracy_rho  =   0.100000E-05
  No special mixing parameter while Kerker preconditioner is on.
  Using default: charge_mix_param =     0.0500.
  Threshold for auxiliary basis singularities not set.
  Default threshold for auxiliary basis singularities:  0.1000E-04
  No q(lm)/r^(l+1) cutoff set for long-range Hartree potential.
  | Using default value of  0.100000E-09 .
  | Verify using the multipole_threshold keyword.
  Defaulting to new monopole extrapolation.
  Density update method: automatic selection selected.
  Using density matrix based charge density update.
  Using density matrix based charge density update.
  Using packed matrix style: index .
  Defaulting to use time-reversal symmetry for k-point grid.
  Charge integration errors on the 3D integration grid will be compensated
  by explicit normalization and distribution of residual charges.
  Use the "compensate_multipole_errors" flag to change this behaviour.
  Default to 1D ("use_logsbt") integrations for auxiliary 2-center integrals.
  Default onset of logarithmic r-grid for SBT is -38.000000000000
  Default onset of logarithmic k-grid for SBT is -25.000000000000
  Default range of logarithmic r- and k-grid for SBT is  45.000000000000
  Default number of logarithmic r- and k-grid for SBT is   4096
  Default of use_2d_corr is to use the efficient 2D distribution where possible
 
  Consistency checks for the contents of geometry.in are next.
 

  Range separation radius for Ewald summation (hartree_convergence_parameter):      2.99644686 bohr.
  Number of empty states per atom not set in control.in .
  | Since you are using a method that relies on the unoccupied spectrum
  | (MP2,GW,RPA et al.), will use the full Hamiltonian size (see below)
  | as the max. possible number of states (occupied plus empty).

  Structure-dependent array size parameters: 
  | Maximum number of distinct radial functions  :        9
  | Maximum number of basis functions            :      768
  | Number of Kohn-Sham states (occupied + empty):      768
------------------------------------------------------------

  Performing system and environment tests:
  | Environment variable OMP_NUM_THREADS correctly set to 1.
  | Checking for ScaLAPACK...
  | Testing pdtran()...
  | All pdtran() tests passed.
CUDA runtime version: 11060
CUDA driver version: 11060
  Initializing GPUs...

  Number of GPUs available to MPI task         0 :   1
  Number of GPUs available to MPI task         1 :   1
  Number of GPUs available to MPI task         2 :   1
  Number of GPUs available to MPI task         3 :   1
  Number of GPUs available to MPI task         4 :   1
  Number of GPUs available to MPI task         5 :   1
  Number of GPUs available to MPI task         6 :   1
  Number of GPUs available to MPI task         7 :   1
  Number of GPUs available to MPI task         8 :   1
  Number of GPUs available to MPI task         9 :   1
  Number of GPUs available to MPI task        10 :   1
  Number of GPUs available to MPI task        11 :   1
  Number of GPUs available to MPI task        12 :   1
  Number of GPUs available to MPI task        13 :   1
  Number of GPUs available to MPI task        14 :   1
  Number of GPUs available to MPI task        15 :   1
  Number of GPUs available to MPI task        16 :   1
  Number of GPUs available to MPI task        17 :   1

  | MPI task         0, GPU activated = T, Device Name = NVIDIA A100-SXM4-80GB
  | MPI task         1, GPU activated = T, Device Name = NVIDIA A100-SXM4-80GB
  | MPI task         2, GPU activated = T, Device Name = NVIDIA A100-SXM4-80GB
  | MPI task         3, GPU activated = T, Device Name = NVIDIA A100-SXM4-80GB
  | MPI task         4, GPU activated = T, Device Name = NVIDIA A100-SXM4-80GB
  | MPI task         5, GPU activated = T, Device Name = NVIDIA A100-SXM4-80GB
  | MPI task         6, GPU activated = T, Device Name = NVIDIA A100-SXM4-80GB
  | MPI task         7, GPU activated = T, Device Name = NVIDIA A100-SXM4-80GB
  | MPI task         8, GPU activated = T, Device Name = NVIDIA A100-SXM4-80GB
  | MPI task         9, GPU activated = T, Device Name = NVIDIA A100-SXM4-80GB
  | MPI task        10, GPU activated = T, Device Name = NVIDIA A100-SXM4-80GB
  | MPI task        11, GPU activated = T, Device Name = NVIDIA A100-SXM4-80GB
  | MPI task        12, GPU activated = T, Device Name = NVIDIA A100-SXM4-80GB
  | MPI task        13, GPU activated = T, Device Name = NVIDIA A100-SXM4-80GB
  | MPI task        14, GPU activated = T, Device Name = NVIDIA A100-SXM4-80GB
  | MPI task        15, GPU activated = T, Device Name = NVIDIA A100-SXM4-80GB
  | MPI task        16, GPU activated = T, Device Name = NVIDIA A100-SXM4-80GB
  | MPI task        17, GPU activated = T, Device Name = NVIDIA A100-SXM4-80GB

------------------------------------------------------------
          Preparing all fixed parts of the calculation.
------------------------------------------------------------
  Determining machine precision:
    2.225073858507201E-308
  Setting up grids for atomic and cluster calculations.

  Creating wave function, potential, and density for free atoms.
  Runtime choices for atomic solver:
  | atomic solver xc        : PW-LDA
  | compute density gradient: 0
  | compute kinetic density : F

  Species: H

  List of occupied orbitals and eigenvalues:
    n    l              occ      energy [Ha]    energy [eV]
    1    0           1.0000        -0.232375        -6.3233


  Species: O

  List of occupied orbitals and eigenvalues:
    n    l              occ      energy [Ha]    energy [eV]
    1    0           2.0000       -18.757744      -510.4242
    2    0           2.0000        -0.870917       -23.6989
    2    1           4.0000        -0.337950        -9.1961


  Adding cutoff potential to free-atom effective potential.
  Creating fixed part of basis set: Ionic, confined, hydrogenic.
 
  H                    hydrogenic:
 
  List of hydrogenic basis orbitals: 
    n    l      effective z      eigenvalue [eV]  inner max. [A]     outer max. [A]     outer radius [A]   
    2    0         2.100000       -14.9728           0.193243           1.317208           4.696947
    2    1         3.500000       -41.6669           0.602369           0.602369           3.862494
 
 
  O                    hydrogenic:
 
  List of hydrogenic basis orbitals: 
    n    l      effective z      eigenvalue [eV]  inner max. [A]     outer max. [A]     outer radius [A]   
    2    1         1.800000       -10.9749           1.164242           1.164242           4.691341
    3    2         7.600000       -87.3180           0.624125           0.624125           3.413946
    3    0         6.400000       -61.9207           0.061167           1.081902           4.151495
 
  Creating atomic-like basis functions for current effective potential.

  Species H                   :

  List of atomic basis orbitals and eigenvalues:
    n    l      energy [Ha]    energy [eV]    outer radius [A]
    1    0        -0.232375        -6.3233       4.696947


  Species O                   :

  List of atomic basis orbitals and eigenvalues:
    n    l      energy [Ha]    energy [eV]    outer radius [A]
    1    0       -18.757744      -510.4242       1.830144
    2    0        -0.870917       -23.6989       4.578029
    2    1        -0.337950        -9.1961       4.634338

  Assembling full basis from fixed parts.
  | Species H :   atomic orbital   1 s accepted.
  | Species H :    hydro orbital   2 s accepted.
  | Species H :    hydro orbital   2 p accepted.
  | Species O :   atomic orbital   1 s accepted.
  | Species O :    hydro orbital   3 s accepted.
  | Species O :   atomic orbital   2 s accepted.
  | Species O :   atomic orbital   2 p accepted.
  | Species O :    hydro orbital   2 p accepted.
  | Species O :    hydro orbital   3 d accepted.
 
  Basis size parameters after reduction:
  | Total number of radial functions:        9
  | Total number of basis functions :      768
 
  Per-task memory consumption for arrays in subroutine allocate_ext:
  |           2.268304MB.
  Testing on-site integration grid accuracy.
  |  Species  Function  <phi|h_atom|phi> (log., in eV)  <phi|h_atom|phi> (rad., in eV)
           1        1                 -6.3245358373                 -6.3232436907
           1        2                 14.1326137532                 14.1384481100
           1        3                 25.3627025200                 25.3628451197
           2        4               -510.4241781764               -510.4240769407
           2        5                 14.9072942213                 14.9072945271
           2        6                -21.2004736474                -21.2005650551
           2        7                 -9.1962086505                 -9.1963509834
           2        8                  8.1896755006                  8.1702200081
           2        9                 45.7920584937                 45.7920228520

  Preparing densities etc. for the partition functions (integrals / Hartree potential).

  Preparations completed.
  max(cpu_time)          :      0.071 s.
  Wall clock time (cpu1) :      0.063 s.
------------------------------------------------------------

  Initializing index lists of integration centers etc. from given atomic structure:
  Mapping all atomic coordinates to central unit cell.

  Initializing the k-points
  Using symmetry for reducing the k-points
  | k-points reduced from:        1 to        1
  | Number of k-points                             :         1
  | Consuming          0 KiB for k_phase_exx.
  The eigenvectors in the calculations are REAL.
  | Number of basis functions in the Hamiltonian integrals :      4420
  | Number of basis functions in a single unit cell        :       768
  | Number of centers in hartree potential         :      2561
  | Number of centers in hartree multipole         :      1854
  | Number of centers in electron density summation:      1479
  | Number of centers in basis integrals           :      1549
  | Number of centers in integrals                 :       687
  | Number of centers in hamiltonian               :      1479
  | Consuming          0 KiB for k_phase.
  | Number of super-cells (origin) [n_cells]                     :         125
  | Number of super-cells (after PM_index) [n_cells]             :          28
  | Number of super-cells in hamiltonian [n_cells_in_hamiltonian]:          28
  | Size of matrix packed + index [n_hamiltonian_matrix_size] :      776629
  | Size of matrix packed + index (no_symmetry):     1552489

------------------------------------------------------------
          Begin self-consistency loop: Initialization.

          Date     :  20230221, Time     :  163530.019
------------------------------------------------------------
  | Estimated reciprocal-space cutoff momentum G_max:         3.15425014 bohr^-1 .
  | Reciprocal lattice points for long-range Hartree potential:    3430
  Using simple linear distribution as default method for k-point parallelism.
  * Using 18 tasks for Scalapack Eigenvalue solver.
  Detailed listing of tasks and assigned k-points:
   Task     0 k-point     1 on adag039
   Task     1 k-point     1 on adag039
   Task     2 k-point     1 on adag039
   Task     3 k-point     1 on adag039
   Task     4 k-point     1 on adag039
   Task     5 k-point     1 on adag039
   Task     6 k-point     1 on adag039
   Task     7 k-point     1 on adag039
   Task     8 k-point     1 on adag039
   Task     9 k-point     1 on adag039
   Task    10 k-point     1 on adag039
   Task    11 k-point     1 on adag039
   Task    12 k-point     1 on adag039
   Task    13 k-point     1 on adag039
   Task    14 k-point     1 on adag039
   Task    15 k-point     1 on adag039
   Task    16 k-point     1 on adag039
   Task    17 k-point     1 on adag039
  K-point:     1 Tasks:    18 split into      6 X      3 BLACS grid
  Calculating block size based on n_basis =          768  max_nprow =            6  max_npcol =            3
  ScaLAPACK block size set to:           16
  Allocating        0.250 MB for ovlp
  Allocating        0.250 MB for ham
  Allocating        0.250 MB for eigenvec
  Required Scalapack workspace - INTEGER:            1  REAL:             1
  Partitioning the integration grid into batches with parallel hashing+maxmin method.
  | Number of batches:     4008
  | Maximal batch size:     200
  | Minimal batch size:      99
  | Average batch size:     127.138
  | Standard deviation of batch sizes:      27.670

  Integration load balanced across    18 MPI tasks.
  Work distribution over tasks is as follows:
  Task     0 has      28344 integration points.
  Task     1 has      28335 integration points.
  Task     2 has      28349 integration points.
  Task     3 has      28291 integration points.
  Task     4 has      28331 integration points.
  Task     5 has      28338 integration points.
  Task     6 has      28278 integration points.
  Task     7 has      28337 integration points.
  Task     8 has      28265 integration points.
  Task     9 has      28241 integration points.
  Task    10 has      28280 integration points.
  Task    11 has      28290 integration points.
  Task    12 has      28268 integration points.
  Task    13 has      28302 integration points.
  Task    14 has      28334 integration points.
  Task    15 has      28343 integration points.
  Task    16 has      28339 integration points.
  Task    17 has      28303 integration points.
  Initializing partition tables, free-atom densities, potentials, etc. across the integration grid (initialize_grid_storage).
  | initialize_grid_storage: Actual outermost partition radius vs. multipole_radius_free
  | (-- VB: in principle, multipole_radius_free should be larger, hence this output)
  | Species        1: Confinement radius =              4.999999999999999 AA, multipole_radius_free =              5.054417573612229 AA.
  | Species        1: outer_partition_radius set to              5.054417573612229 AA .
  | Species        2: Confinement radius =              4.999999999999999 AA, multipole_radius_free =              5.048384829883283 AA.
  | Species        2: outer_partition_radius set to              5.048384829883283 AA .
  | The sparse table of interatomic distances needs       5078.14 kbyte instead of     19195.21 kbyte of memory.
  | Net number of integration points:   509568
  | of which are non-zero points    :   405969
  | Numerical average free-atom electrostatic potential    :     -5.33881979 eV
  Renormalizing the initial density to the exact electron count on the 3D integration grid.
  | Initial density: Formal number of electrons (from input files) :     320.0000000000
  | Integrated number of electrons on 3D grid     :     319.9979884662
  | Charge integration error                      :      -0.0020115338
  | Normalization factor for density and gradient :       1.0000062861
  Renormalizing the free-atom superposition density to the exact electron count on the 3D integration grid.
  | Formal number of electrons (from input files) :     320.0000000000
  | Integrated number of electrons on 3D grid     :     319.9979884662
  | Charge integration error                      :      -0.0020115338
  | Normalization factor for density and gradient :       1.0000062861
  Obtaining max. number of non-zero basis functions in each batch (get_n_compute_maxes).
  | Maximal number of non-zero basis functions:      437 in task     0
  | Maximal number of non-zero basis functions:      412 in task     1
  | Maximal number of non-zero basis functions:      418 in task     2
  | Maximal number of non-zero basis functions:      444 in task     3
  | Maximal number of non-zero basis functions:      423 in task     4
  | Maximal number of non-zero basis functions:      416 in task     5
  | Maximal number of non-zero basis functions:      424 in task     6
  | Maximal number of non-zero basis functions:      409 in task     7
  | Maximal number of non-zero basis functions:      428 in task     8
  | Maximal number of non-zero basis functions:      420 in task     9
  | Maximal number of non-zero basis functions:      420 in task    10
  | Maximal number of non-zero basis functions:      427 in task    11
  | Maximal number of non-zero basis functions:      422 in task    12
  | Maximal number of non-zero basis functions:      419 in task    13
  | Maximal number of non-zero basis functions:      426 in task    14
  | Maximal number of non-zero basis functions:      423 in task    15
  | Maximal number of non-zero basis functions:      434 in task    16
  | Maximal number of non-zero basis functions:      411 in task    17
  Integrating Hamiltonian matrix: batch-based integration.
  GPU acceleration will be used when integrating the Hamiltonian matrix.
  Reporting GPU memory usage by myid 0.  Note that it is likely not the only MPI task binding to its GPU!
  Allocating        1.528 MB on GPU for hamiltonian_shell
  Allocating        0.699 MB on GPU for wave
  Allocating        0.002 MB on GPU for partition
  Allocating        0.699 MB on GPU for h_times_psi
  Time summed over all CPUs for integration: real work       11.011 s, elapsed       11.816 s
  Deallocating memory used on GPU for Hamiltonian integration.
  Integrating overlap matrix.
  Time summed over all CPUs for integration: real work        8.784 s, elapsed        9.510 s
  Deallocating overlap matrix.

  Updating Kohn-Sham eigenvalues and eigenvectors using ELSI and the ELPA eigensolver.
  Singularity check in k-point 1 (analysis for other k-points may follow below):
  Overlap matrix is not singular
  | Lowest and highest eigenvalues :  0.1595E-02,  0.7444E+01
  Finished singularity check of overlap matrix
  | Time :     0.136 s
  Starting ELPA eigensolver (GPU)
  Finished Cholesky decomposition
  | Time :     0.007 s
  Finished transformation to standard eigenproblem
  | Time :     0.027 s
  Finished solving standard eigenproblem
  | Time :     0.240 s
  Finished back-transformation of eigenvectors
  | Time :     0.019 s

  Obtaining occupation numbers and electronic chemical potential using ELSI.
  | Note that, for insulating systems, the printed 'chemical potential' value is not uniquely defined.
  | It can be anywhere in the energy gap, as long as it correctly separates occupied and unoccupied states.
  | In systems with a gap, the physically relevant chemical potential is the VBM or HOMO.

  | Chemical potential (Fermi level):    -8.65951854 eV
  Writing Kohn-Sham eigenvalues.

  State    Occupation    Eigenvalue [Ha]    Eigenvalue [eV]
      1       2.00000         -18.910169         -514.57187
      2       2.00000         -18.908183         -514.51783
      3       2.00000         -18.906781         -514.47969
      4       2.00000         -18.898596         -514.25697
      5       2.00000         -18.896981         -514.21302
      6       2.00000         -18.896271         -514.19370
      7       2.00000         -18.894767         -514.15276
      8       2.00000         -18.894443         -514.14396
      9       2.00000         -18.894276         -514.13941
     10       2.00000         -18.893851         -514.12785
     11       2.00000         -18.891682         -514.06882
     12       2.00000         -18.888014         -513.96901
     13       2.00000         -18.887731         -513.96132
     14       2.00000         -18.886996         -513.94131
     15       2.00000         -18.884133         -513.86341
     16       2.00000         -18.882048         -513.80666
     17       2.00000         -18.881067         -513.77998
     18       2.00000         -18.881067         -513.77997
     19       2.00000         -18.877560         -513.68456
     20       2.00000         -18.876278         -513.64967
     21       2.00000         -18.875067         -513.61670
     22       2.00000         -18.865370         -513.35283
     23       2.00000         -18.860261         -513.21382
     24       2.00000         -18.859404         -513.19050
     25       2.00000         -18.859367         -513.18949
     26       2.00000         -18.857799         -513.14681
     27       2.00000         -18.857330         -513.13405
     28       2.00000         -18.854562         -513.05873
     29       2.00000         -18.852967         -513.01533
     30       2.00000         -18.851417         -512.97314
     31       2.00000         -18.847166         -512.85748
     32       2.00000         -18.841124         -512.69308
     33       2.00000          -1.156645          -31.47392
     34       2.00000          -1.154480          -31.41499
     35       2.00000          -1.154293          -31.40991
     36       2.00000          -1.149453          -31.27820
     37       2.00000          -1.147468          -31.22421
     38       2.00000          -1.145790          -31.17852
     39       2.00000          -1.143697          -31.12158
     40       2.00000          -1.140568          -31.03642
     41       2.00000          -1.138138          -30.97031
     42       2.00000          -1.136996          -30.93924
     43       2.00000          -1.136555          -30.92723
     44       2.00000          -1.134909          -30.88243
     45       2.00000          -1.132822          -30.82565
     46       2.00000          -1.127867          -30.69082
     47       2.00000          -1.125678          -30.63126
     48       2.00000          -1.121703          -30.52309
     49       2.00000          -1.121289          -30.51181
     50       2.00000          -1.118680          -30.44082
     51       2.00000          -1.112227          -30.26524
     52       2.00000          -1.103088          -30.01655
     53       2.00000          -1.102331          -29.99595
     54       2.00000          -1.095221          -29.80249
     55       2.00000          -1.080444          -29.40038
     56       2.00000          -1.078175          -29.33864
     57       2.00000          -1.077796          -29.32833
     58       2.00000          -1.074174          -29.22975
     59       2.00000          -1.072175          -29.17537
     60       2.00000          -1.070790          -29.13767
     61       2.00000          -1.068749          -29.08214
     62       2.00000          -1.066709          -29.02662
     63       2.00000          -1.059247          -28.82359
     64       2.00000          -1.046344          -28.47247
     65       2.00000          -0.725312          -19.73675
     66       2.00000          -0.711848          -19.37037
     67       2.00000          -0.700786          -19.06937
     68       2.00000          -0.687700          -18.71327
     69       2.00000          -0.687056          -18.69576
     70       2.00000          -0.685179          -18.64468
     71       2.00000          -0.682228          -18.56436
     72       2.00000          -0.681193          -18.53619
     73       2.00000          -0.677720          -18.44171
     74       2.00000          -0.671235          -18.26523
     75       2.00000          -0.668733          -18.19716
     76       2.00000          -0.666298          -18.13089
     77       2.00000          -0.665827          -18.11809
     78       2.00000          -0.659711          -17.95164
     79       2.00000          -0.659148          -17.93632
     80       2.00000          -0.657679          -17.89634
     81       2.00000          -0.655179          -17.82833
     82       2.00000          -0.653703          -17.78817
     83       2.00000          -0.650496          -17.70090
     84       2.00000          -0.647671          -17.62403
     85       2.00000          -0.643477          -17.50989
     86       2.00000          -0.639155          -17.39229
     87       2.00000          -0.631097          -17.17302
     88       2.00000          -0.627635          -17.07881
     89       2.00000          -0.624366          -16.98987
     90       2.00000          -0.617581          -16.80522
     91       2.00000          -0.613714          -16.70002
     92       2.00000          -0.612235          -16.65977
     93       2.00000          -0.603517          -16.42252
     94       2.00000          -0.599303          -16.30787
     95       2.00000          -0.592407          -16.12022
     96       2.00000          -0.591975          -16.10846
     97       2.00000          -0.582234          -15.84340
     98       2.00000          -0.571471          -15.55052
     99       2.00000          -0.569162          -15.48768
    100       2.00000          -0.566433          -15.41344
    101       2.00000          -0.562050          -15.29416
    102       2.00000          -0.560826          -15.26086
    103       2.00000          -0.557529          -15.17115
    104       2.00000          -0.554984          -15.10188
    105       2.00000          -0.553523          -15.06212
    106       2.00000          -0.550558          -14.98145
    107       2.00000          -0.545598          -14.84648
    108       2.00000          -0.543911          -14.80058
    109       2.00000          -0.543636          -14.79308
    110       2.00000          -0.539515          -14.68095
    111       2.00000          -0.538765          -14.66053
    112       2.00000          -0.536321          -14.59404
    113       2.00000          -0.534084          -14.53316
    114       2.00000          -0.530645          -14.43959
    115       2.00000          -0.529694          -14.41371
    116       2.00000          -0.524989          -14.28567
    117       2.00000          -0.523154          -14.23574
    118       2.00000          -0.518266          -14.10274
    119       2.00000          -0.517213          -14.07408
    120       2.00000          -0.516666          -14.05918
    121       2.00000          -0.513605          -13.97591
    122       2.00000          -0.510311          -13.88626
    123       2.00000          -0.509247          -13.85731
    124       2.00000          -0.507743          -13.81639
    125       2.00000          -0.506306          -13.77728
    126       2.00000          -0.504015          -13.71493
    127       2.00000          -0.500175          -13.61044
    128       2.00000          -0.489662          -13.32439
    129       2.00000          -0.483131          -13.14667
    130       2.00000          -0.481691          -13.10749
    131       2.00000          -0.481622          -13.10561
    132       2.00000          -0.478817          -13.02928
    133       2.00000          -0.477136          -12.98352
    134       2.00000          -0.476725          -12.97235
    135       2.00000          -0.474527          -12.91254
    136       2.00000          -0.473535          -12.88555
    137       2.00000          -0.472996          -12.87086
    138       2.00000          -0.471524          -12.83083
    139       2.00000          -0.471205          -12.82213
    140       2.00000          -0.470493          -12.80277
    141       2.00000          -0.468984          -12.76172
    142       2.00000          -0.466352          -12.69007
    143       2.00000          -0.463925          -12.62404
    144       2.00000          -0.462969          -12.59802
    145       2.00000          -0.461978          -12.57106
    146       2.00000          -0.460785          -12.53861
    147       2.00000          -0.459822          -12.51240
    148       2.00000          -0.457909          -12.46034
    149       2.00000          -0.455766          -12.40202
    150       2.00000          -0.453918          -12.35173
    151       2.00000          -0.451981          -12.29902
    152       2.00000          -0.448739          -12.21082
    153       2.00000          -0.447244          -12.17012
    154       2.00000          -0.445004          -12.10917
    155       2.00000          -0.440553          -11.98805
    156       2.00000          -0.439912          -11.97062
    157       2.00000          -0.437470          -11.90417
    158       2.00000          -0.436592          -11.88029
    159       2.00000          -0.435896          -11.86133
    160       2.00000          -0.434866          -11.83330
    161       0.00000          -0.172852           -4.70355
    162       0.00000          -0.121239           -3.29907
    163       0.00000          -0.112076           -3.04973
    164       0.00000          -0.108054           -2.94030
    165       0.00000          -0.104825           -2.85243
    166       0.00000          -0.101915           -2.77324
    167       0.00000          -0.097508           -2.65332
    168       0.00000          -0.072455           -1.97160
    169       0.00000          -0.066259           -1.80301
    170       0.00000          -0.064626           -1.75857
    171       0.00000          -0.061620           -1.67676
    172       0.00000          -0.059915           -1.63038
    173       0.00000          -0.052485           -1.42818
    174       0.00000          -0.048163           -1.31058
    175       0.00000          -0.047768           -1.29984
    176       0.00000          -0.040013           -1.08881
    177       0.00000          -0.037344           -1.01619
    178       0.00000          -0.033578           -0.91372
    179       0.00000          -0.031222           -0.84959
    180       0.00000          -0.021888           -0.59560
    181       0.00000          -0.016192           -0.44060
    182       0.00000          -0.013909           -0.37849
    183       0.00000          -0.003284           -0.08936
    184       0.00000           0.004536            0.12343
    185       0.00000           0.005841            0.15894
    186       0.00000           0.014545            0.39580
    187       0.00000           0.017655            0.48040
    188       0.00000           0.020456            0.55663
    189       0.00000           0.026601            0.72385
    190       0.00000           0.028123            0.76527
    191       0.00000           0.029644            0.80664
    192       0.00000           0.033121            0.90126
    193       0.00000           0.036010            0.97988
    194       0.00000           0.041359            1.12544
    195       0.00000           0.046751            1.27217
    196       0.00000           0.051879            1.41171
    197       0.00000           0.053650            1.45990
    198       0.00000           0.056419            1.53524
    199       0.00000           0.059379            1.61578
    200       0.00000           0.060821            1.65503
    201       0.00000           0.062517            1.70117
    202       0.00000           0.063753            1.73482
    203       0.00000           0.068406            1.86142
    204       0.00000           0.071781            1.95326
    205       0.00000           0.073647            2.00403
    206       0.00000           0.076934            2.09349
    207       0.00000           0.078036            2.12347
    208       0.00000           0.081283            2.21183
    209       0.00000           0.088007            2.39480
    210       0.00000           0.090884            2.47308
    211       0.00000           0.095042            2.58623
    212       0.00000           0.101641            2.76579
    213       0.00000           0.103218            2.80871
    214       0.00000           0.103625            2.81978
    215       0.00000           0.108558            2.95400
    216       0.00000           0.113641            3.09233
    217       0.00000           0.116911            3.18132
    218       0.00000           0.121034            3.29349
    219       0.00000           0.123557            3.36215
    220       0.00000           0.125493            3.41483
    221       0.00000           0.128960            3.50917
    222       0.00000           0.134914            3.67119
    223       0.00000           0.137569            3.74345
    224       0.00000           0.142249            3.87078
    225       0.00000           0.146788            3.99430
    226       0.00000           0.151432            4.12068
    227       0.00000           0.155530            4.23217
    228       0.00000           0.159890            4.35083
    229       0.00000           0.169124            4.60211
    230       0.00000           0.177287            4.82422
    231       0.00000           0.185636            5.05142
    232       0.00000           0.190754            5.19067
    233       0.00000           0.192472            5.23743
    234       0.00000           0.197571            5.37619
    235       0.00000           0.204841            5.57400
    236       0.00000           0.206861            5.62898
    237       0.00000           0.213424            5.80757
    238       0.00000           0.219914            5.98418
    239       0.00000           0.223120            6.07141
    240       0.00000           0.226624            6.16674
    241       0.00000           0.239910            6.52829
    242       0.00000           0.244710            6.65891
    243       0.00000           0.250115            6.80598
    244       0.00000           0.251975            6.85660
    245       0.00000           0.258308            7.02891
    246       0.00000           0.265563            7.22634
    247       0.00000           0.269140            7.32368
    248       0.00000           0.275752            7.50361
    249       0.00000           0.278878            7.58866
    250       0.00000           0.289571            7.87962
    251       0.00000           0.290778            7.91248
    252       0.00000           0.293347            7.98237
    253       0.00000           0.297366            8.09175
    254       0.00000           0.314883            8.56840
    255       0.00000           0.320747            8.72797
    256       0.00000           0.325198            8.84909
    257       0.00000           0.328966            8.95163
    258       0.00000           0.338856            9.22073
    259       0.00000           0.347812            9.46446
[...]
  |    H      0     4.527807 A      4.527807 A        1.268855E-16 a.u.
  |    H      0     4.527807 A      4.583499 A       -4.900954E-17 a.u.
  |    H      0     4.527807 A      4.583499 A        4.713786E-16 a.u.
  |    H      2     3.678162 A  2.180220E+05 A            0.556529 a.u.
  |    H      1     3.958095 A  1.721251E+08 A            0.841931 a.u.
  |    H      0     4.527807 A  3.866455E+16 A            0.581436 a.u.
  |    O      0     2.043000 A      2.043000 A       -1.436841E-16 a.u.
  |    O      3     3.498446 A      3.498446 A        3.043453E-17 a.u.
  |    O      3     3.498446 A      3.498446 A        1.541443E-16 a.u.
  |    O      0     3.905335 A      3.905335 A        2.173090E-16 a.u.
  |    O      0     3.905335 A      3.905335 A        7.213445E-17 a.u.
  |    O      0     4.101052 A      4.101052 A        2.361718E-16 a.u.
  |    O      1     4.101052 A      4.101052 A        3.235185E-17 a.u.
  |    O      0     4.359549 A      4.359549 A       -5.329475E-17 a.u.
  |    O      1     4.413171 A      4.413171 A        3.261883E-17 a.u.
  |    O      1     4.522403 A      4.522403 A        6.417997E-16 a.u.
  |    O      1     4.522403 A      4.522403 A        4.224783E-16 a.u.
  |    O      2     4.522403 A      4.522403 A       -4.387647E-16 a.u.
  |    O      0     4.522403 A      4.578029 A        2.602039E-16 a.u.
  |    O      0     4.578029 A      4.578029 A        1.226235E-16 a.u.
  |    O      1     4.578029 A      4.578029 A       -6.107316E-16 a.u.
  |    O      1     4.578029 A      4.578029 A       -2.224438E-16 a.u.
  |    O      2     4.578029 A      4.578029 A       -7.020279E-16 a.u.
  |    O      2     4.522403 A      4.578029 A        1.323470E-15 a.u.
  |    O      2     4.578029 A      4.578029 A        7.923696E-16 a.u.
  |    O      2     4.522403 A      4.578029 A       -9.951815E-16 a.u.
  |    O      0     4.578029 A      4.634338 A       -8.813582E-18 a.u.
  |    O      1     4.578029 A      4.634338 A       -3.325386E-17 a.u.
  |    O      1     4.634338 A      4.634338 A        9.588032E-16 a.u.
  |    O      2     4.578029 A      4.634338 A        1.064715E-17 a.u.
  |    O      2     4.578029 A      4.634338 A       -3.770343E-15 a.u.
  |    O      4     3.251020 A  1.511584E+03 A            1.513372 a.u.
  |    O      3     3.541477 A  1.434166E+04 A            4.293220 a.u.
  |    O      2     4.634338 A  5.584435E+05 A            9.352428 a.u.
  |    O      1     4.634338 A  2.821283E+08 A            2.261940 a.u.
  |    O      0     4.578029 A  4.264100E+16 A            0.641234 a.u.

  | Shrink_full_auxil_basis : there are       38  radial auxiliary wave functions
                            accepted and       5 rejected.
  | Shrink_full_auxil_basis : there are totally                4544 partial auxiliary wave functions.
 
  | Maximal number of product basis functions per thread :   256   256
 
  | Minimal total memory requirement for three-center overlap :      10.450 Gbs
  | Number of local auxiliary basis functions on task:      0   256
  | Number of local auxiliary basis functions on task:      1   256
  | Number of local auxiliary basis functions on task:      2   256
  | Number of local auxiliary basis functions on task:      3   256
  | Number of local auxiliary basis functions on task:      4   256
  | Number of local auxiliary basis functions on task:      5   256
  | Number of local auxiliary basis functions on task:      6   256
  | Number of local auxiliary basis functions on task:      7   256
  | Number of local auxiliary basis functions on task:      8   256
  | Number of local auxiliary basis functions on task:      9   256
  | Number of local auxiliary basis functions on task:     10   256
  | Number of local auxiliary basis functions on task:     11   256
  | Number of local auxiliary basis functions on task:     12   256
  | Number of local auxiliary basis functions on task:     13   256
  | Number of local auxiliary basis functions on task:     14   240
  | Number of local auxiliary basis functions on task:     15   240
  | Number of local auxiliary basis functions on task:     16   240
  | Number of local auxiliary basis functions on task:     17   240
  | 2D aux task distribution:      3 X      6
  | 2D block size (nb_aux_2d):     64
 
  Basis pair condensation :    295296  -->     224636
 
 --------------------------------------------
  Constructing auxiliary basis (full product) ...
 
  Product basis:
  | charge radius: extent of product basis function
  | field radius: extent of its Coulomb potential
  | Species   l  charge radius    field radius  multipol momen
  |    H      1     3.910002 A      3.910002 A       -2.487223E-16 a.u.
  |    H      1     3.958095 A      3.958095 A       -2.441841E-16 a.u.
  |    H      0     4.527807 A      4.527807 A        1.268855E-16 a.u.
  |    H      0     4.527807 A      4.583499 A       -4.900954E-17 a.u.
  |    H      0     4.527807 A      4.583499 A        4.713786E-16 a.u.
  |    H      2     3.678162 A  2.180220E+05 A            0.556529 a.u.
  |    H      1     3.958095 A  1.721251E+08 A            0.841931 a.u.
  |    H      0     4.527807 A  3.866455E+16 A            0.581436 a.u.
  |    O      0     2.043000 A      2.043000 A       -1.436841E-16 a.u.
  |    O      3     3.498446 A      3.498446 A        3.043453E-17 a.u.
  |    O      3     3.498446 A      3.498446 A        1.541443E-16 a.u.
  |    O      0     3.905335 A      3.905335 A        2.173090E-16 a.u.
  |    O      0     3.905335 A      3.905335 A        7.213445E-17 a.u.
  |    O      0     4.101052 A      4.101052 A        2.361718E-16 a.u.
  |    O      1     4.101052 A      4.101052 A        3.235185E-17 a.u.
  |    O      0     4.359549 A      4.359549 A       -5.329475E-17 a.u.
  |    O      1     4.413171 A      4.413171 A        3.261883E-17 a.u.
  |    O      1     4.522403 A      4.522403 A        6.417997E-16 a.u.
  |    O      1     4.522403 A      4.522403 A        4.224783E-16 a.u.
  |    O      2     4.522403 A      4.522403 A       -4.387647E-16 a.u.
  |    O      0     4.522403 A      4.578029 A        2.602039E-16 a.u.
  |    O      0     4.578029 A      4.578029 A        1.226235E-16 a.u.
  |    O      1     4.578029 A      4.578029 A       -6.107316E-16 a.u.
  |    O      1     4.578029 A      4.578029 A       -2.224438E-16 a.u.
  |    O      2     4.578029 A      4.578029 A       -7.020279E-16 a.u.
  |    O      2     4.522403 A      4.578029 A        1.323470E-15 a.u.
  |    O      2     4.578029 A      4.578029 A        7.923696E-16 a.u.
  |    O      2     4.522403 A      4.578029 A       -9.951815E-16 a.u.
  |    O      0     4.578029 A      4.634338 A       -8.813582E-18 a.u.
  |    O      1     4.578029 A      4.634338 A       -3.325386E-17 a.u.
  |    O      1     4.634338 A      4.634338 A        9.588032E-16 a.u.
  |    O      2     4.578029 A      4.634338 A        1.064715E-17 a.u.
  |    O      2     4.578029 A      4.634338 A       -3.770343E-15 a.u.
  |    O      4     3.251020 A  1.511584E+03 A            1.513372 a.u.
  |    O      3     3.541477 A  1.434166E+04 A            4.293220 a.u.
  |    O      2     4.634338 A  5.584435E+05 A            9.352428 a.u.
  |    O      1     4.634338 A  2.821283E+08 A            2.261940 a.u.
  |    O      0     4.578029 A  4.264100E+16 A            0.641234 a.u.

  | Shrink_full_auxil_basis : there are       38  radial auxiliary wave functions
                            accepted and       5 rejected.
  | Shrink_full_auxil_basis : there are totally                4544 partial auxiliary wave functions.
 
  | Maximal number of product basis functions per thread :   256   256
 
  | Minimal total memory requirement for three-center overlap :      10.450 Gbs
  | Number of local auxiliary basis functions on task:      0   256
  | Number of local auxiliary basis functions on task:      1   256
  | Number of local auxiliary basis functions on task:      2   256
  | Number of local auxiliary basis functions on task:      3   256
  | Number of local auxiliary basis functions on task:      4   256
  | Number of local auxiliary basis functions on task:      5   256
  | Number of local auxiliary basis functions on task:      6   256
  | Number of local auxiliary basis functions on task:      7   256
  | Number of local auxiliary basis functions on task:      8   256
  | Number of local auxiliary basis functions on task:      9   256
  | Number of local auxiliary basis functions on task:     10   256
  | Number of local auxiliary basis functions on task:     11   256
  | Number of local auxiliary basis functions on task:     12   256
  | Number of local auxiliary basis functions on task:     13   256
  | Number of local auxiliary basis functions on task:     14   240
  | Number of local auxiliary basis functions on task:     15   240
  | Number of local auxiliary basis functions on task:     16   240
  | Number of local auxiliary basis functions on task:     17   240
  | 2D aux task distribution:      3 X      6
  | 2D block size (nb_aux_2d):     64
 
  Basis pair condensation :    295296  -->     224636
dP_dE (Bohr^3) at every cycle:--->
 (342.015176606803,0.000000000000000E+000) (7.05226149095576,0.000000000000000E+000) (-4.24521111336942,0.000000000000000E+000)
 (7.04554162223856,0.000000000000000E+000) (331.060866309927,0.000000000000000E+000) (-1.24025273601788,0.000000000000000E+000)
 (-4.25050043571663,0.000000000000000E+000) (-1.25203257472751,0.000000000000000E+000) (330.639294757827,0.000000000000000E+000)
DFPT polarizability (Bohr^3)        xx        yy        zz        xy        xz        yz
  | Polarizability:--->                       342.015176607                  331.060866310                  330.639294758                    7.052261491                   -4.245211113                   -1.240252736

DFPT for dielectric_constant:--->  # PARSE DFPT_dielectric_tensor
               1.652467800771178             0.013453711589989            -0.008098656867891
               0.013440891989389             1.631570088513851            -0.002366049901933
              -0.008108747392392            -0.002388522487894             1.630765849748206

                                               :  max(cpu_time)    wall_clock(cpu1)
  | Time for  dielectric calculation            :        0.000 s           0.000 s
===========================================================================

------------------------------------------------------------------------------
  Final output of selected total energy values:

  The following output summarizes some interesting total energy values
  at the end of a run (AFTER all relaxation, molecular dynamics, etc.).

  | Total energy of the DFT / Hartree-Fock s.c.f. calculation      :         -66109.169396828 eV
  | Final zero-broadening corrected energy (caution - metals only) :         -66109.169396828 eV
  | For reference only, the value of 1 Hartree used in FHI-aims is :             27.211384500 eV
  | For reference only, the overall average (free atom contribution
  | + realspace contribution) of the electrostatic potential after
  | s.c.f. convergence is                                          :             -4.926252642 eV

  Before relying on these values, please be sure to understand exactly which
  total energy value is referred to by a given number. Different objects may
  all carry the same name 'total energy'. Definitions:

  Total energy of the DFT / Hartree-Fock s.c.f. calculation:
  | Note that this energy does not include ANY quantities calculated after the
  | s.c.f. cycle, in particular not ANY RPA, MP2, etc. many-body perturbation terms.

  Final zero-broadening corrected energy:
  | For metallic systems only, a broadening of the occupation numbers at the Fermi
  | level can be extrapolated back to zero broadening by an electron-gas inspired
  | formula. For all systems that are not real metals, this value can be
  | meaningless and should be avoided.

------------------------------------------------------------------------------
  Methods described in the following list of references were used in this FHI-aims run.
  If you publish the results, please make sure to cite these reference if they apply.
  FHI-aims is an academic code, and for our developers (often, Ph.D. students
  and postdocs), scientific credit in the community is essential.
  Thank you for helping us!

  For any use of FHI-aims, please cite:

    Volker Blum, Ralf Gehrke, Felix Hanke, Paula Havu, Ville Havu,
    Xinguo Ren, Karsten Reuter, and Matthias Scheffler
    'Ab initio molecular simulations with numeric atom-centered orbitals'
    Computer Physics Communications 180, 2175-2196 (2009)
    http://doi.org/10.1016/j.cpc.2009.06.022


  For Hartree-Fock, hybrid functionals, or many-body perturbation theory used in your run, please cite:

    Xinguo Ren, Patrick Rinke, Volker Blum, Juergen Wieferink, Alex Tkatchenko,
    Andrea Sanfilippo, Karsten Reuter, and Matthias Scheffler,
    'Resolution-of-identity approach to Hartree-Fock, hybrid density functionals,
    RPA, MP2, and GW with numeric atom-centered orbital basis functions'
    New Journal of Physics 14, 053020 (2012).
    http://doi.org/10.1088/1367-2630/14/5/053020


  The provided symmetry information was generated with SPGlib:

    Atsushi Togo, Yusuke Seto, Dimitar Pashov
    SPGlib 1.7.3 obtained from http://spglib.sourceforge.net
    Copyright (C) 2008 Atsushi Togo


  The DFPT (perturbation by an electric field) part of the code was used.
  Here is the corresponding reference:

    Honghui Shang, Nathaniel Raimbault, Mariana Rossi,
    Christian Carbogno, Patrick Rinke and Matthias Scheffler,
    'All-Electron, Real-Space Perturbation Theory for Homogeneous
    Electric Fields: Theory, Implementation, and Application within dft'
    New Journal of Physics, 20(7):073040, 2018


  The ELSI infrastructure was used in your run to solve the Kohn-Sham electronic structure.
  Please check out http://elsi-interchange.org to learn more.
  If scalability is important for your project, please acknowledge ELSI by citing:

    V. W-z. Yu, F. Corsetti, A. Garcia, W. P. Huhn, M. Jacquelin, W. Jia,
    B. Lange, L. Lin, J. Lu, W. Mi, A. Seifitokaldani, A. Vazquez-Mayagoitia,
    C. Yang, H. Yang, and V. Blum
    'ELSI: A unified software interface for Kohn-Sham electronic structure solvers'
    Computer Physics Communications 222, 267-285 (2018).
    http://doi.org/10.1016/j.cpc.2017.09.007


  For the real-space grid partitioning and parallelization used in this calculation, please cite:

    Ville Havu, Volker Blum, Paula Havu, and Matthias Scheffler,
    'Efficient O(N) integration for all-electron electronic structure calculation'
    'using numerically tabulated basis functions'
    Journal of Computational Physics 228, 8367-8379 (2009).
    http://doi.org/10.1016/j.jcp.2009.08.008


  The high-level electronic structure method used in your calculation
  employed our efficient localized resolution of identity for the Coulomb operator.
  Some calculations, especially large-scale hybrid density functional theory,
  are only possible thanks to this development. For this feature, please cite:

    Arvid Ihrig, Juergen Wieferink, Igor Ying Zhang, Matti Ropo, Xinguo Ren,
    Patrick Rinke, Matthias Scheffler, and Volker Blum,
    'Accurate localized resolution of identity approach for linear-scaling
    hybrid density functionals and for many-body perturbation theory'
    New Journal of Physics 117, 093020 (2015).
    http://doi.org/10.1088/1367-2630/17/9/093020

  Of course, there are many other important community references, e.g., those cited in the
  above references. Our list is limited to references that describe implementations in the
  FHI-aims code. The reason is purely practical (length of this list) - please credit others as well.

------------------------------------------------------------
          Leaving FHI-aims.
          Date     :  20230221, Time     :  164321.101

          Computational steps:
          | Number of self-consistency cycles          :           45
          | Number of SCF (re)initializations          :            1
          | Number of coupled perturbed self-consistency cycles          :            0
          | Number of CPSCF (re)initializations          :            0

          Detailed time accounting                     :  max(cpu_time)    wall_clock(cpu1)
          | Total time                                  :      471.972 s         491.354 s
          | GPU initialization                          :        2.288 s          18.864 s
          | Preparation time                            :        0.071 s           0.063 s
          | Boundary condition initalization            :        1.256 s           1.257 s
          | Grid partitioning                           :        0.447 s           0.447 s
          | Preloading free-atom quantities on grid     :        2.307 s           2.308 s
          | Free-atom superposition energy              :        0.309 s           0.308 s
          | Total time for integrations                 :       13.258 s          13.467 s
          | Product basis setup: Total time             :        0.000 s           0.000 s
          | Product basis: | 2-center integrations     :(       0.000 s)  (       0.000 s)
          | Product basis: | LVL 3-center & coefficient:(       0.000 s)  (       0.000 s)
          | Total time for solution of K.-S. equations  :        2.531 s           5.211 s
          | Total time for density update               :        9.773 s          10.091 s
          | Total time for mixing & preconditioning     :        8.724 s           8.727 s
          | Total time for Hartree multipole update     :        0.101 s           0.103 s
          | Total time for Hartree multipole sum        :       39.006 s          39.017 s
          | Total time for total energy evaluation      :        0.007 s           0.008 s
          | Total time for DFPT                         :      390.205 s         390.346 s
          | Total time first_order_DM                   :        0.278 s           0.279 s
          | Total time first_order_density              :       82.279 s          82.283 s
          | Total time first_order_potential            :       50.565 s          50.579 s
          | Total time first_order_H                    :      165.965 s         166.015 s
          | Total time solving of Sternheimer equations :        0.177 s           0.180 s
          | Total time for dielectric constant          :        0.000 s           0.000 s
          | Total time momentum matrix                  :        0.000 s           0.000 s

          GPU acceleration has been used for charge density update.
          GPU acceleration has been used for real-space Hamiltonian integration.
          Due to GPU usage, wall_clock(cpu1) will give a more reliable estimate for timings.

          Partial memory accounting:
          | Residual value for overall tracked memory usage across tasks:     0.000000 MB (should be 0.000000 MB)
          | Peak values for overall tracked memory usage:
          |   Minimum:      116.293 MB (on task  0 after allocating DFPT_pulay_mixing::pulay_mix::alphas)
          |   Maximum:      116.293 MB (on task  0 after allocating DFPT_pulay_mixing::pulay_mix::alphas)
          |   Average:      116.293 MB
          | Largest tracked array allocation:
          |   Minimum:       41.476 MB (DFPT_pulay_mixing::initialize_pulay_mixing::X_in_diffs on task  0)
          |   Maximum:       41.476 MB (DFPT_pulay_mixing::initialize_pulay_mixing::X_in_diffs on task  0)
          |   Average:       41.476 MB
          Note:  These values currently only include a subset of arrays which are explicitly tracked.
          The "true" memory usage will be greater.

          Have a nice day.
------------------------------------------------------------
