------------------------------------------------------------
          Invoking FHI-aims ...

          When using FHI-aims, please cite the following reference:

            Volker Blum, Ralf Gehrke, Felix Hanke, Paula Havu,
            Ville Havu, Xinguo Ren, Karsten Reuter, and Matthias Scheffler,
            'Ab Initio Molecular Simulations with Numeric Atom-Centered Orbitals',
            Computer Physics Communications 180, 2175-2196 (2009)

          In addition, many other developments in FHI-aims are likely important for
          your particular application. A partial list of references is given at the end of
          this file. Thank you for giving credit to the authors of these developments.

          For any questions about FHI-aims, please visit our slack channel at

            https://fhi-aims.slack.com

          and our main development and support site at

            https://aims-git.rz-berlin.mpg.de .

          The latter site, in particular, has a wiki to collect information, as well
          as an issue tracker to log discussions, suggest improvements, and report issues
          or bugs. https://aims-git.rz-berlin.mpg.de is also the main development site
          of the project and all new and updated code versions can be obtained there.
          Please send an email to aims-coordinators@fhi-berlin.mpg.de and we will add
          you to these sites. They are for you and everyone is welcome there.

------------------------------------------------------------



  Date     :  20230221, Time     :  134030.550
  Time zero on CPU 1             :   0.366039000000000E+00  s.
  Internal wall clock time zero  :           446218830.550  s.

  FHI-aims created a unique identifier for this run for later identification
  aims_uuid : 47D54289-348D-4026-A0C1-84333C3BF421

  Build configuration of the current instance of FHI-aims
  -------------------------------------------------------
  FHI-aims version      : 221103
  Commit number         : 42523251a
  CMake host system     : Linux-5.3.18-150300.59.68-default
  CMake version         : 3.17.0
  Fortran compiler      : /mpcdf/soft/SLE_15/packages/x86_64/intel_oneapi/2021.3/mpi/2021.3.0/bin/mpiifort (Intel) version 20.2.3.20210609
  Fortran compiler flags: -O3 -ip -fp-model precise
  C compiler            : /mpcdf/soft/SLE_15/packages/x86_64/intel/2021.3.0/bin/icc (Intel) version 20.2.3.20210609
  C compiler flags      : -O3 -ip -fp-model precise -std=gnu99
  CUDA compiler         : /mpcdf/soft/SLE_15/packages/x86_64/cuda/11.6.2/bin/nvcc
  CUDA compiler flags   : -O3 -DAdd_ -lcublas
  HIP compiler          :
  HIP compiler flags    :
  HIP GPU arch          :
  ELPA2 kernel          : AVX512
  Using MPI
  Using ScaLAPACK
  Using LibXC
  Using CUDA
  Using i-PI
  Using RLSY
  Linking against: /mpcdf/soft/SLE_15/packages/x86_64/cuda/11.6.2/lib64/libcublas.so
                   /mpcdf/soft/SLE_15/packages/x86_64/cuda/11.6.2/lib64/libcudart.so
                   /mpcdf/soft/SLE_15/packages/x86_64/intel_oneapi/2021.3/mkl/latest/lib/intel64/libmkl_intel_lp64.so
                   /mpcdf/soft/SLE_15/packages/x86_64/intel_oneapi/2021.3/mkl/latest/lib/intel64/libmkl_sequential.so
                   /mpcdf/soft/SLE_15/packages/x86_64/intel_oneapi/2021.3/mkl/latest/lib/intel64/libmkl_core.so
                   /mpcdf/soft/SLE_15/packages/x86_64/intel_oneapi/2021.3/mkl/latest/lib/intel64/libmkl_blacs_intelmpi_lp64.so
                   /mpcdf/soft/SLE_15/packages/x86_64/intel_oneapi/2021.3/mkl/latest/lib/intel64/libmkl_scalapack_lp64.so

  Using       18 parallel tasks.
  Task        0 on host adag037 reporting.
  Task        1 on host adag037 reporting.
  Task        2 on host adag037 reporting.
  Task        3 on host adag037 reporting.
  Task        4 on host adag037 reporting.
  Task        5 on host adag037 reporting.
  Task        6 on host adag037 reporting.
  Task        7 on host adag037 reporting.
  Task        8 on host adag037 reporting.
  Task        9 on host adag037 reporting.
  Task       10 on host adag037 reporting.
  Task       11 on host adag037 reporting.
  Task       12 on host adag037 reporting.
  Task       13 on host adag037 reporting.
  Task       14 on host adag037 reporting.
  Task       15 on host adag037 reporting.
  Task       16 on host adag037 reporting.
  Task       17 on host adag037 reporting.

  Obtaining array dimensions for all initial allocations:
  
  -----------------------------------------------------------------------
  Parsing control.in (first pass over file, find array dimensions only).
  The contents of control.in will be repeated verbatim below
  unless switched off by setting 'verbatim_writeout .false.' .
  in the first line of control.in .
  -----------------------------------------------------------------------
  
  #########################################################################################
  #
  #  Volker Blum, 2017 : Test run input file control.in for simple H2O
  #
  #########################################################################################
  #
  #  Physical model
  #
    xc                 pw-lda
    spin               none
    relativistic       none
    charge             0.
  
    use_gpu
  
    DFPT dielectric
    ri_density_restart write
    ri_rho1 write
  #  ri_density_restart read 0
  #  ri_rho1 read
    ri_full_output .true.
    sc_accuracy_rho    1d-6
  #  use_calculate_fock_matrix_old .false.
  #  wave_threshold 1e-8
    k_grid 1 1 1
  #  output cube eigenstate 160
  #  output cube eigenstate 161
    wave_threshold 1e-8
    default_prodbas_acc 1e-6
    default_max_l_prodbas 6
  #
  #  Relaxation
  #
  #  relax_geometry   bfgs 1.e-2
  #
  
  ################################################################################
  
  
  ################################################################################
  #
  #  FHI-aims code project
  #  VB, Fritz-Haber Institut, 2009
  #
  #  Suggested "light" defaults for H atom (to be pasted into control.in file)
  #  Be sure to double-check any results obtained with these settings for post-processing,
  #  e.g., with the "tight" defaults and larger basis sets.
  #
  ################################################################################
    species        H
  #     global species definitions
      nucleus             1
      mass                1.00794
  #
      l_hartree           4
  #
      cut_pot             3.5  1.5  1.0
      basis_dep_cutoff    1e-4
  #
      radial_base         24 5.0
      radial_multiplier   1
      angular_grids       specified
        division   0.2421   50
        division   0.3822  110
        division   0.4799  194
        division   0.5341  302
  #      division   0.5626  434
  #      division   0.5922  590
  #      division   0.6542  770
  #      division   0.6868 1202
  #      outer_grid  770
        outer_grid  302
  ################################################################################
  #
  #  Definition of "minimal" basis
  #
  ################################################################################
  #     valence basis states
      valence      1  s   1.
  #     ion occupancy
      ion_occ      1  s   0.5
  ################################################################################
  #
  #  Suggested additional basis functions. For production calculations,
  #  uncomment them one after another (the most important basis functions are
  #  listed first).
  #
  #  Basis constructed for dimers: 0.5 A, 0.7 A, 1.0 A, 1.5 A, 2.5 A
  #
  ################################################################################
  #  "First tier" - improvements: -1014.90 meV to -62.69 meV
       hydro 2 s 2.1
       hydro 2 p 3.5
  #  "Second tier" - improvements: -12.89 meV to -1.83 meV
  #     hydro 1 s 0.85
  #     hydro 2 p 3.7
  #     hydro 2 s 1.2
  #     hydro 3 d 7
  #  "Third tier" - improvements: -0.25 meV to -0.12 meV
  #     hydro 4 f 11.2
  #     hydro 3 p 4.8
  #     hydro 4 d 9
  #     hydro 3 s 3.2
  ################################################################################
  #
  #  FHI-aims code project
  #  VB, Fritz-Haber Institut, 2009
  #
  #  Suggested "light" defaults for O atom (to be pasted into control.in file)
  #  Be sure to double-check any results obtained with these settings for post-processing,
  #  e.g., with the "tight" defaults and larger basis sets.
  #
  ################################################################################
    species        O
  #     global species definitions
      nucleus             8
      mass                15.9994
  #
      l_hartree           4
  #
      cut_pot             3.5  1.5  1.0
      basis_dep_cutoff    1e-4
  #
      radial_base         36 5.0
      radial_multiplier   1
       angular_grids specified
        division   0.2659   50
        division   0.4451  110
        division   0.6052  194
        division   0.7543  302
  #      division   0.8014  434
  #      division   0.8507  590
  #      division   0.8762  770
  #      division   0.9023  974
  #      division   1.2339 1202
  #      outer_grid 974
        outer_grid 302
  ################################################################################
  #
  #  Definition of "minimal" basis
  #
  ################################################################################
  #     valence basis states
      valence      2  s   2.
      valence      2  p   4.
  #     ion occupancy
      ion_occ      2  s   1.
      ion_occ      2  p   3.
  ################################################################################
  #
  #  Suggested additional basis functions. For production calculations,
  #  uncomment them one after another (the most important basis functions are
  #  listed first).
  #
  #  Constructed for dimers: 1.0 A, 1.208 A, 1.5 A, 2.0 A, 3.0 A
  #
  ################################################################################
  #  "First tier" - improvements: -699.05 meV to -159.38 meV
       hydro 2 p 1.8
       hydro 3 d 7.6
       hydro 3 s 6.4
  #  "Second tier" - improvements: -49.91 meV to -5.39 meV
  #     hydro 4 f 11.6
  #     hydro 3 p 6.2
  #     hydro 3 d 5.6
  #     hydro 5 g 17.6
  #     hydro 1 s 0.75
  #  "Third tier" - improvements: -2.83 meV to -0.50 meV
  #     ionic 2 p auto
  #     hydro 4 f 10.8
  #     hydro 4 d 4.7
  #     hydro 2 s 6.8
  #  "Fourth tier" - improvements: -0.40 meV to -0.12 meV
  #     hydro 3 p 5
  #     hydro 3 s 3.3
  #     hydro 5 g 15.6
  #     hydro 4 f 17.6
  #     hydro 4 d 14
  # Further basis functions - -0.08 meV and below
  #     hydro 3 s 2.1
  #     hydro 4 d 11.6
  #     hydro 3 p 16
  #     hydro 2 s 17.2
  
  -----------------------------------------------------------------------
  Completed first pass over input file control.in .
  -----------------------------------------------------------------------
  
  
  -----------------------------------------------------------------------
  Parsing geometry.in (first pass over file, find array dimensions only).
  The contents of geometry.in will be repeated verbatim below
  unless switched off by setting 'verbatim_writeout .false.' .
  in the first line of geometry.in .
  -----------------------------------------------------------------------
  
  #=======================================================
  # FHI-aims file: /ada/ptmp/mpsd/alewis/bulk_water/qmdata/data/geoms/404.in
  # Created using the Atomic Simulation Environment (ASE)
  # Tue Feb 21 11:23:37 2023
  #=======================================================
  lattice_vector 9.7910100000000000 0.0000000000000000 0.0000000000000000
  lattice_vector 0.0000000000000000 9.7910100000000000 0.0000000000000000
  lattice_vector 0.0000000000000000 0.0000000000000000 9.7910100000000000
  atom 9.1752800000000008 18.3609000000000009 10.4259000000000004 O
  atom 9.9403299999999994 18.4322000000000017 10.9003999999999994 H
  atom 8.4964499999999994 18.5454000000000008 11.1692000000000000 H
  atom 7.8028399999999998 27.8759000000000015 -15.0541999999999998 O
  atom 8.6921900000000001 27.6709999999999994 -14.6348000000000003 H
  atom 7.6675800000000001 26.9154000000000018 -15.2520000000000007 H
  atom 14.1522000000000006 5.8089300000000001 -8.2266100000000009 O
  atom 15.1010000000000009 6.1414799999999996 -8.0466099999999994 H
  atom 14.1584000000000003 5.2904200000000001 -8.9733499999999999 H
  atom 12.2119999999999997 9.3322599999999998 -28.5332000000000008 O
  atom 12.7370999999999999 9.9988200000000003 -28.2638999999999996 H
  atom 12.4629999999999992 8.8811400000000003 -27.6803999999999988 H
  atom -17.5353999999999992 -2.7870200000000001 32.1589999999999989 O
  atom -16.8159999999999989 -3.0947300000000002 31.8154000000000003 H
  atom -18.2940000000000005 -3.2376000000000000 31.8716000000000008 H
  atom 6.2260600000000004 2.0763500000000001 2.6887599999999998 O
  atom 6.2265600000000001 2.3012999999999999 1.7313700000000001 H
  atom 7.0666500000000001 2.4117799999999998 3.0430999999999999 H
  atom -10.7161000000000008 2.1969599999999998 6.2640399999999996 O
  atom -9.9377499999999994 1.7554600000000000 6.8988800000000001 H
  atom -11.2698999999999998 1.4613100000000001 6.3459399999999997 H
  atom -16.1200000000000010 -10.7324000000000002 -1.6672000000000000 O
  atom -16.5935999999999986 -10.6258999999999997 -0.8033060000000000 H
  atom -16.3991000000000007 -9.8381299999999996 -2.0472199999999998 H
  atom 7.4769500000000004 -4.3708799999999997 14.4550000000000001 O
  atom 7.2479100000000001 -4.5631700000000004 15.4327000000000005 H
  atom 8.1287000000000003 -5.1516099999999998 14.2088999999999999 H
  atom 5.7806300000000004 0.2862620000000000 -1.0885000000000000 O
  atom 5.0993000000000004 -0.2921430000000000 -1.3629400000000000 H
  atom 6.2143800000000002 0.4747640000000000 -1.8764799999999999 H
  atom 12.6777999999999995 -9.0310199999999998 3.9937399999999998 O
  atom 11.7219999999999995 -9.3642900000000004 3.8167000000000000 H
  atom 12.7993000000000006 -8.5763400000000001 3.1890000000000001 H
  atom 2.2265700000000002 -3.6300800000000000 -13.7350999999999992 O
  atom 2.4108399999999999 -3.5763300000000000 -14.7425999999999995 H
  atom 1.4876499999999999 -3.0005400000000000 -13.4915000000000003 H
  atom 7.1636600000000001 16.2638999999999996 11.1098999999999997 O
  atom 7.7839499999999999 16.0957000000000008 10.2803000000000004 H
  atom 6.9114800000000001 17.1779000000000011 11.2340000000000000 H
  atom -10.9796999999999993 -6.6907500000000004 13.5248000000000008 O
  atom -10.9263999999999992 -7.2255700000000003 14.3985000000000003 H
  atom -10.2178000000000004 -6.9091300000000002 12.8536000000000001 H
  atom -9.1942900000000005 -10.3792000000000009 -16.4111000000000011 O
  atom -9.7012599999999996 -10.6225000000000005 -15.6492000000000004 H
  atom -8.4509399999999992 -11.1609999999999996 -16.5781999999999989 H
  atom 10.6160999999999994 41.1387000000000000 21.5611999999999995 O
  atom 10.4940999999999995 40.2331000000000003 21.8044000000000011 H
  atom 9.9974399999999992 41.2057000000000002 20.8256000000000014 H
  atom -13.1392000000000007 -19.0344000000000015 6.0887000000000002 O
  atom -13.8571000000000009 -18.4187000000000012 5.5115400000000001 H
  atom -13.1142000000000003 -19.5694000000000017 5.3992699999999996 H
  atom 0.0357450000000000 10.2090999999999994 37.7334999999999994 O
  atom -0.2747190000000000 9.7627299999999995 38.6492000000000004 H
  atom 1.0038100000000001 10.3086000000000002 37.7659999999999982 H
  atom 4.6244500000000004 22.1872000000000007 5.4933699999999996 O
  atom 4.8233899999999998 22.9313000000000002 4.8329599999999999 H
  atom 4.2111299999999998 21.6433999999999997 4.8664800000000001 H
  atom -7.6136100000000004 -18.1853000000000016 -3.1226400000000001 O
  atom -7.7307300000000003 -17.1790999999999983 -3.1039699999999999 H
  atom -7.4507300000000001 -18.3882000000000012 -4.1056800000000004 H
  atom 14.4694000000000003 5.0208300000000001 -15.3520000000000003 O
  atom 15.4110999999999994 5.1780400000000002 -15.1074999999999999 H
  atom 14.1812000000000005 5.0094300000000000 -16.3274000000000008 H
  atom 13.5341000000000005 41.0623000000000005 11.4443999999999999 O
  atom 14.2687000000000008 41.3046999999999969 11.9454999999999991 H
  atom 13.1439000000000004 41.6694000000000031 10.8642000000000003 H
  atom -3.4077899999999999 18.9162999999999997 1.5264200000000001 O
  atom -3.4398300000000002 19.6012999999999984 2.1294499999999998 H
  atom -3.4456199999999999 19.3865000000000016 0.5617770000000000 H
  atom -19.2210999999999999 17.9429000000000016 6.3278299999999996 O
  atom -19.6860999999999997 17.4183999999999983 6.9108200000000002 H
  atom -19.1525999999999996 18.7598999999999982 6.8211300000000001 H
  atom 6.8903900000000000 5.0987900000000002 7.3579499999999998 O
  atom 6.1886099999999997 5.7187999999999999 7.3810599999999997 H
  atom 7.5613599999999996 5.7088000000000001 7.8355899999999998 H
  atom 1.7542000000000000 -5.8098799999999997 -11.7484999999999999 O
  atom 2.6328999999999998 -5.5572600000000003 -11.4206000000000003 H
  atom 1.7004300000000001 -5.3671699999999998 -12.6015999999999995 H
  atom -19.8017000000000003 6.3754999999999997 28.0827999999999989 O
  atom -19.6403999999999996 7.1359000000000004 28.7054000000000009 H
  atom -19.3453000000000017 5.5914900000000003 28.1851999999999983 H
  atom -0.8169280000000000 -6.9704300000000003 9.2635100000000001 O
  atom -0.9735330000000000 -6.6094499999999998 8.4201300000000003 H
  atom -0.3467990000000000 -7.7043799999999996 8.8655700000000000 H
  atom 9.5239999999999991 -4.4097799999999996 -17.5777000000000001 O
  atom 9.4540900000000008 -5.0497899999999998 -16.8235999999999990 H
  atom 8.6485699999999994 -4.1369899999999999 -17.7335999999999991 H
  atom 16.0363000000000007 -7.1674600000000002 0.0543830000000000 O
  atom 16.9041999999999994 -6.8489000000000004 -0.4046360000000000 H
  atom 15.8474000000000004 -7.9752799999999997 -0.4573770000000000 H
  atom 33.6482000000000028 -5.5870100000000003 38.3213999999999970 O
  atom 33.8733999999999966 -5.0315799999999999 37.6867999999999981 H
  atom 34.4155999999999977 -6.1552899999999999 38.6066999999999965 H
  atom 24.2565999999999988 6.5105899999999997 7.3361499999999999 O
  atom 23.4779000000000018 6.0255400000000003 6.7767200000000001 H
  atom 23.9888000000000012 7.3777799999999996 7.4293899999999997 H
  
  -----------------------------------------------------------------------
  Completed first pass over input file geometry.in .
  -----------------------------------------------------------------------
  

  Basic array size parameters:
  | Number of species                 :        2
  | Number of atoms                   :       96
  | Number of lattice vectors         :        3
  | Max. basis fn. angular momentum   :        2
  | Max. atomic/ionic basis occupied n:        2
  | Max. number of basis fn. types    :        2
  | Max. radial fns per species/type  :        3
  | Max. logarithmic grid size        :     1301
  | Max. radial integration grid size :       36
  | Max. angular integration grid size:      302
  | Max. angular grid division number :        8
  | Radial grid for Hartree potential :     1301
  | Number of spin channels           :        1

------------------------------------------------------------
          Reading file control.in.
------------------------------------------------------------
  XC: Using Perdew-Wang parametrisation of Ceperley-Alder LDA.
  Spin treatment: No spin polarisation.
  Non-relativistic treatment of kinetic energy.
  Charge =   0.000000E+00: Neutral system requested explicitly.
  DFPT calculation will begin after the DFT/HF calculation.
  Convergence accuracy of self-consistent charge density:  0.1000E-05
  Found k-point grid:         1         1         1
  Threshold value for wave function integration:  0.1000E-07
 
  Reading configuration options for species H                   .
  | Found nuclear charge :   1.0000
  | Found atomic mass :    1.00794000000000      amu
  | Found l_max for Hartree potential  :   4
  | Found cutoff potl. onset [A], width [A], scale factor :    3.50000    1.50000    1.00000
  | Threshold for basis-dependent cutoff potential is   0.100000E-03
  | Found data for basic radial integration grid :    24 points, outermost radius =    5.000 A
  | Found multiplier for basic radial grid :   1
  | Found angular grid specification: user-specified.
  | Specified grid contains     5 separate shells.
  | Check grid settings after all constraints further below.
  | Found free-atom valence shell :  1 s   1.000
  | No ionic wave fns used. Skipping ion_occ.
  | Found hydrogenic basis function :  2 s   2.100
  | Found hydrogenic basis function :  2 p   3.500
  Species H                   : Missing cutoff potential type.
  Defaulting to exp(1/x)/(1-x)^2 type cutoff potential.
  Species H : No 'logarithmic' tag. Using default grid for free atom:
  | Default logarithmic grid data [bohr] : 0.1000E-03 0.1000E+03 0.1012E+01
  Species H : On-site basis accuracy parameter (for Gram-Schmidt orthonormalisation) not specified.
  Using default value basis_acc =  0.1000000E-03.
  Species H                   : Using default innermost maximum threshold i_radial=  2 for radial functions.
  Species H                   : Default cutoff onset for free atom density etc. : 0.35000000E+01 AA.
  Species H                   : Basic radial grid will be enhanced according to radial_multiplier =   1, to contain    24 grid points.
 
  Reading configuration options for species O                   .
  | Found nuclear charge :   8.0000
  | Found atomic mass :    15.9994000000000      amu
  | Found l_max for Hartree potential  :   4
  | Found cutoff potl. onset [A], width [A], scale factor :    3.50000    1.50000    1.00000
  | Threshold for basis-dependent cutoff potential is   0.100000E-03
  | Found data for basic radial integration grid :    36 points, outermost radius =    5.000 A
  | Found multiplier for basic radial grid :   1
  | Found angular grid specification: user-specified.
  | Specified grid contains     5 separate shells.
  | Check grid settings after all constraints further below.
  | Found free-atom valence shell :  2 s   2.000
  | Found free-atom valence shell :  2 p   4.000
  | No ionic wave fns used. Skipping ion_occ.
  | No ionic wave fns used. Skipping ion_occ.
  | Found hydrogenic basis function :  2 p   1.800
  | Found hydrogenic basis function :  3 d   7.600
  | Found hydrogenic basis function :  3 s   6.400
  Species O                   : Missing cutoff potential type.
  Defaulting to exp(1/x)/(1-x)^2 type cutoff potential.
  Species O : No 'logarithmic' tag. Using default grid for free atom:
  | Default logarithmic grid data [bohr] : 0.1000E-03 0.1000E+03 0.1012E+01
  Species O : On-site basis accuracy parameter (for Gram-Schmidt orthonormalisation) not specified.
  Using default value basis_acc =  0.1000000E-03.
  Species O                   : Using default innermost maximum threshold i_radial=  2 for radial functions.
  Species O                   : Default cutoff onset for free atom density etc. : 0.35000000E+01 AA.
  Species O                   : Basic radial grid will be enhanced according to radial_multiplier =   1, to contain    36 grid points.
 
  Finished reading input file 'control.in'.
 
------------------------------------------------------------


------------------------------------------------------------
          Reading geometry description geometry.in.
------------------------------------------------------------
  | The smallest distance between any two atoms is         0.85456583 AA.
  | The first atom of this pair is atom number                     13 .
  | The second atom of this pair is atom number                    14 .
  | Wigner-Seitz cell of the first atom image           0     0     0 .
  | (The Wigner-Seitz cell of the second atom is 0 0 0  by definition.)

  Symmetry information by spglib:
  | Precision set to  0.1E-04
  | Number of Operations  : 1
  | Space group           : 1
  | International         : P1       f
  | Schoenflies           : C1^1
  Input structure read successfully.
  The structure contains       96 atoms,  and a total of        320.000 electrons.

  Input geometry:
  | Unit cell:
  |        9.79101000        0.00000000        0.00000000
  |        0.00000000        9.79101000        0.00000000
  |        0.00000000        0.00000000        9.79101000
  | Atomic structure:
  |       Atom                x [A]            y [A]            z [A]
  |    1: Species O             9.17528000       18.36090000       10.42590000
  |    2: Species H             9.94033000       18.43220000       10.90040000
  |    3: Species H             8.49645000       18.54540000       11.16920000
  |    4: Species O             7.80284000       27.87590000      -15.05420000
  |    5: Species H             8.69219000       27.67100000      -14.63480000
  |    6: Species H             7.66758000       26.91540000      -15.25200000
  |    7: Species O            14.15220000        5.80893000       -8.22661000
  |    8: Species H            15.10100000        6.14148000       -8.04661000
  |    9: Species H            14.15840000        5.29042000       -8.97335000
  |   10: Species O            12.21200000        9.33226000      -28.53320000
  |   11: Species H            12.73710000        9.99882000      -28.26390000
  |   12: Species H            12.46300000        8.88114000      -27.68040000
  |   13: Species O           -17.53540000       -2.78702000       32.15900000
  |   14: Species H           -16.81600000       -3.09473000       31.81540000
  |   15: Species H           -18.29400000       -3.23760000       31.87160000
  |   16: Species O             6.22606000        2.07635000        2.68876000
  |   17: Species H             6.22656000        2.30130000        1.73137000
  |   18: Species H             7.06665000        2.41178000        3.04310000
  |   19: Species O           -10.71610000        2.19696000        6.26404000
  |   20: Species H            -9.93775000        1.75546000        6.89888000
  |   21: Species H           -11.26990000        1.46131000        6.34594000
  |   22: Species O           -16.12000000      -10.73240000       -1.66720000
  |   23: Species H           -16.59360000      -10.62590000       -0.80330600
  |   24: Species H           -16.39910000       -9.83813000       -2.04722000
  |   25: Species O             7.47695000       -4.37088000       14.45500000
  |   26: Species H             7.24791000       -4.56317000       15.43270000
  |   27: Species H             8.12870000       -5.15161000       14.20890000
  |   28: Species O             5.78063000        0.28626200       -1.08850000
  |   29: Species H             5.09930000       -0.29214300       -1.36294000
  |   30: Species H             6.21438000        0.47476400       -1.87648000
  |   31: Species O            12.67780000       -9.03102000        3.99374000
  |   32: Species H            11.72200000       -9.36429000        3.81670000
  |   33: Species H            12.79930000       -8.57634000        3.18900000
  |   34: Species O             2.22657000       -3.63008000      -13.73510000
  |   35: Species H             2.41084000       -3.57633000      -14.74260000
  |   36: Species H             1.48765000       -3.00054000      -13.49150000
  |   37: Species O             7.16366000       16.26390000       11.10990000
  |   38: Species H             7.78395000       16.09570000       10.28030000
  |   39: Species H             6.91148000       17.17790000       11.23400000
  |   40: Species O           -10.97970000       -6.69075000       13.52480000
  |   41: Species H           -10.92640000       -7.22557000       14.39850000
  |   42: Species H           -10.21780000       -6.90913000       12.85360000
  |   43: Species O            -9.19429000      -10.37920000      -16.41110000
  |   44: Species H            -9.70126000      -10.62250000      -15.64920000
  |   45: Species H            -8.45094000      -11.16100000      -16.57820000
  |   46: Species O            10.61610000       41.13870000       21.56120000
  |   47: Species H            10.49410000       40.23310000       21.80440000
  |   48: Species H             9.99744000       41.20570000       20.82560000
  |   49: Species O           -13.13920000      -19.03440000        6.08870000
  |   50: Species H           -13.85710000      -18.41870000        5.51154000
  |   51: Species H           -13.11420000      -19.56940000        5.39927000
  |   52: Species O             0.03574500       10.20910000       37.73350000
  |   53: Species H            -0.27471900        9.76273000       38.64920000
  |   54: Species H             1.00381000       10.30860000       37.76600000
  |   55: Species O             4.62445000       22.18720000        5.49337000
  |   56: Species H             4.82339000       22.93130000        4.83296000
  |   57: Species H             4.21113000       21.64340000        4.86648000
  |   58: Species O            -7.61361000      -18.18530000       -3.12264000
  |   59: Species H            -7.73073000      -17.17910000       -3.10397000
  |   60: Species H            -7.45073000      -18.38820000       -4.10568000
  |   61: Species O            14.46940000        5.02083000      -15.35200000
  |   62: Species H            15.41110000        5.17804000      -15.10750000
  |   63: Species H            14.18120000        5.00943000      -16.32740000
  |   64: Species O            13.53410000       41.06230000       11.44440000
  |   65: Species H            14.26870000       41.30470000       11.94550000
  |   66: Species H            13.14390000       41.66940000       10.86420000
  |   67: Species O            -3.40779000       18.91630000        1.52642000
  |   68: Species H            -3.43983000       19.60130000        2.12945000
  |   69: Species H            -3.44562000       19.38650000        0.56177700
  |   70: Species O           -19.22110000       17.94290000        6.32783000
  |   71: Species H           -19.68610000       17.41840000        6.91082000
  |   72: Species H           -19.15260000       18.75990000        6.82113000
  |   73: Species O             6.89039000        5.09879000        7.35795000
  |   74: Species H             6.18861000        5.71880000        7.38106000
  |   75: Species H             7.56136000        5.70880000        7.83559000
  |   76: Species O             1.75420000       -5.80988000      -11.74850000
  |   77: Species H             2.63290000       -5.55726000      -11.42060000
  |   78: Species H             1.70043000       -5.36717000      -12.60160000
  |   79: Species O           -19.80170000        6.37550000       28.08280000
  |   80: Species H           -19.64040000        7.13590000       28.70540000
  |   81: Species H           -19.34530000        5.59149000       28.18520000
  |   82: Species O            -0.81692800       -6.97043000        9.26351000
  |   83: Species H            -0.97353300       -6.60945000        8.42013000
  |   84: Species H            -0.34679900       -7.70438000        8.86557000
  |   85: Species O             9.52400000       -4.40978000      -17.57770000
  |   86: Species H             9.45409000       -5.04979000      -16.82360000
  |   87: Species H             8.64857000       -4.13699000      -17.73360000
  |   88: Species O            16.03630000       -7.16746000        0.05438300
  |   89: Species H            16.90420000       -6.84890000       -0.40463600
  |   90: Species H            15.84740000       -7.97528000       -0.45737700
  |   91: Species O            33.64820000       -5.58701000       38.32140000
  |   92: Species H            33.87340000       -5.03158000       37.68680000
  |   93: Species H            34.41560000       -6.15529000       38.60670000
  |   94: Species O            24.25660000        6.51059000        7.33615000
  |   95: Species H            23.47790000        6.02554000        6.77672000
  |   96: Species H            23.98880000        7.37778000        7.42939000

  Lattice parameters for 3D lattice (in Angstroms) :     9.791010    9.791010    9.791010
  Angle(s) between unit vectors (in degrees)       :    90.000000   90.000000   90.000000


  Quantities derived from the lattice vectors (in Angstrom^-1):
  | Reciprocal lattice vector 1:  0.641730  0.000000  0.000000
  | Reciprocal lattice vector 2:  0.000000  0.641730  0.000000
  | Reciprocal lattice vector 3:  0.000000  0.000000  0.641730
  | Unit cell volume                               :   0.938604E+03  Angstrom^3

  Fractional coordinates:
                         L1                L2                L3
       atom_frac         0.93711272        1.87528151        1.06484418  O
       atom_frac         1.01525072        1.88256370        1.11330700  H
       atom_frac         0.86778075        1.89412533        1.14076076  H
       atom_frac         0.79693923        2.84709136       -1.53755333  O
       atom_frac         0.88777256        2.82616400       -1.49471811  H
       atom_frac         0.78312452        2.74899117       -1.55775553  H
       atom_frac         1.44542800        0.59329221       -0.84022077  O
       atom_frac         1.54233322        0.62725704       -0.82183656  H
       atom_frac         1.44606123        0.54033445       -0.91648870  H
       atom_frac         1.24726663        0.95314579       -2.91422438  O
       atom_frac         1.30089746        1.02122457       -2.88671955  H
       atom_frac         1.27290239        0.90707087       -2.82712407  H
       atom_frac        -1.79096947       -0.28465092        3.28454368  O
       atom_frac        -1.71749391       -0.31607873        3.24945026  H
       atom_frac        -1.86844871       -0.33067069        3.25519022  H
       atom_frac         0.63589558        0.21206699        0.27461518  O
       atom_frac         0.63594665        0.23504215        0.17683263  H
       atom_frac         0.72174883        0.24632597        0.31080552  H
       atom_frac        -1.09448361        0.22438543        0.63977465  O
       atom_frac        -1.01498722        0.17929305        0.70461372  H
       atom_frac        -1.15104570        0.14925018        0.64813947  H
       atom_frac        -1.64640829       -1.09614841       -0.17027865  O
       atom_frac        -1.69477919       -1.08527108       -0.08204526  H
       atom_frac        -1.67491403       -1.00481258       -0.20909181  H
       atom_frac         0.76365462       -0.44641768        1.47635433  O
       atom_frac         0.74026173       -0.46605713        1.57621124  H
       atom_frac         0.83022078       -0.52615716        1.45121903  H
       atom_frac         0.59040181        0.02923723       -0.11117341  O
       atom_frac         0.52081450       -0.02983788       -0.13920321  H
       atom_frac         0.63470265        0.04848979       -0.19165336  H
       atom_frac         1.29484088       -0.92237879        0.40789867  O
       atom_frac         1.19722072       -0.95641716        0.38981678  H
       atom_frac         1.30725022       -0.87594028        0.32570695  H
       atom_frac         0.22740963       -0.37075644       -1.40282770  O
       atom_frac         0.24622996       -0.36526671       -1.50572821  H
       atom_frac         0.15194040       -0.30645868       -1.37794773  H
       atom_frac         0.73165690        1.66110544        1.13470418  O
       atom_frac         0.79500991        1.64392642        1.04997339  H
       atom_frac         0.70590062        1.75445638        1.14737908  H
       atom_frac        -1.12140627       -0.68335647        1.38134881  O
       atom_frac        -1.11596250       -0.73798004        1.47058373  H
       atom_frac        -1.04358999       -0.70566060        1.31279613  H
       atom_frac        -0.93905430       -1.06007450       -1.67613964  O
       atom_frac        -0.99083343       -1.08492382       -1.59832336  H
       atom_frac        -0.86313261       -1.13992326       -1.69320632  H
       atom_frac         1.08427016        4.20168093        2.20214258  O
       atom_frac         1.07180975        4.10918792        2.22698169  H
       atom_frac         1.02108363        4.20852394        2.12701243  H
       atom_frac        -1.34196574       -1.94406910        0.62186639  O
       atom_frac        -1.41528811       -1.88118488        0.56291843  H
       atom_frac        -1.33941238       -1.99871106        0.55145179  H
       atom_frac         0.00365080        1.04270142        3.85389250  O
       atom_frac        -0.02805829        0.99711164        3.94741707  H
       atom_frac         0.10252364        1.05286380        3.85721187  H
       atom_frac         0.47231593        2.26607878        0.56106265  O
       atom_frac         0.49263457        2.34207707        0.49361200  H
       atom_frac         0.43010170        2.21053803        0.49703555  H
       atom_frac        -0.77761232       -1.85734669       -0.31892930  O
       atom_frac        -0.78957431       -1.75457895       -0.31702245  H
       atom_frac        -0.76097665       -1.87806978       -0.41933161  H
       atom_frac         1.47782507        0.51280001       -1.56796898  O
       atom_frac         1.57400513        0.52885657       -1.54299710  H
       atom_frac         1.44838990        0.51163567       -1.66759098  H
       atom_frac         1.38229866        4.19387785        1.16886818  O
       atom_frac         1.45732667        4.21863526        1.22004778  H
       atom_frac         1.34244577        4.25588371        1.10960973  H
       atom_frac        -0.34805296        1.93200701        0.15590016  O
       atom_frac        -0.35132535        2.00196915        0.21749033  H
       atom_frac        -0.35191671        1.98003066        0.05737682  H
       atom_frac        -1.96313761        1.83258928        0.64628981  O
       atom_frac        -2.01063016        1.77901973        0.70583321  H
       atom_frac        -1.95614140        1.91603318        0.69667276  H
       atom_frac         0.70374660        0.52076241        0.75150061  O
       atom_frac         0.63207064        0.58408683        0.75386094  H
       atom_frac         0.77227579        0.58306549        0.80028414  H
       atom_frac         0.17916436       -0.59338924       -1.19992728  O
       atom_frac         0.26890995       -0.56758802       -1.16643737  H
       atom_frac         0.17367258       -0.54817327       -1.28705823  H
       atom_frac        -2.02243691        0.65115856        2.86822299  O
       atom_frac        -2.00596261        0.72882164        2.93181194  H
       atom_frac        -1.97582272        0.57108409        2.87868157  H
       atom_frac        -0.08343654       -0.71192145        0.94612405  O
       atom_frac        -0.09943132       -0.67505293        0.85998584  H
       atom_frac        -0.03542015       -0.78688307        0.90548064  H
       atom_frac         0.97272906       -0.45039072       -1.79528976  O
       atom_frac         0.96558884       -0.51575782       -1.71827013  H
       atom_frac         0.88331745       -0.42252944       -1.81121253  H
       atom_frac         1.63785963       -0.73204501        0.00555438  O
       atom_frac         1.72650217       -0.69950904       -0.04132730  H
       atom_frac         1.61856642       -0.81455131       -0.04671398  H
       atom_frac         3.43664239       -0.57062652        3.91393738  O
       atom_frac         3.45964308       -0.51389795        3.84912282  H
       atom_frac         3.51502041       -0.62866752        3.94307635  H
       atom_frac         2.47743593        0.66495591        0.74927408  O
       atom_frac         2.39790379        0.61541557        0.69213697  H
       atom_frac         2.45008431        0.75352594        0.75879710  H

 
  Finished reading input file 'geometry.in'.
 

 
  Consistency checks for stacksize environment parameter are next.
 
  | Maximum stacksize for task 0: unlimited
  | Maximum stacksize for task 1: unlimited
  | Maximum stacksize for task 2: unlimited
  | Maximum stacksize for task 3: unlimited
  | Maximum stacksize for task 4: unlimited
  | Maximum stacksize for task 5: unlimited
  | Maximum stacksize for task 6: unlimited
  | Maximum stacksize for task 7: unlimited
  | Maximum stacksize for task 8: unlimited
  | Maximum stacksize for task 9: unlimited
  | Maximum stacksize for task 10: unlimited
  | Maximum stacksize for task 11: unlimited
  | Maximum stacksize for task 12: unlimited
  | Maximum stacksize for task 13: unlimited
  | Maximum stacksize for task 14: unlimited
  | Maximum stacksize for task 15: unlimited
  | Maximum stacksize for task 16: unlimited
  | Maximum stacksize for task 17: unlimited
  | Current stacksize for task 0: unlimited
  | Current stacksize for task 1: unlimited
  | Current stacksize for task 2: unlimited
  | Current stacksize for task 3: unlimited
  | Current stacksize for task 4: unlimited
  | Current stacksize for task 5: unlimited
  | Current stacksize for task 6: unlimited
  | Current stacksize for task 7: unlimited
  | Current stacksize for task 8: unlimited
  | Current stacksize for task 9: unlimited
  | Current stacksize for task 10: unlimited
  | Current stacksize for task 11: unlimited
  | Current stacksize for task 12: unlimited
  | Current stacksize for task 13: unlimited
  | Current stacksize for task 14: unlimited
  | Current stacksize for task 15: unlimited
  | Current stacksize for task 16: unlimited
  | Current stacksize for task 17: unlimited
 
  Consistency checks for the contents of control.in are next.
 
  MPI_IN_PLACE appears to work with this MPI implementation.
  | Keeping use_mpi_in_place .true. (see manual).
  Explicit treatment of the Coulomb operator is needed, but the RI method is not specified.
  Coulomb operator: Defaulting to 'LVL fast' resolution of identity - RI_type = LVL_fast
  Species H: Using default value for prodbas_acc =   1.000000E-06.
  Species H: Using default value max_l_prodbas =     6.
  Species O: Using default value for prodbas_acc =   1.000000E-06.
  Species O: Using default value max_l_prodbas =     6.
  Target number of points in a grid batch is not set.  Since GPU acceleration is enabled, defaulting to  200
  Method for grid partitioning is not set. Defaulting to parallel hash+maxmin partitioning.
  Batch size limit is not set. Defaulting to    200
  By default, will store active basis functions for each batch.
  If in need of memory, prune_basis_once .false. can be used to disable this option.
  communication_type for Hartree potential was not specified.
  Defaulting to calc_hartree .
  Defaulting to Pulay charge density mixer.
  Pulay mixer: Number of relevant iterations not set.
  Defaulting to    8 iterations.
  Pulay mixer: Number of initial linear mixing iterations not set.
  Defaulting to    0 iterations.
  Work space size for distributed Hartree potential not set.
  Defaulting to   0.200000E+03 MB.
  Mixing parameter for charge density mixing has not been set.
  Using default: charge_mix_param =     0.0500.
  The mixing parameter will be adjusted in iteration number     2 of the first full s.c.f. cycle only.
  Algorithm-dependent basis array size parameters:
  | n_max_pulay                         :        8
  Maximum number of self-consistency iterations not provided.
  Presetting  1000 iterations.
  Presetting      1001 iterations before the initial mixing cycle
  is restarted anyway using the sc_init_iter criterion / keyword.
  Presetting a factor      1.000 between actual scf density residual
  and density convergence criterion sc_accuracy_rho below which sc_init_iter
  takes no effect.
  Calculation of forces was not defined in control.in. No forces will be calculated.
  Geometry relaxation not requested: no relaxation will be performed.
  No accuracy limit for integral partition fn. given. Defaulting to  0.1000E-14.
  No occupation type (smearing scheme) given. Defaulting to Gaussian broadening, width =  0.1000E-01 eV.
  The width will be adjusted in iteration number     2 of the first full s.c.f. cycle only.
  S.C.F. convergence parameters will be adjusted in iteration number     2 of the first full s.c.f. cycle only.
  No accuracy for occupation numbers given. Defaulting to  0.1000E-12.
  No threshold value for occupation numbers given. Defaulting to  0.0000E+00.
  No accuracy for fermi level given. Defaulting to  0.1000E-19.
  Maximum # of iterations to find E_F not set. Defaulting to  200.
  Preferred method for the eigenvalue solver ('KS_method') not specified in 'control.in'.
  Calling BLACS routine to test compilation state
  Since ScaLAPACK support is enabled, defaulting to ELPA (via ELSI).
  Will not use alltoall communication since running on < 1024 CPUs.
  Threshold for basis singularities not set.
  Default threshold for basis singularities:  0.1000E-04
  partition_type (choice of integration weights) for integrals was not specified.
  | Using a version of the partition function of Stratmann and coworkers ('stratmann_sparse').
  | At each grid point, the set of atoms used to build the partition table is smoothly restricted to
  | only those atoms whose free-atom density would be non-zero at that grid point.
  Partitioning for Hartree potential was not defined. Using partition_type for integrals.
  | Adjusted default value of keyword multip_moments_threshold to:       0.10000000E-11
  | This value may affect high angular momentum components of the Hartree potential in periodic systems.
  Angular momentum expansion for Kerker preconditioner not set explicitly.
  | Using default value of   0
  No explicit requirement for turning off preconditioner.
  | By default, it will be turned off when the charge convergence reaches
  | sc_accuracy_rho  =   0.100000E-05
  No special mixing parameter while Kerker preconditioner is on.
  Using default: charge_mix_param =     0.0500.
  Threshold for auxiliary basis singularities not set.
  Default threshold for auxiliary basis singularities:  0.1000E-04
  No q(lm)/r^(l+1) cutoff set for long-range Hartree potential.
  | Using default value of  0.100000E-09 .
  | Verify using the multipole_threshold keyword.
  Defaulting to new monopole extrapolation.
  Density update method: automatic selection selected.
  Using density matrix based charge density update.
  Using density matrix based charge density update.
  Using packed matrix style: index .
  Defaulting to use time-reversal symmetry for k-point grid.
  Charge integration errors on the 3D integration grid will be compensated
  by explicit normalization and distribution of residual charges.
  Use the "compensate_multipole_errors" flag to change this behaviour.
  Default to 1D ("use_logsbt") integrations for auxiliary 2-center integrals.
  Default onset of logarithmic r-grid for SBT is -38.000000000000
  Default onset of logarithmic k-grid for SBT is -25.000000000000
  Default range of logarithmic r- and k-grid for SBT is  45.000000000000
  Default number of logarithmic r- and k-grid for SBT is   4096
  Default of use_2d_corr is to use the efficient 2D distribution where possible
 
  Consistency checks for the contents of geometry.in are next.
 

  Range separation radius for Ewald summation (hartree_convergence_parameter):      2.94872533 bohr.
  Number of empty states per atom not set in control.in .
  | Since you are using a method that relies on the unoccupied spectrum
  | (MP2,GW,RPA et al.), will use the full Hamiltonian size (see below)
  | as the max. possible number of states (occupied plus empty).

  Structure-dependent array size parameters: 
  | Maximum number of distinct radial functions  :        9
  | Maximum number of basis functions            :      768
  | Number of Kohn-Sham states (occupied + empty):      768
------------------------------------------------------------

  Performing system and environment tests:
  | Environment variable OMP_NUM_THREADS correctly set to 1.
  | Checking for ScaLAPACK...
  | Testing pdtran()...
  | All pdtran() tests passed.
CUDA runtime version: 11060
CUDA driver version: 11060
  Initializing GPUs...

  Number of GPUs available to MPI task         0 :   1
  Number of GPUs available to MPI task         1 :   1
  Number of GPUs available to MPI task         2 :   1
  Number of GPUs available to MPI task         3 :   1
  Number of GPUs available to MPI task         4 :   1
  Number of GPUs available to MPI task         5 :   1
  Number of GPUs available to MPI task         6 :   1
  Number of GPUs available to MPI task         7 :   1
  Number of GPUs available to MPI task         8 :   1
  Number of GPUs available to MPI task         9 :   1
  Number of GPUs available to MPI task        10 :   1
  Number of GPUs available to MPI task        11 :   1
  Number of GPUs available to MPI task        12 :   1
  Number of GPUs available to MPI task        13 :   1
  Number of GPUs available to MPI task        14 :   1
  Number of GPUs available to MPI task        15 :   1
  Number of GPUs available to MPI task        16 :   1
  Number of GPUs available to MPI task        17 :   1

  | MPI task         0, GPU activated = T, Device Name = NVIDIA A100-SXM4-80GB
  | MPI task         1, GPU activated = T, Device Name = NVIDIA A100-SXM4-80GB
  | MPI task         2, GPU activated = T, Device Name = NVIDIA A100-SXM4-80GB
  | MPI task         3, GPU activated = T, Device Name = NVIDIA A100-SXM4-80GB
  | MPI task         4, GPU activated = T, Device Name = NVIDIA A100-SXM4-80GB
  | MPI task         5, GPU activated = T, Device Name = NVIDIA A100-SXM4-80GB
  | MPI task         6, GPU activated = T, Device Name = NVIDIA A100-SXM4-80GB
  | MPI task         7, GPU activated = T, Device Name = NVIDIA A100-SXM4-80GB
  | MPI task         8, GPU activated = T, Device Name = NVIDIA A100-SXM4-80GB
  | MPI task         9, GPU activated = T, Device Name = NVIDIA A100-SXM4-80GB
  | MPI task        10, GPU activated = T, Device Name = NVIDIA A100-SXM4-80GB
  | MPI task        11, GPU activated = T, Device Name = NVIDIA A100-SXM4-80GB
  | MPI task        12, GPU activated = T, Device Name = NVIDIA A100-SXM4-80GB
  | MPI task        13, GPU activated = T, Device Name = NVIDIA A100-SXM4-80GB
  | MPI task        14, GPU activated = T, Device Name = NVIDIA A100-SXM4-80GB
  | MPI task        15, GPU activated = T, Device Name = NVIDIA A100-SXM4-80GB
  | MPI task        16, GPU activated = T, Device Name = NVIDIA A100-SXM4-80GB
  | MPI task        17, GPU activated = T, Device Name = NVIDIA A100-SXM4-80GB

------------------------------------------------------------
          Preparing all fixed parts of the calculation.
------------------------------------------------------------
  Determining machine precision:
    2.225073858507201E-308
  Setting up grids for atomic and cluster calculations.

  Creating wave function, potential, and density for free atoms.
  Runtime choices for atomic solver:
  | atomic solver xc        : PW-LDA
  | compute density gradient: 0
  | compute kinetic density : F

  Species: H

  List of occupied orbitals and eigenvalues:
    n    l              occ      energy [Ha]    energy [eV]
    1    0           1.0000        -0.232375        -6.3233


  Species: O

  List of occupied orbitals and eigenvalues:
    n    l              occ      energy [Ha]    energy [eV]
    1    0           2.0000       -18.757744      -510.4242
    2    0           2.0000        -0.870917       -23.6989
    2    1           4.0000        -0.337950        -9.1961


  Adding cutoff potential to free-atom effective potential.
  Creating fixed part of basis set: Ionic, confined, hydrogenic.
 
  H                    hydrogenic:
 
  List of hydrogenic basis orbitals: 
    n    l      effective z      eigenvalue [eV]  inner max. [A]     outer max. [A]     outer radius [A]   
    2    0         2.100000       -14.9728           0.193243           1.317208           4.696947
    2    1         3.500000       -41.6669           0.602369           0.602369           3.862494
 
 
  O                    hydrogenic:
 
  List of hydrogenic basis orbitals: 
    n    l      effective z      eigenvalue [eV]  inner max. [A]     outer max. [A]     outer radius [A]   
    2    1         1.800000       -10.9749           1.164242           1.164242           4.691341
    3    2         7.600000       -87.3180           0.624125           0.624125           3.413946
    3    0         6.400000       -61.9207           0.061167           1.081902           4.151495
 
  Creating atomic-like basis functions for current effective potential.

  Species H                   :

  List of atomic basis orbitals and eigenvalues:
    n    l      energy [Ha]    energy [eV]    outer radius [A]
    1    0        -0.232375        -6.3233       4.696947


  Species O                   :

  List of atomic basis orbitals and eigenvalues:
    n    l      energy [Ha]    energy [eV]    outer radius [A]
    1    0       -18.757744      -510.4242       1.830144
    2    0        -0.870917       -23.6989       4.578029
    2    1        -0.337950        -9.1961       4.634338

  Assembling full basis from fixed parts.
  | Species H :   atomic orbital   1 s accepted.
  | Species H :    hydro orbital   2 s accepted.
  | Species H :    hydro orbital   2 p accepted.
  | Species O :   atomic orbital   1 s accepted.
  | Species O :    hydro orbital   3 s accepted.
  | Species O :   atomic orbital   2 s accepted.
  | Species O :   atomic orbital   2 p accepted.
  | Species O :    hydro orbital   2 p accepted.
  | Species O :    hydro orbital   3 d accepted.
 
  Basis size parameters after reduction:
  | Total number of radial functions:        9
  | Total number of basis functions :      768
 
  Per-task memory consumption for arrays in subroutine allocate_ext:
  |           2.268304MB.
  Testing on-site integration grid accuracy.
  |  Species  Function  <phi|h_atom|phi> (log., in eV)  <phi|h_atom|phi> (rad., in eV)
           1        1                 -6.3245358373                 -6.3232436907
           1        2                 14.1326137532                 14.1384481100
           1        3                 25.3627025200                 25.3628451197
           2        4               -510.4241781764               -510.4240769407
           2        5                 14.9072942213                 14.9072945271
           2        6                -21.2004736474                -21.2005650551
           2        7                 -9.1962086505                 -9.1963509834
           2        8                  8.1896755006                  8.1702200081
           2        9                 45.7920584937                 45.7920228520

  Preparing densities etc. for the partition functions (integrals / Hartree potential).

  Preparations completed.
  max(cpu_time)          :      0.076 s.
  Wall clock time (cpu1) :      0.072 s.
------------------------------------------------------------

  Initializing index lists of integration centers etc. from given atomic structure:
  Mapping all atomic coordinates to central unit cell.

  Initializing the k-points
  Using symmetry for reducing the k-points
  | k-points reduced from:        1 to        1
  | Number of k-points                             :         1
  | Consuming          0 KiB for k_phase_exx.
  The eigenvectors in the calculations are REAL.
  | Number of basis functions in the Hamiltonian integrals :      4470
  | Number of basis functions in a single unit cell        :       768
  | Number of centers in hartree potential         :      2647
  | Number of centers in hartree multipole         :      2017
  | Number of centers in electron density summation:      1553
  | Number of centers in basis integrals           :      1670
  | Number of centers in integrals                 :       694
  | Number of centers in hamiltonian               :      1553
  | Consuming          0 KiB for k_phase.
  | Number of super-cells (origin) [n_cells]                     :         125
  | Number of super-cells (after PM_index) [n_cells]             :          28
  | Number of super-cells in hamiltonian [n_cells_in_hamiltonian]:          28
  | Size of matrix packed + index [n_hamiltonian_matrix_size] :      807488
  | Size of matrix packed + index (no_symmetry):     1614207

------------------------------------------------------------
          Begin self-consistency loop: Initialization.

          Date     :  20230221, Time     :  134042.623
------------------------------------------------------------
  | Estimated reciprocal-space cutoff momentum G_max:         3.20770901 bohr^-1 .
  | Reciprocal lattice points for long-range Hartree potential:    3574
  Using simple linear distribution as default method for k-point parallelism.
  * Using 18 tasks for Scalapack Eigenvalue solver.
  Detailed listing of tasks and assigned k-points:
   Task     0 k-point     1 on adag037
   Task     1 k-point     1 on adag037
   Task     2 k-point     1 on adag037
   Task     3 k-point     1 on adag037
   Task     4 k-point     1 on adag037
   Task     5 k-point     1 on adag037
   Task     6 k-point     1 on adag037
   Task     7 k-point     1 on adag037
   Task     8 k-point     1 on adag037
   Task     9 k-point     1 on adag037
   Task    10 k-point     1 on adag037
   Task    11 k-point     1 on adag037
   Task    12 k-point     1 on adag037
   Task    13 k-point     1 on adag037
   Task    14 k-point     1 on adag037
   Task    15 k-point     1 on adag037
   Task    16 k-point     1 on adag037
   Task    17 k-point     1 on adag037
  K-point:     1 Tasks:    18 split into      6 X      3 BLACS grid
  Calculating block size based on n_basis =          768  max_nprow =            6  max_npcol =            3
  ScaLAPACK block size set to:           16
  Allocating        0.250 MB for ovlp
  Allocating        0.250 MB for ham
  Allocating        0.250 MB for eigenvec
  Required Scalapack workspace - INTEGER:            1  REAL:             1
  Partitioning the integration grid into batches with parallel hashing+maxmin method.
  | Number of batches:     3992
  | Maximal batch size:     200
  | Minimal batch size:      99
  | Average batch size:     127.647
  | Standard deviation of batch sizes:      24.372

  Integration load balanced across    18 MPI tasks.
  Work distribution over tasks is as follows:
  Task     0 has      28232 integration points.
  Task     1 has      28397 integration points.
  Task     2 has      28416 integration points.
  Task     3 has      28245 integration points.
  Task     4 has      28242 integration points.
  Task     5 has      28329 integration points.
  Task     6 has      28311 integration points.
  Task     7 has      28348 integration points.
  Task     8 has      28281 integration points.
  Task     9 has      28228 integration points.
  Task    10 has      28282 integration points.
  Task    11 has      28363 integration points.
  Task    12 has      28310 integration points.
  Task    13 has      28235 integration points.
  Task    14 has      28347 integration points.
  Task    15 has      28338 integration points.
  Task    16 has      28325 integration points.
  Task    17 has      28339 integration points.
  Initializing partition tables, free-atom densities, potentials, etc. across the integration grid (initialize_grid_storage).
  | initialize_grid_storage: Actual outermost partition radius vs. multipole_radius_free
  | (-- VB: in principle, multipole_radius_free should be larger, hence this output)
  | Species        1: Confinement radius =              4.999999999999999 AA, multipole_radius_free =              5.054417573612229 AA.
  | Species        1: outer_partition_radius set to              5.054417573612229 AA .
  | Species        2: Confinement radius =              4.999999999999999 AA, multipole_radius_free =              5.048384829883283 AA.
  | Species        2: outer_partition_radius set to              5.048384829883283 AA .
  | The sparse table of interatomic distances needs       5727.68 kbyte instead of     22311.20 kbyte of memory.
  | Net number of integration points:   509568
  | of which are non-zero points    :   405721
  | Numerical average free-atom electrostatic potential    :     -5.55219619 eV
  Renormalizing the initial density to the exact electron count on the 3D integration grid.
  | Initial density: Formal number of electrons (from input files) :     320.0000000000
  | Integrated number of electrons on 3D grid     :     319.9996958848
  | Charge integration error                      :      -0.0003041152
  | Normalization factor for density and gradient :       1.0000009504
  Renormalizing the free-atom superposition density to the exact electron count on the 3D integration grid.
  | Formal number of electrons (from input files) :     320.0000000000
  | Integrated number of electrons on 3D grid     :     319.9996958848
  | Charge integration error                      :      -0.0003041152
  | Normalization factor for density and gradient :       1.0000009504
  Obtaining max. number of non-zero basis functions in each batch (get_n_compute_maxes).
  | Maximal number of non-zero basis functions:      444 in task     0
  | Maximal number of non-zero basis functions:      436 in task     1
  | Maximal number of non-zero basis functions:      436 in task     2
  | Maximal number of non-zero basis functions:      425 in task     3
  | Maximal number of non-zero basis functions:      453 in task     4
  | Maximal number of non-zero basis functions:      432 in task     5
  | Maximal number of non-zero basis functions:      438 in task     6
  | Maximal number of non-zero basis functions:      430 in task     7
  | Maximal number of non-zero basis functions:      418 in task     8
  | Maximal number of non-zero basis functions:      431 in task     9
  | Maximal number of non-zero basis functions:      426 in task    10
  | Maximal number of non-zero basis functions:      439 in task    11
  | Maximal number of non-zero basis functions:      434 in task    12
  | Maximal number of non-zero basis functions:      453 in task    13
  | Maximal number of non-zero basis functions:      427 in task    14
  | Maximal number of non-zero basis functions:      426 in task    15
  | Maximal number of non-zero basis functions:      444 in task    16
  | Maximal number of non-zero basis functions:      420 in task    17
  Integrating Hamiltonian matrix: batch-based integration.
  GPU acceleration will be used when integrating the Hamiltonian matrix.
  Reporting GPU memory usage by myid 0.  Note that it is likely not the only MPI task binding to its GPU!
  Allocating        1.577 MB on GPU for hamiltonian_shell
  Allocating        0.710 MB on GPU for wave
  Allocating        0.002 MB on GPU for partition
  Allocating        0.710 MB on GPU for h_times_psi
  Time summed over all CPUs for integration: real work       13.700 s, elapsed       14.188 s
  Deallocating memory used on GPU for Hamiltonian integration.
  Integrating overlap matrix.
  Time summed over all CPUs for integration: real work       11.308 s, elapsed       11.450 s
  Deallocating overlap matrix.

  Updating Kohn-Sham eigenvalues and eigenvectors using ELSI and the ELPA eigensolver.
  Singularity check in k-point 1 (analysis for other k-points may follow below):
  Overlap matrix is not singular
  | Lowest and highest eigenvalues :  0.2044E-02,  0.7546E+01
  Finished singularity check of overlap matrix
  | Time :     0.168 s
  Starting ELPA eigensolver (GPU)
  Finished Cholesky decomposition
  | Time :     0.010 s
  Finished transformation to standard eigenproblem
  | Time :     0.035 s
  Finished solving standard eigenproblem
  | Time :     0.222 s
  Finished back-transformation of eigenvectors
  | Time :     0.020 s

  Obtaining occupation numbers and electronic chemical potential using ELSI.
  | Note that, for insulating systems, the printed 'chemical potential' value is not uniquely defined.
  | It can be anywhere in the energy gap, as long as it correctly separates occupied and unoccupied states.
  | In systems with a gap, the physically relevant chemical potential is the VBM or HOMO.

  | Chemical potential (Fermi level):    -5.91163575 eV
  Writing Kohn-Sham eigenvalues.

  State    Occupation    Eigenvalue [Ha]    Eigenvalue [eV]
      1       2.00000         -18.916389         -514.74113
      2       2.00000         -18.896567         -514.20174
      3       2.00000         -18.895165         -514.16360
      4       2.00000         -18.893287         -514.11251
      5       2.00000         -18.890645         -514.04060
      6       2.00000         -18.887625         -513.95842
      7       2.00000         -18.884110         -513.86278
      8       2.00000         -18.881442         -513.79019
      9       2.00000         -18.879858         -513.74707
     10       2.00000         -18.878798         -513.71824
     11       2.00000         -18.877814         -513.69145
     12       2.00000         -18.875997         -513.64201
     13       2.00000         -18.875522         -513.62909
     14       2.00000         -18.873783         -513.58177
     15       2.00000         -18.872968         -513.55958
     16       2.00000         -18.871516         -513.52009
     17       2.00000         -18.870713         -513.49823
     18       2.00000         -18.870410         -513.48997
     19       2.00000         -18.870250         -513.48564
     20       2.00000         -18.868699         -513.44343
     21       2.00000         -18.866040         -513.37107
     22       2.00000         -18.863696         -513.30730
     23       2.00000         -18.863645         -513.30590
     24       2.00000         -18.863056         -513.28987
     25       2.00000         -18.861028         -513.23468
     26       2.00000         -18.860855         -513.22999
     27       2.00000         -18.860241         -513.21328
     28       2.00000         -18.858727         -513.17208
     29       2.00000         -18.856162         -513.10229
     30       2.00000         -18.854830         -513.06603
     31       2.00000         -18.854279         -513.05103
     32       2.00000         -18.850288         -512.94243
     33       2.00000          -1.166255          -31.73541
     34       2.00000          -1.145544          -31.17183
     35       2.00000          -1.143717          -31.12212
     36       2.00000          -1.136865          -30.93566
     37       2.00000          -1.135988          -30.91182
     38       2.00000          -1.134771          -30.87869
     39       2.00000          -1.131003          -30.77617
     40       2.00000          -1.122292          -30.53911
     41       2.00000          -1.120037          -30.47775
     42       2.00000          -1.116830          -30.39049
     43       2.00000          -1.111885          -30.25592
     44       2.00000          -1.111485          -30.24504
     45       2.00000          -1.110220          -30.21062
     46       2.00000          -1.108738          -30.17031
     47       2.00000          -1.106143          -30.09969
     48       2.00000          -1.105072          -30.07054
     49       2.00000          -1.103082          -30.01638
     50       2.00000          -1.101811          -29.98179
     51       2.00000          -1.096262          -29.83081
     52       2.00000          -1.095329          -29.80541
     53       2.00000          -1.094553          -29.78431
     54       2.00000          -1.090362          -29.67027
     55       2.00000          -1.087609          -29.59535
     56       2.00000          -1.086530          -29.56598
     57       2.00000          -1.079890          -29.38529
     58       2.00000          -1.079381          -29.37146
     59       2.00000          -1.077016          -29.30709
     60       2.00000          -1.076237          -29.28589
     61       2.00000          -1.070023          -29.11680
     62       2.00000          -1.069759          -29.10963
     63       2.00000          -1.068041          -29.06287
     64       2.00000          -1.057585          -28.77835
     65       2.00000          -0.726340          -19.76473
     66       2.00000          -0.711709          -19.36658
     67       2.00000          -0.693381          -18.86785
     68       2.00000          -0.683740          -18.60552
     69       2.00000          -0.681810          -18.55301
     70       2.00000          -0.671212          -18.26460
     71       2.00000          -0.667941          -18.17560
     72       2.00000          -0.662464          -18.02655
     73       2.00000          -0.656341          -17.85995
     74       2.00000          -0.653426          -17.78063
     75       2.00000          -0.650551          -17.70240
     76       2.00000          -0.649760          -17.68088
     77       2.00000          -0.647702          -17.62486
     78       2.00000          -0.646636          -17.59585
     79       2.00000          -0.643657          -17.51479
     80       2.00000          -0.641994          -17.46955
     81       2.00000          -0.638765          -17.38168
     82       2.00000          -0.638020          -17.36141
     83       2.00000          -0.636083          -17.30869
     84       2.00000          -0.633833          -17.24747
     85       2.00000          -0.630772          -17.16418
     86       2.00000          -0.628242          -17.09533
     87       2.00000          -0.626732          -17.05424
     88       2.00000          -0.623758          -16.97332
     89       2.00000          -0.623464          -16.96532
     90       2.00000          -0.621649          -16.91594
     91       2.00000          -0.620200          -16.87649
     92       2.00000          -0.612955          -16.67936
     93       2.00000          -0.612058          -16.65494
     94       2.00000          -0.610165          -16.60344
     95       2.00000          -0.603377          -16.41872
     96       2.00000          -0.600968          -16.35318
     97       2.00000          -0.573599          -15.60842
     98       2.00000          -0.571654          -15.55551
     99       2.00000          -0.568479          -15.46911
    100       2.00000          -0.560126          -15.24179
    101       2.00000          -0.556569          -15.14502
    102       2.00000          -0.554322          -15.08386
    103       2.00000          -0.551617          -15.01026
    104       2.00000          -0.549868          -14.96268
    105       2.00000          -0.546819          -14.87969
    106       2.00000          -0.545752          -14.85066
    107       2.00000          -0.543252          -14.78263
    108       2.00000          -0.541276          -14.72888
    109       2.00000          -0.539613          -14.68361
    110       2.00000          -0.537496          -14.62602
    111       2.00000          -0.536237          -14.59175
    112       2.00000          -0.534653          -14.54864
    113       2.00000          -0.531361          -14.45908
    114       2.00000          -0.529646          -14.41239
    115       2.00000          -0.527044          -14.34159
    116       2.00000          -0.523772          -14.25257
    117       2.00000          -0.522037          -14.20534
    118       2.00000          -0.520767          -14.17079
    119       2.00000          -0.516677          -14.05950
    120       2.00000          -0.513150          -13.96353
    121       2.00000          -0.510464          -13.89044
    122       2.00000          -0.509434          -13.86242
    123       2.00000          -0.507055          -13.79768
    124       2.00000          -0.505511          -13.75566
    125       2.00000          -0.500464          -13.61832
    126       2.00000          -0.498052          -13.55267
    127       2.00000          -0.496356          -13.50653
    128       2.00000          -0.490206          -13.33920
    129       2.00000          -0.487004          -13.25204
    130       2.00000          -0.479446          -13.04639
    131       2.00000          -0.476397          -12.96341
    132       2.00000          -0.475541          -12.94013
    133       2.00000          -0.473588          -12.88698
    134       2.00000          -0.470702          -12.80845
    135       2.00000          -0.468384          -12.74539
    136       2.00000          -0.468131          -12.73850
    137       2.00000          -0.463437          -12.61077
    138       2.00000          -0.461947          -12.57022
    139       2.00000          -0.460819          -12.53952
    140       2.00000          -0.459351          -12.49957
    141       2.00000          -0.458848          -12.48589
    142       2.00000          -0.458461          -12.47535
    143       2.00000          -0.457686          -12.45427
    144       2.00000          -0.457119          -12.43884
    145       2.00000          -0.456524          -12.42264
    146       2.00000          -0.455380          -12.39151
    147       2.00000          -0.454463          -12.36658
    148       2.00000          -0.453542          -12.34149
    149       2.00000          -0.453012          -12.32709
    150       2.00000          -0.452295          -12.30757
    151       2.00000          -0.451409          -12.28346
    152       2.00000          -0.450192          -12.25035
    153       2.00000          -0.449729          -12.23776
    154       2.00000          -0.448656          -12.20854
    155       2.00000          -0.447783          -12.18481
    156       2.00000          -0.446751          -12.15671
    157       2.00000          -0.442695          -12.04635
    158       2.00000          -0.442016          -12.02787
    159       2.00000          -0.438936          -11.94405
    160       2.00000          -0.438545          -11.93341
    161       0.00000          -0.173916           -4.73250
    162       0.00000          -0.116438           -3.16845
    163       0.00000          -0.109871           -2.98975
    164       0.00000          -0.109203           -2.97155
    165       0.00000          -0.105287           -2.86501
    166       0.00000          -0.102318           -2.78422
    167       0.00000          -0.095007           -2.58528
    168       0.00000          -0.069419           -1.88900
    169       0.00000          -0.066858           -1.81929
    170       0.00000          -0.064056           -1.74306
    171       0.00000          -0.061087           -1.66227
    172       0.00000          -0.057089           -1.55348
    173       0.00000          -0.054102           -1.47219
    174       0.00000          -0.050273           -1.36801
    175       0.00000          -0.041851           -1.13884
    176       0.00000          -0.039059           -1.06284
    177       0.00000          -0.032402           -0.88169
    178       0.00000          -0.029519           -0.80325
    179       0.00000          -0.020235           -0.55063
    180       0.00000          -0.017596           -0.47880
    181       0.00000          -0.007706           -0.20970
    182       0.00000          -0.004982           -0.13556
    183       0.00000          -0.001038           -0.02825
    184       0.00000           0.004580            0.12462
    185       0.00000           0.016094            0.43795
    186       0.00000           0.018704            0.50895
    187       0.00000           0.020069            0.54611
    188       0.00000           0.024354            0.66272
    189       0.00000           0.027305            0.74300
    190       0.00000           0.033238            0.90446
    191       0.00000           0.034747            0.94550
    192       0.00000           0.043694            1.18898
    193       0.00000           0.045695            1.24343
    194       0.00000           0.048577            1.32184
    195       0.00000           0.051021            1.38836
    196       0.00000           0.053442            1.45422
    197       0.00000           0.059401            1.61639
    198       0.00000           0.063734            1.73429
    199       0.00000           0.065375            1.77894
    200       0.00000           0.067685            1.84182
    201       0.00000           0.071239            1.93852
    202       0.00000           0.073105            1.98929
    203       0.00000           0.075816            2.06305
    204       0.00000           0.078636            2.13979
    205       0.00000           0.080697            2.19587
    206       0.00000           0.082603            2.24774
    207       0.00000           0.085077            2.31507
    208       0.00000           0.085630            2.33011
    209       0.00000           0.087684            2.38599
    210       0.00000           0.088180            2.39951
    211       0.00000           0.093494            2.54410
    212       0.00000           0.096157            2.61658
    213       0.00000           0.096987            2.63915
    214       0.00000           0.101886            2.77246
    215       0.00000           0.104683            2.84856
    216       0.00000           0.106733            2.90435
    217       0.00000           0.111765            3.04128
    218       0.00000           0.115756            3.14987
    219       0.00000           0.118251            3.21778
    220       0.00000           0.121124            3.29596
    221       0.00000           0.123169            3.35159
    222       0.00000           0.126597            3.44489
    223       0.00000           0.131092            3.56719
    224       0.00000           0.133848            3.64220
    225       0.00000           0.138860            3.77857
    226       0.00000           0.148548            4.04220
    227       0.00000           0.152932            4.16150
    228       0.00000           0.154823            4.21295
    229       0.00000           0.162055            4.40975
    230       0.00000           0.170678            4.64437
    231       0.00000           0.178067            4.84544
    232       0.00000           0.180065            4.89983
    233       0.00000           0.191923            5.22249
    234       0.00000           0.194821            5.30134
    235       0.00000           0.205188            5.58346
    236       0.00000           0.207484            5.64593
    237       0.00000           0.210036            5.71537
    238       0.00000           0.218180            5.93699
    239       0.00000           0.222507            6.05472
    240       0.00000           0.226776            6.17090
    241       0.00000           0.231845            6.30883
    242       0.00000           0.237601            6.46545
    243       0.00000           0.243289            6.62023
    244       0.00000           0.246598            6.71026
    245       0.00000           0.251193            6.83532
    246       0.00000           0.262274            7.13683
    247       0.00000           0.264151            7.18791
    248       0.00000           0.271856            7.39756
    249       0.00000           0.276680            7.52885
    250       0.00000           0.282940            7.69919
    251       0.00000           0.290122            7.89462
    252       0.00000           0.295515            8.04136
    253       0.00000           0.301833            8.21330
    254       0.00000           0.303729            8.26489
    255       0.00000           0.310994            8.46257
    256       0.00000           0.321345            8.74425
    257       0.00000           0.331641            9.02441
    258       0.00000           0.338038            9.19848
    259       0.00000           0.343582            9.34933
[...]
  |    H      0     4.527807 A      4.527807 A        1.268855E-16 a.u.
  |    H      0     4.527807 A      4.583499 A       -4.900954E-17 a.u.
  |    H      0     4.527807 A      4.583499 A        4.713786E-16 a.u.
  |    H      2     3.678162 A  2.180220E+05 A            0.556529 a.u.
  |    H      1     3.958095 A  1.721251E+08 A            0.841931 a.u.
  |    H      0     4.527807 A  3.866455E+16 A            0.581436 a.u.
  |    O      0     2.043000 A      2.043000 A       -1.436841E-16 a.u.
  |    O      3     3.498446 A      3.498446 A        3.043453E-17 a.u.
  |    O      3     3.498446 A      3.498446 A        1.541443E-16 a.u.
  |    O      0     3.905335 A      3.905335 A        2.173090E-16 a.u.
  |    O      0     3.905335 A      3.905335 A        7.213445E-17 a.u.
  |    O      0     4.101052 A      4.101052 A        2.361718E-16 a.u.
  |    O      1     4.101052 A      4.101052 A        3.235185E-17 a.u.
  |    O      0     4.359549 A      4.359549 A       -5.329475E-17 a.u.
  |    O      1     4.413171 A      4.413171 A        3.261883E-17 a.u.
  |    O      1     4.522403 A      4.522403 A        6.417997E-16 a.u.
  |    O      1     4.522403 A      4.522403 A        4.224783E-16 a.u.
  |    O      2     4.522403 A      4.522403 A       -4.387647E-16 a.u.
  |    O      0     4.522403 A      4.578029 A        2.602039E-16 a.u.
  |    O      0     4.578029 A      4.578029 A        1.226235E-16 a.u.
  |    O      1     4.578029 A      4.578029 A       -6.107316E-16 a.u.
  |    O      1     4.578029 A      4.578029 A       -2.224438E-16 a.u.
  |    O      2     4.578029 A      4.578029 A       -7.020279E-16 a.u.
  |    O      2     4.522403 A      4.578029 A        1.323470E-15 a.u.
  |    O      2     4.578029 A      4.578029 A        7.923696E-16 a.u.
  |    O      2     4.522403 A      4.578029 A       -9.951815E-16 a.u.
  |    O      0     4.578029 A      4.634338 A       -8.813582E-18 a.u.
  |    O      1     4.578029 A      4.634338 A       -3.325386E-17 a.u.
  |    O      1     4.634338 A      4.634338 A        9.588032E-16 a.u.
  |    O      2     4.578029 A      4.634338 A        1.064715E-17 a.u.
  |    O      2     4.578029 A      4.634338 A       -3.770343E-15 a.u.
  |    O      4     3.251020 A  1.511584E+03 A            1.513372 a.u.
  |    O      3     3.541477 A  1.434166E+04 A            4.293220 a.u.
  |    O      2     4.634338 A  5.584435E+05 A            9.352428 a.u.
  |    O      1     4.634338 A  2.821283E+08 A            2.261940 a.u.
  |    O      0     4.578029 A  4.264100E+16 A            0.641234 a.u.

  | Shrink_full_auxil_basis : there are       38  radial auxiliary wave functions
                            accepted and       5 rejected.
  | Shrink_full_auxil_basis : there are totally                4544 partial auxiliary wave functions.
 
  | Maximal number of product basis functions per thread :   256   256
 
  | Minimal total memory requirement for three-center overlap :      10.450 Gbs
  | Number of local auxiliary basis functions on task:      0   256
  | Number of local auxiliary basis functions on task:      1   256
  | Number of local auxiliary basis functions on task:      2   256
  | Number of local auxiliary basis functions on task:      3   256
  | Number of local auxiliary basis functions on task:      4   256
  | Number of local auxiliary basis functions on task:      5   256
  | Number of local auxiliary basis functions on task:      6   256
  | Number of local auxiliary basis functions on task:      7   256
  | Number of local auxiliary basis functions on task:      8   256
  | Number of local auxiliary basis functions on task:      9   256
  | Number of local auxiliary basis functions on task:     10   256
  | Number of local auxiliary basis functions on task:     11   256
  | Number of local auxiliary basis functions on task:     12   256
  | Number of local auxiliary basis functions on task:     13   256
  | Number of local auxiliary basis functions on task:     14   240
  | Number of local auxiliary basis functions on task:     15   240
  | Number of local auxiliary basis functions on task:     16   240
  | Number of local auxiliary basis functions on task:     17   240
  | 2D aux task distribution:      3 X      6
  | 2D block size (nb_aux_2d):     64
 
  Basis pair condensation :    295296  -->     231389
 
 --------------------------------------------
  Constructing auxiliary basis (full product) ...
 
  Product basis:
  | charge radius: extent of product basis function
  | field radius: extent of its Coulomb potential
  | Species   l  charge radius    field radius  multipol momen
  |    H      1     3.910002 A      3.910002 A       -2.487223E-16 a.u.
  |    H      1     3.958095 A      3.958095 A       -2.441841E-16 a.u.
  |    H      0     4.527807 A      4.527807 A        1.268855E-16 a.u.
  |    H      0     4.527807 A      4.583499 A       -4.900954E-17 a.u.
  |    H      0     4.527807 A      4.583499 A        4.713786E-16 a.u.
  |    H      2     3.678162 A  2.180220E+05 A            0.556529 a.u.
  |    H      1     3.958095 A  1.721251E+08 A            0.841931 a.u.
  |    H      0     4.527807 A  3.866455E+16 A            0.581436 a.u.
  |    O      0     2.043000 A      2.043000 A       -1.436841E-16 a.u.
  |    O      3     3.498446 A      3.498446 A        3.043453E-17 a.u.
  |    O      3     3.498446 A      3.498446 A        1.541443E-16 a.u.
  |    O      0     3.905335 A      3.905335 A        2.173090E-16 a.u.
  |    O      0     3.905335 A      3.905335 A        7.213445E-17 a.u.
  |    O      0     4.101052 A      4.101052 A        2.361718E-16 a.u.
  |    O      1     4.101052 A      4.101052 A        3.235185E-17 a.u.
  |    O      0     4.359549 A      4.359549 A       -5.329475E-17 a.u.
  |    O      1     4.413171 A      4.413171 A        3.261883E-17 a.u.
  |    O      1     4.522403 A      4.522403 A        6.417997E-16 a.u.
  |    O      1     4.522403 A      4.522403 A        4.224783E-16 a.u.
  |    O      2     4.522403 A      4.522403 A       -4.387647E-16 a.u.
  |    O      0     4.522403 A      4.578029 A        2.602039E-16 a.u.
  |    O      0     4.578029 A      4.578029 A        1.226235E-16 a.u.
  |    O      1     4.578029 A      4.578029 A       -6.107316E-16 a.u.
  |    O      1     4.578029 A      4.578029 A       -2.224438E-16 a.u.
  |    O      2     4.578029 A      4.578029 A       -7.020279E-16 a.u.
  |    O      2     4.522403 A      4.578029 A        1.323470E-15 a.u.
  |    O      2     4.578029 A      4.578029 A        7.923696E-16 a.u.
  |    O      2     4.522403 A      4.578029 A       -9.951815E-16 a.u.
  |    O      0     4.578029 A      4.634338 A       -8.813582E-18 a.u.
  |    O      1     4.578029 A      4.634338 A       -3.325386E-17 a.u.
  |    O      1     4.634338 A      4.634338 A        9.588032E-16 a.u.
  |    O      2     4.578029 A      4.634338 A        1.064715E-17 a.u.
  |    O      2     4.578029 A      4.634338 A       -3.770343E-15 a.u.
  |    O      4     3.251020 A  1.511584E+03 A            1.513372 a.u.
  |    O      3     3.541477 A  1.434166E+04 A            4.293220 a.u.
  |    O      2     4.634338 A  5.584435E+05 A            9.352428 a.u.
  |    O      1     4.634338 A  2.821283E+08 A            2.261940 a.u.
  |    O      0     4.578029 A  4.264100E+16 A            0.641234 a.u.

  | Shrink_full_auxil_basis : there are       38  radial auxiliary wave functions
                            accepted and       5 rejected.
  | Shrink_full_auxil_basis : there are totally                4544 partial auxiliary wave functions.
 
  | Maximal number of product basis functions per thread :   256   256
 
  | Minimal total memory requirement for three-center overlap :      10.450 Gbs
  | Number of local auxiliary basis functions on task:      0   256
  | Number of local auxiliary basis functions on task:      1   256
  | Number of local auxiliary basis functions on task:      2   256
  | Number of local auxiliary basis functions on task:      3   256
  | Number of local auxiliary basis functions on task:      4   256
  | Number of local auxiliary basis functions on task:      5   256
  | Number of local auxiliary basis functions on task:      6   256
  | Number of local auxiliary basis functions on task:      7   256
  | Number of local auxiliary basis functions on task:      8   256
  | Number of local auxiliary basis functions on task:      9   256
  | Number of local auxiliary basis functions on task:     10   256
  | Number of local auxiliary basis functions on task:     11   256
  | Number of local auxiliary basis functions on task:     12   256
  | Number of local auxiliary basis functions on task:     13   256
  | Number of local auxiliary basis functions on task:     14   240
  | Number of local auxiliary basis functions on task:     15   240
  | Number of local auxiliary basis functions on task:     16   240
  | Number of local auxiliary basis functions on task:     17   240
  | 2D aux task distribution:      3 X      6
  | 2D block size (nb_aux_2d):     64
 
  Basis pair condensation :    295296  -->     231389
dP_dE (Bohr^3) at every cycle:--->
 (355.090540379259,0.000000000000000E+000) (-10.8672142062775,0.000000000000000E+000) (-0.442121110801982,0.000000000000000E+000)
 (-10.8651381979675,0.000000000000000E+000) (342.773542894593,0.000000000000000E+000) (-9.81986017571399,0.000000000000000E+000)
 (-0.437774560727495,0.000000000000000E+000) (-9.80589478393087,0.000000000000000E+000) (360.172287096051,0.000000000000000E+000)
DFPT polarizability (Bohr^3)        xx        yy        zz        xy        xz        yz
  | Polarizability:--->                       355.090540379                  342.773542895                  360.172287096                  -10.867214206                   -0.442121111                   -9.819860176

DFPT for dielectric_constant:--->  # PARSE DFPT_dielectric_tensor
               1.704481967652921            -0.021560012380976            -0.000877146289918
              -0.021555893683762             1.680045657369054            -0.019482114086381
              -0.000868522950795            -0.019454407443811             1.714563900340669

                                               :  max(cpu_time)    wall_clock(cpu1)
  | Time for  dielectric calculation            :        0.000 s           0.000 s
===========================================================================

------------------------------------------------------------------------------
  Final output of selected total energy values:

  The following output summarizes some interesting total energy values
  at the end of a run (AFTER all relaxation, molecular dynamics, etc.).

  | Total energy of the DFT / Hartree-Fock s.c.f. calculation      :         -66112.820748586 eV
  | Final zero-broadening corrected energy (caution - metals only) :         -66112.820748586 eV
  | For reference only, the value of 1 Hartree used in FHI-aims is :             27.211384500 eV
  | For reference only, the overall average (free atom contribution
  | + realspace contribution) of the electrostatic potential after
  | s.c.f. convergence is                                          :             -5.133783611 eV

  Before relying on these values, please be sure to understand exactly which
  total energy value is referred to by a given number. Different objects may
  all carry the same name 'total energy'. Definitions:

  Total energy of the DFT / Hartree-Fock s.c.f. calculation:
  | Note that this energy does not include ANY quantities calculated after the
  | s.c.f. cycle, in particular not ANY RPA, MP2, etc. many-body perturbation terms.

  Final zero-broadening corrected energy:
  | For metallic systems only, a broadening of the occupation numbers at the Fermi
  | level can be extrapolated back to zero broadening by an electron-gas inspired
  | formula. For all systems that are not real metals, this value can be
  | meaningless and should be avoided.

------------------------------------------------------------------------------
  Methods described in the following list of references were used in this FHI-aims run.
  If you publish the results, please make sure to cite these reference if they apply.
  FHI-aims is an academic code, and for our developers (often, Ph.D. students
  and postdocs), scientific credit in the community is essential.
  Thank you for helping us!

  For any use of FHI-aims, please cite:

    Volker Blum, Ralf Gehrke, Felix Hanke, Paula Havu, Ville Havu,
    Xinguo Ren, Karsten Reuter, and Matthias Scheffler
    'Ab initio molecular simulations with numeric atom-centered orbitals'
    Computer Physics Communications 180, 2175-2196 (2009)
    http://doi.org/10.1016/j.cpc.2009.06.022


  For Hartree-Fock, hybrid functionals, or many-body perturbation theory used in your run, please cite:

    Xinguo Ren, Patrick Rinke, Volker Blum, Juergen Wieferink, Alex Tkatchenko,
    Andrea Sanfilippo, Karsten Reuter, and Matthias Scheffler,
    'Resolution-of-identity approach to Hartree-Fock, hybrid density functionals,
    RPA, MP2, and GW with numeric atom-centered orbital basis functions'
    New Journal of Physics 14, 053020 (2012).
    http://doi.org/10.1088/1367-2630/14/5/053020


  The provided symmetry information was generated with SPGlib:

    Atsushi Togo, Yusuke Seto, Dimitar Pashov
    SPGlib 1.7.3 obtained from http://spglib.sourceforge.net
    Copyright (C) 2008 Atsushi Togo


  The DFPT (perturbation by an electric field) part of the code was used.
  Here is the corresponding reference:

    Honghui Shang, Nathaniel Raimbault, Mariana Rossi,
    Christian Carbogno, Patrick Rinke and Matthias Scheffler,
    'All-Electron, Real-Space Perturbation Theory for Homogeneous
    Electric Fields: Theory, Implementation, and Application within dft'
    New Journal of Physics, 20(7):073040, 2018


  The ELSI infrastructure was used in your run to solve the Kohn-Sham electronic structure.
  Please check out http://elsi-interchange.org to learn more.
  If scalability is important for your project, please acknowledge ELSI by citing:

    V. W-z. Yu, F. Corsetti, A. Garcia, W. P. Huhn, M. Jacquelin, W. Jia,
    B. Lange, L. Lin, J. Lu, W. Mi, A. Seifitokaldani, A. Vazquez-Mayagoitia,
    C. Yang, H. Yang, and V. Blum
    'ELSI: A unified software interface for Kohn-Sham electronic structure solvers'
    Computer Physics Communications 222, 267-285 (2018).
    http://doi.org/10.1016/j.cpc.2017.09.007


  For the real-space grid partitioning and parallelization used in this calculation, please cite:

    Ville Havu, Volker Blum, Paula Havu, and Matthias Scheffler,
    'Efficient O(N) integration for all-electron electronic structure calculation'
    'using numerically tabulated basis functions'
    Journal of Computational Physics 228, 8367-8379 (2009).
    http://doi.org/10.1016/j.jcp.2009.08.008


  The high-level electronic structure method used in your calculation
  employed our efficient localized resolution of identity for the Coulomb operator.
  Some calculations, especially large-scale hybrid density functional theory,
  are only possible thanks to this development. For this feature, please cite:

    Arvid Ihrig, Juergen Wieferink, Igor Ying Zhang, Matti Ropo, Xinguo Ren,
    Patrick Rinke, Matthias Scheffler, and Volker Blum,
    'Accurate localized resolution of identity approach for linear-scaling
    hybrid density functionals and for many-body perturbation theory'
    New Journal of Physics 117, 093020 (2015).
    http://doi.org/10.1088/1367-2630/17/9/093020

  Of course, there are many other important community references, e.g., those cited in the
  above references. Our list is limited to references that describe implementations in the
  FHI-aims code. The reason is purely practical (length of this list) - please credit others as well.

------------------------------------------------------------
          Leaving FHI-aims.
          Date     :  20230221, Time     :  134914.601

          Computational steps:
          | Number of self-consistency cycles          :           45
          | Number of SCF (re)initializations          :            1
          | Number of coupled perturbed self-consistency cycles          :            0
          | Number of CPSCF (re)initializations          :            0

          Detailed time accounting                     :  max(cpu_time)    wall_clock(cpu1)
          | Total time                                  :      505.982 s         524.051 s
          | GPU initialization                          :        1.941 s          10.679 s
          | Preparation time                            :        0.076 s           0.072 s
          | Boundary condition initalization            :        1.267 s           1.267 s
          | Grid partitioning                           :        0.413 s           0.413 s
          | Preloading free-atom quantities on grid     :        2.503 s           2.504 s
          | Free-atom superposition energy              :        0.329 s           0.329 s
          | Total time for integrations                 :       12.983 s          13.538 s
          | Product basis setup: Total time             :        0.000 s           0.000 s
          | Product basis: | 2-center integrations     :(       0.000 s)  (       0.000 s)
          | Product basis: | LVL 3-center & coefficient:(       0.000 s)  (       0.000 s)
          | Total time for solution of K.-S. equations  :        3.224 s          10.434 s
          | Total time for density update               :        9.064 s          10.287 s
          | Total time for mixing & preconditioning     :        8.517 s           8.521 s
          | Total time for Hartree multipole update     :        0.108 s           0.108 s
          | Total time for Hartree multipole sum        :       36.540 s          36.553 s
          | Total time for total energy evaluation      :        0.008 s           0.009 s
          | Total time for DFPT                         :      428.060 s         428.230 s
          | Total time first_order_DM                   :        0.306 s           0.304 s
          | Total time first_order_density              :       90.785 s          90.809 s
          | Total time first_order_potential            :       52.971 s          52.986 s
          | Total time first_order_H                    :      180.851 s         180.923 s
          | Total time solving of Sternheimer equations :        0.191 s           0.192 s
          | Total time for dielectric constant          :        0.000 s           0.000 s
          | Total time momentum matrix                  :        0.000 s           0.000 s

          GPU acceleration has been used for charge density update.
          GPU acceleration has been used for real-space Hamiltonian integration.
          Due to GPU usage, wall_clock(cpu1) will give a more reliable estimate for timings.

          Partial memory accounting:
          | Residual value for overall tracked memory usage across tasks:     0.000000 MB (should be 0.000000 MB)
          | Peak values for overall tracked memory usage:
          |   Minimum:      120.884 MB (on task  0 after allocating DFPT_pulay_mixing::pulay_mix::alphas)
          |   Maximum:      120.884 MB (on task  0 after allocating DFPT_pulay_mixing::pulay_mix::alphas)
          |   Average:      120.884 MB
          | Largest tracked array allocation:
          |   Minimum:       43.125 MB (DFPT_pulay_mixing::initialize_pulay_mixing::X_in_diffs on task  0)
          |   Maximum:       43.125 MB (DFPT_pulay_mixing::initialize_pulay_mixing::X_in_diffs on task  0)
          |   Average:       43.125 MB
          Note:  These values currently only include a subset of arrays which are explicitly tracked.
          The "true" memory usage will be greater.

          Have a nice day.
------------------------------------------------------------
