------------------------------------------------------------
          Invoking FHI-aims ...

          When using FHI-aims, please cite the following reference:

            Volker Blum, Ralf Gehrke, Felix Hanke, Paula Havu,
            Ville Havu, Xinguo Ren, Karsten Reuter, and Matthias Scheffler,
            'Ab Initio Molecular Simulations with Numeric Atom-Centered Orbitals',
            Computer Physics Communications 180, 2175-2196 (2009)

          In addition, many other developments in FHI-aims are likely important for
          your particular application. A partial list of references is given at the end of
          this file. Thank you for giving credit to the authors of these developments.

          For any questions about FHI-aims, please visit our slack channel at

            https://fhi-aims.slack.com

          and our main development and support site at

            https://aims-git.rz-berlin.mpg.de .

          The latter site, in particular, has a wiki to collect information, as well
          as an issue tracker to log discussions, suggest improvements, and report issues
          or bugs. https://aims-git.rz-berlin.mpg.de is also the main development site
          of the project and all new and updated code versions can be obtained there.
          Please send an email to aims-coordinators@fhi-berlin.mpg.de and we will add
          you to these sites. They are for you and everyone is welcome there.

------------------------------------------------------------



  Date     :  20230221, Time     :  123436.998
  Time zero on CPU 1             :   0.443802000000000E+00  s.
  Internal wall clock time zero  :           446214876.998  s.

  FHI-aims created a unique identifier for this run for later identification
  aims_uuid : 3C91023F-316F-4AF7-A52C-7CBDF0AE0C3D

  Build configuration of the current instance of FHI-aims
  -------------------------------------------------------
  FHI-aims version      : 221103
  Commit number         : 42523251a
  CMake host system     : Linux-5.3.18-150300.59.68-default
  CMake version         : 3.17.0
  Fortran compiler      : /mpcdf/soft/SLE_15/packages/x86_64/intel_oneapi/2021.3/mpi/2021.3.0/bin/mpiifort (Intel) version 20.2.3.20210609
  Fortran compiler flags: -O3 -ip -fp-model precise
  C compiler            : /mpcdf/soft/SLE_15/packages/x86_64/intel/2021.3.0/bin/icc (Intel) version 20.2.3.20210609
  C compiler flags      : -O3 -ip -fp-model precise -std=gnu99
  CUDA compiler         : /mpcdf/soft/SLE_15/packages/x86_64/cuda/11.6.2/bin/nvcc
  CUDA compiler flags   : -O3 -DAdd_ -lcublas
  HIP compiler          :
  HIP compiler flags    :
  HIP GPU arch          :
  ELPA2 kernel          : AVX512
  Using MPI
  Using ScaLAPACK
  Using LibXC
  Using CUDA
  Using i-PI
  Using RLSY
  Linking against: /mpcdf/soft/SLE_15/packages/x86_64/cuda/11.6.2/lib64/libcublas.so
                   /mpcdf/soft/SLE_15/packages/x86_64/cuda/11.6.2/lib64/libcudart.so
                   /mpcdf/soft/SLE_15/packages/x86_64/intel_oneapi/2021.3/mkl/latest/lib/intel64/libmkl_intel_lp64.so
                   /mpcdf/soft/SLE_15/packages/x86_64/intel_oneapi/2021.3/mkl/latest/lib/intel64/libmkl_sequential.so
                   /mpcdf/soft/SLE_15/packages/x86_64/intel_oneapi/2021.3/mkl/latest/lib/intel64/libmkl_core.so
                   /mpcdf/soft/SLE_15/packages/x86_64/intel_oneapi/2021.3/mkl/latest/lib/intel64/libmkl_blacs_intelmpi_lp64.so
                   /mpcdf/soft/SLE_15/packages/x86_64/intel_oneapi/2021.3/mkl/latest/lib/intel64/libmkl_scalapack_lp64.so

  Using       18 parallel tasks.
  Task        0 on host adag039 reporting.
  Task        1 on host adag039 reporting.
  Task        2 on host adag039 reporting.
  Task        3 on host adag039 reporting.
  Task        4 on host adag039 reporting.
  Task        5 on host adag039 reporting.
  Task        6 on host adag039 reporting.
  Task        7 on host adag039 reporting.
  Task        8 on host adag039 reporting.
  Task        9 on host adag039 reporting.
  Task       10 on host adag039 reporting.
  Task       11 on host adag039 reporting.
  Task       12 on host adag039 reporting.
  Task       13 on host adag039 reporting.
  Task       14 on host adag039 reporting.
  Task       15 on host adag039 reporting.
  Task       16 on host adag039 reporting.
  Task       17 on host adag039 reporting.

  Obtaining array dimensions for all initial allocations:
  
  -----------------------------------------------------------------------
  Parsing control.in (first pass over file, find array dimensions only).
  The contents of control.in will be repeated verbatim below
  unless switched off by setting 'verbatim_writeout .false.' .
  in the first line of control.in .
  -----------------------------------------------------------------------
  
  #########################################################################################
  #
  #  Volker Blum, 2017 : Test run input file control.in for simple H2O
  #
  #########################################################################################
  #
  #  Physical model
  #
    xc                 pw-lda
    spin               none
    relativistic       none
    charge             0.
  
    use_gpu
  
    DFPT dielectric
    ri_density_restart write
    ri_rho1 write
  #  ri_density_restart read 0
  #  ri_rho1 read
    ri_full_output .true.
    sc_accuracy_rho    1d-6
  #  use_calculate_fock_matrix_old .false.
  #  wave_threshold 1e-8
    k_grid 1 1 1
  #  output cube eigenstate 160
  #  output cube eigenstate 161
    wave_threshold 1e-8
    default_prodbas_acc 1e-6
    default_max_l_prodbas 6
  #
  #  Relaxation
  #
  #  relax_geometry   bfgs 1.e-2
  #
  
  ################################################################################
  
  
  ################################################################################
  #
  #  FHI-aims code project
  #  VB, Fritz-Haber Institut, 2009
  #
  #  Suggested "light" defaults for H atom (to be pasted into control.in file)
  #  Be sure to double-check any results obtained with these settings for post-processing,
  #  e.g., with the "tight" defaults and larger basis sets.
  #
  ################################################################################
    species        H
  #     global species definitions
      nucleus             1
      mass                1.00794
  #
      l_hartree           4
  #
      cut_pot             3.5  1.5  1.0
      basis_dep_cutoff    1e-4
  #
      radial_base         24 5.0
      radial_multiplier   1
      angular_grids       specified
        division   0.2421   50
        division   0.3822  110
        division   0.4799  194
        division   0.5341  302
  #      division   0.5626  434
  #      division   0.5922  590
  #      division   0.6542  770
  #      division   0.6868 1202
  #      outer_grid  770
        outer_grid  302
  ################################################################################
  #
  #  Definition of "minimal" basis
  #
  ################################################################################
  #     valence basis states
      valence      1  s   1.
  #     ion occupancy
      ion_occ      1  s   0.5
  ################################################################################
  #
  #  Suggested additional basis functions. For production calculations,
  #  uncomment them one after another (the most important basis functions are
  #  listed first).
  #
  #  Basis constructed for dimers: 0.5 A, 0.7 A, 1.0 A, 1.5 A, 2.5 A
  #
  ################################################################################
  #  "First tier" - improvements: -1014.90 meV to -62.69 meV
       hydro 2 s 2.1
       hydro 2 p 3.5
  #  "Second tier" - improvements: -12.89 meV to -1.83 meV
  #     hydro 1 s 0.85
  #     hydro 2 p 3.7
  #     hydro 2 s 1.2
  #     hydro 3 d 7
  #  "Third tier" - improvements: -0.25 meV to -0.12 meV
  #     hydro 4 f 11.2
  #     hydro 3 p 4.8
  #     hydro 4 d 9
  #     hydro 3 s 3.2
  ################################################################################
  #
  #  FHI-aims code project
  #  VB, Fritz-Haber Institut, 2009
  #
  #  Suggested "light" defaults for O atom (to be pasted into control.in file)
  #  Be sure to double-check any results obtained with these settings for post-processing,
  #  e.g., with the "tight" defaults and larger basis sets.
  #
  ################################################################################
    species        O
  #     global species definitions
      nucleus             8
      mass                15.9994
  #
      l_hartree           4
  #
      cut_pot             3.5  1.5  1.0
      basis_dep_cutoff    1e-4
  #
      radial_base         36 5.0
      radial_multiplier   1
       angular_grids specified
        division   0.2659   50
        division   0.4451  110
        division   0.6052  194
        division   0.7543  302
  #      division   0.8014  434
  #      division   0.8507  590
  #      division   0.8762  770
  #      division   0.9023  974
  #      division   1.2339 1202
  #      outer_grid 974
        outer_grid 302
  ################################################################################
  #
  #  Definition of "minimal" basis
  #
  ################################################################################
  #     valence basis states
      valence      2  s   2.
      valence      2  p   4.
  #     ion occupancy
      ion_occ      2  s   1.
      ion_occ      2  p   3.
  ################################################################################
  #
  #  Suggested additional basis functions. For production calculations,
  #  uncomment them one after another (the most important basis functions are
  #  listed first).
  #
  #  Constructed for dimers: 1.0 A, 1.208 A, 1.5 A, 2.0 A, 3.0 A
  #
  ################################################################################
  #  "First tier" - improvements: -699.05 meV to -159.38 meV
       hydro 2 p 1.8
       hydro 3 d 7.6
       hydro 3 s 6.4
  #  "Second tier" - improvements: -49.91 meV to -5.39 meV
  #     hydro 4 f 11.6
  #     hydro 3 p 6.2
  #     hydro 3 d 5.6
  #     hydro 5 g 17.6
  #     hydro 1 s 0.75
  #  "Third tier" - improvements: -2.83 meV to -0.50 meV
  #     ionic 2 p auto
  #     hydro 4 f 10.8
  #     hydro 4 d 4.7
  #     hydro 2 s 6.8
  #  "Fourth tier" - improvements: -0.40 meV to -0.12 meV
  #     hydro 3 p 5
  #     hydro 3 s 3.3
  #     hydro 5 g 15.6
  #     hydro 4 f 17.6
  #     hydro 4 d 14
  # Further basis functions - -0.08 meV and below
  #     hydro 3 s 2.1
  #     hydro 4 d 11.6
  #     hydro 3 p 16
  #     hydro 2 s 17.2
  
  -----------------------------------------------------------------------
  Completed first pass over input file control.in .
  -----------------------------------------------------------------------
  
  
  -----------------------------------------------------------------------
  Parsing geometry.in (first pass over file, find array dimensions only).
  The contents of geometry.in will be repeated verbatim below
  unless switched off by setting 'verbatim_writeout .false.' .
  in the first line of geometry.in .
  -----------------------------------------------------------------------
  
  #=======================================================
  # FHI-aims file: /ada/ptmp/mpsd/alewis/bulk_water/qmdata/data/geoms/417.in
  # Created using the Atomic Simulation Environment (ASE)
  # Tue Feb 21 11:23:37 2023
  #=======================================================
  lattice_vector 9.6931600000000007 0.0000000000000000 0.0000000000000000
  lattice_vector 0.0000000000000000 9.6931600000000007 0.0000000000000000
  lattice_vector 0.0000000000000000 0.0000000000000000 9.6931600000000007
  atom -1.8443799999999999 27.7539000000000016 3.1865399999999999 O
  atom -0.9147850000000000 27.6840000000000011 2.8471600000000001 H
  atom -1.8087899999999999 28.2422000000000004 4.0408200000000001 H
  atom 6.4001200000000003 24.6418999999999997 -9.9333700000000000 O
  atom 6.8206199999999999 25.4332999999999991 -10.0298999999999996 H
  atom 6.0576800000000004 24.7105999999999995 -10.8529999999999998 H
  atom 17.5623000000000005 -17.9450000000000003 -3.3539699999999999 O
  atom 18.2117000000000004 -17.7012999999999998 -3.9071099999999999 H
  atom 17.4542000000000002 -17.3322000000000003 -2.5231499999999998 H
  atom 3.5657500000000000 8.8452900000000003 4.9935000000000000 O
  atom 3.9287700000000001 9.4807000000000006 5.7036899999999999 H
  atom 2.7528899999999998 8.8110700000000008 5.0870400000000000 H
  atom -30.0668000000000006 19.9638999999999989 19.9391999999999996 O
  atom -30.3411000000000008 19.0579000000000001 19.8445999999999998 H
  atom -30.4634000000000000 20.3192999999999984 20.6598000000000006 H
  atom 6.3714399999999998 -3.6467100000000001 3.7596699999999998 O
  atom 6.8200200000000004 -2.9980000000000002 3.3288899999999999 H
  atom 5.6475499999999998 -3.8258999999999999 3.1729900000000000 H
  atom -3.7829199999999998 5.3842299999999996 -2.9859800000000001 O
  atom -3.5599300000000000 5.5844100000000001 -3.9689399999999999 H
  atom -4.0004799999999996 4.4158200000000001 -2.9049700000000001 H
  atom 8.2283100000000005 13.5165000000000006 -6.3467399999999996 O
  atom 7.6142899999999996 14.1227999999999998 -6.2931100000000004 H
  atom 7.7429600000000001 12.6918000000000006 -6.5772000000000004 H
  atom 16.2509000000000015 11.3032000000000004 2.0774400000000002 O
  atom 15.6824999999999992 12.1113000000000000 1.7079000000000000 H
  atom 15.9003999999999994 10.4366000000000003 2.2130100000000001 H
  atom -17.9477000000000011 24.2267000000000010 6.6151200000000001 O
  atom -17.2264000000000017 23.8874999999999993 7.2195799999999997 H
  atom -17.4065000000000012 24.8887000000000000 6.3009899999999996 H
  atom -11.8366000000000007 7.6464100000000004 -9.7970600000000001 O
  atom -12.0366999999999997 7.9426600000000001 -10.7291000000000007 H
  atom -11.0367999999999995 7.2064599999999999 -9.7177199999999999 H
  atom 20.3636000000000017 -19.8338000000000001 4.8579200000000000 O
  atom 20.0797999999999988 -19.2913999999999994 5.6183899999999998 H
  atom 20.0011000000000010 -20.7911999999999999 5.1436500000000001 H
  atom -9.0104500000000005 -6.6533300000000004 1.6864699999999999 O
  atom -9.7197800000000001 -6.3448599999999997 2.2017099999999998 H
  atom -8.7170199999999998 -7.4547400000000001 1.7498300000000000 H
  atom 4.7164000000000001 -6.3708299999999998 0.9892420000000000 O
  atom 4.4058200000000003 -5.5581199999999997 1.6314800000000000 H
  atom 5.2670700000000004 -5.9341299999999997 0.4414800000000000 H
  atom -23.6621999999999986 -6.9178800000000003 15.7311999999999994 O
  atom -22.8405999999999985 -7.5374499999999998 15.4329000000000001 H
  atom -24.2325000000000017 -7.1018499999999998 14.8363999999999994 H
  atom 1.0704400000000001 -18.3227000000000011 -2.0116800000000001 O
  atom 1.5694300000000001 -17.6709999999999994 -1.6395000000000000 H
  atom 0.0935830000000000 -17.9371000000000009 -2.1922199999999998 H
  atom 12.3066999999999993 -2.2613300000000001 20.7271999999999998 O
  atom 12.9138000000000002 -1.6456999999999999 21.1859999999999999 H
  atom 11.4410000000000007 -2.4864099999999998 21.2535999999999987 H
  atom -8.2235200000000006 0.4458140000000000 11.8068000000000008 O
  atom -8.2802100000000003 0.1469180000000000 12.7883999999999993 H
  atom -9.1074199999999994 0.4130360000000000 11.3366000000000007 H
  atom -5.7175300000000000 24.6828000000000003 12.1369000000000007 O
  atom -6.0977300000000003 25.4139000000000017 12.0413999999999994 H
  atom -5.8691899999999997 24.5838000000000001 13.2089999999999996 H
  atom 0.6600720000000000 -16.7875000000000014 -4.7928100000000002 O
  atom -0.0977600000000000 -16.4758999999999993 -5.3521799999999997 H
  atom 0.9688130000000000 -16.0309999999999988 -4.1467999999999998 H
  atom -7.6379599999999996 22.9270999999999994 -0.8423010000000000 O
  atom -8.2909799999999994 22.8077000000000005 -0.0404840000000000 H
  atom -6.7938999999999998 23.1246000000000009 -0.3412520000000000 H
  atom 3.6025399999999999 -8.8792899999999992 10.1937999999999995 O
  atom 4.2341300000000004 -8.2731499999999993 10.8231999999999999 H
  atom 2.9155600000000002 -9.0899999999999999 10.8015000000000008 H
  atom -6.2819500000000001 44.8164999999999978 5.2027900000000002 O
  atom -6.7127499999999998 45.6191000000000031 5.1314799999999998 H
  atom -5.4694799999999999 44.8881999999999977 5.7794699999999999 H
  atom 42.2563999999999993 -36.6090999999999980 4.2361100000000000 O
  atom 41.2646999999999977 -36.3224000000000018 4.2526900000000003 H
  atom 42.2034000000000020 -37.4680999999999997 3.7596300000000000 H
  atom -4.5168999999999997 -10.8056999999999999 -7.2792500000000002 O
  atom -3.6888100000000001 -11.0513999999999992 -7.2508499999999998 H
  atom -4.7927299999999997 -11.0747999999999998 -6.3044500000000001 H
  atom 10.8417999999999992 8.1692000000000000 -0.8926230000000001 O
  atom 10.8721999999999994 9.0727600000000006 -1.2722000000000000 H
  atom 11.5786999999999995 8.1051099999999998 -0.3427110000000000 H
  atom 13.6862999999999992 9.9291400000000003 7.4804899999999996 O
  atom 13.6320999999999994 10.7837999999999994 7.1239400000000002 H
  atom 13.4908000000000001 10.0829000000000004 8.4802000000000000 H
  atom -1.6601399999999999 22.2569000000000017 -1.0826899999999999 O
  atom -1.5374600000000000 21.7570000000000014 -0.3128230000000000 H
  atom -2.2150200000000000 23.1545999999999985 -0.9078800000000000 H
  atom 19.2813000000000017 -13.6434999999999995 19.5548000000000002 O
  atom 19.4314999999999998 -14.4116999999999997 19.2006000000000014 H
  atom 19.9644000000000013 -12.9890000000000008 19.4572000000000003 H
  atom 6.8680099999999999 18.3183000000000007 35.9134000000000029 O
  atom 5.8886200000000004 18.3796999999999997 36.2543000000000006 H
  atom 7.3344699999999996 19.1868000000000016 35.7530000000000001 H
  atom 10.1502999999999997 -2.5958000000000001 -6.8741700000000003 O
  atom 10.1903000000000006 -2.8096199999999998 -5.8486900000000004 H
  atom 10.0686000000000000 -3.5158700000000001 -7.1147999999999998 H
  atom 19.4205000000000005 16.5720999999999989 5.6373400000000000 O
  atom 19.9973999999999990 15.9326000000000008 6.4142099999999997 H
  atom 18.6005000000000003 16.7746999999999993 6.1587399999999999 H
  
  -----------------------------------------------------------------------
  Completed first pass over input file geometry.in .
  -----------------------------------------------------------------------
  

  Basic array size parameters:
  | Number of species                 :        2
  | Number of atoms                   :       96
  | Number of lattice vectors         :        3
  | Max. basis fn. angular momentum   :        2
  | Max. atomic/ionic basis occupied n:        2
  | Max. number of basis fn. types    :        2
  | Max. radial fns per species/type  :        3
  | Max. logarithmic grid size        :     1301
  | Max. radial integration grid size :       36
  | Max. angular integration grid size:      302
  | Max. angular grid division number :        8
  | Radial grid for Hartree potential :     1301
  | Number of spin channels           :        1

------------------------------------------------------------
          Reading file control.in.
------------------------------------------------------------
  XC: Using Perdew-Wang parametrisation of Ceperley-Alder LDA.
  Spin treatment: No spin polarisation.
  Non-relativistic treatment of kinetic energy.
  Charge =   0.000000E+00: Neutral system requested explicitly.
  DFPT calculation will begin after the DFT/HF calculation.
  Convergence accuracy of self-consistent charge density:  0.1000E-05
  Found k-point grid:         1         1         1
  Threshold value for wave function integration:  0.1000E-07
 
  Reading configuration options for species H                   .
  | Found nuclear charge :   1.0000
  | Found atomic mass :    1.00794000000000      amu
  | Found l_max for Hartree potential  :   4
  | Found cutoff potl. onset [A], width [A], scale factor :    3.50000    1.50000    1.00000
  | Threshold for basis-dependent cutoff potential is   0.100000E-03
  | Found data for basic radial integration grid :    24 points, outermost radius =    5.000 A
  | Found multiplier for basic radial grid :   1
  | Found angular grid specification: user-specified.
  | Specified grid contains     5 separate shells.
  | Check grid settings after all constraints further below.
  | Found free-atom valence shell :  1 s   1.000
  | No ionic wave fns used. Skipping ion_occ.
  | Found hydrogenic basis function :  2 s   2.100
  | Found hydrogenic basis function :  2 p   3.500
  Species H                   : Missing cutoff potential type.
  Defaulting to exp(1/x)/(1-x)^2 type cutoff potential.
  Species H : No 'logarithmic' tag. Using default grid for free atom:
  | Default logarithmic grid data [bohr] : 0.1000E-03 0.1000E+03 0.1012E+01
  Species H : On-site basis accuracy parameter (for Gram-Schmidt orthonormalisation) not specified.
  Using default value basis_acc =  0.1000000E-03.
  Species H                   : Using default innermost maximum threshold i_radial=  2 for radial functions.
  Species H                   : Default cutoff onset for free atom density etc. : 0.35000000E+01 AA.
  Species H                   : Basic radial grid will be enhanced according to radial_multiplier =   1, to contain    24 grid points.
 
  Reading configuration options for species O                   .
  | Found nuclear charge :   8.0000
  | Found atomic mass :    15.9994000000000      amu
  | Found l_max for Hartree potential  :   4
  | Found cutoff potl. onset [A], width [A], scale factor :    3.50000    1.50000    1.00000
  | Threshold for basis-dependent cutoff potential is   0.100000E-03
  | Found data for basic radial integration grid :    36 points, outermost radius =    5.000 A
  | Found multiplier for basic radial grid :   1
  | Found angular grid specification: user-specified.
  | Specified grid contains     5 separate shells.
  | Check grid settings after all constraints further below.
  | Found free-atom valence shell :  2 s   2.000
  | Found free-atom valence shell :  2 p   4.000
  | No ionic wave fns used. Skipping ion_occ.
  | No ionic wave fns used. Skipping ion_occ.
  | Found hydrogenic basis function :  2 p   1.800
  | Found hydrogenic basis function :  3 d   7.600
  | Found hydrogenic basis function :  3 s   6.400
  Species O                   : Missing cutoff potential type.
  Defaulting to exp(1/x)/(1-x)^2 type cutoff potential.
  Species O : No 'logarithmic' tag. Using default grid for free atom:
  | Default logarithmic grid data [bohr] : 0.1000E-03 0.1000E+03 0.1012E+01
  Species O : On-site basis accuracy parameter (for Gram-Schmidt orthonormalisation) not specified.
  Using default value basis_acc =  0.1000000E-03.
  Species O                   : Using default innermost maximum threshold i_radial=  2 for radial functions.
  Species O                   : Default cutoff onset for free atom density etc. : 0.35000000E+01 AA.
  Species O                   : Basic radial grid will be enhanced according to radial_multiplier =   1, to contain    36 grid points.
 
  Finished reading input file 'control.in'.
 
------------------------------------------------------------


------------------------------------------------------------
          Reading geometry description geometry.in.
------------------------------------------------------------
  | The smallest distance between any two atoms is         0.81893963 AA.
  | The first atom of this pair is atom number                     10 .
  | The second atom of this pair is atom number                    12 .
  | Wigner-Seitz cell of the first atom image           0     0     0 .
  | (The Wigner-Seitz cell of the second atom is 0 0 0  by definition.)

  Symmetry information by spglib:
  | Precision set to  0.1E-04
  | Number of Operations  : 1
  | Space group           : 1
  | International         : P1
  | Schoenflies           : C1^1
  Input structure read successfully.
  The structure contains       96 atoms,  and a total of        320.000 electrons.

  Input geometry:
  | Unit cell:
  |        9.69316000        0.00000000        0.00000000
  |        0.00000000        9.69316000        0.00000000
  |        0.00000000        0.00000000        9.69316000
  | Atomic structure:
  |       Atom                x [A]            y [A]            z [A]
  |    1: Species O            -1.84438000       27.75390000        3.18654000
  |    2: Species H            -0.91478500       27.68400000        2.84716000
  |    3: Species H            -1.80879000       28.24220000        4.04082000
  |    4: Species O             6.40012000       24.64190000       -9.93337000
  |    5: Species H             6.82062000       25.43330000      -10.02990000
  |    6: Species H             6.05768000       24.71060000      -10.85300000
  |    7: Species O            17.56230000      -17.94500000       -3.35397000
  |    8: Species H            18.21170000      -17.70130000       -3.90711000
  |    9: Species H            17.45420000      -17.33220000       -2.52315000
  |   10: Species O             3.56575000        8.84529000        4.99350000
  |   11: Species H             3.92877000        9.48070000        5.70369000
  |   12: Species H             2.75289000        8.81107000        5.08704000
  |   13: Species O           -30.06680000       19.96390000       19.93920000
  |   14: Species H           -30.34110000       19.05790000       19.84460000
  |   15: Species H           -30.46340000       20.31930000       20.65980000
  |   16: Species O             6.37144000       -3.64671000        3.75967000
  |   17: Species H             6.82002000       -2.99800000        3.32889000
  |   18: Species H             5.64755000       -3.82590000        3.17299000
  |   19: Species O            -3.78292000        5.38423000       -2.98598000
  |   20: Species H            -3.55993000        5.58441000       -3.96894000
  |   21: Species H            -4.00048000        4.41582000       -2.90497000
  |   22: Species O             8.22831000       13.51650000       -6.34674000
  |   23: Species H             7.61429000       14.12280000       -6.29311000
  |   24: Species H             7.74296000       12.69180000       -6.57720000
  |   25: Species O            16.25090000       11.30320000        2.07744000
  |   26: Species H            15.68250000       12.11130000        1.70790000
  |   27: Species H            15.90040000       10.43660000        2.21301000
  |   28: Species O           -17.94770000       24.22670000        6.61512000
  |   29: Species H           -17.22640000       23.88750000        7.21958000
  |   30: Species H           -17.40650000       24.88870000        6.30099000
  |   31: Species O           -11.83660000        7.64641000       -9.79706000
  |   32: Species H           -12.03670000        7.94266000      -10.72910000
  |   33: Species H           -11.03680000        7.20646000       -9.71772000
  |   34: Species O            20.36360000      -19.83380000        4.85792000
  |   35: Species H            20.07980000      -19.29140000        5.61839000
  |   36: Species H            20.00110000      -20.79120000        5.14365000
  |   37: Species O            -9.01045000       -6.65333000        1.68647000
  |   38: Species H            -9.71978000       -6.34486000        2.20171000
  |   39: Species H            -8.71702000       -7.45474000        1.74983000
  |   40: Species O             4.71640000       -6.37083000        0.98924200
  |   41: Species H             4.40582000       -5.55812000        1.63148000
  |   42: Species H             5.26707000       -5.93413000        0.44148000
  |   43: Species O           -23.66220000       -6.91788000       15.73120000
  |   44: Species H           -22.84060000       -7.53745000       15.43290000
  |   45: Species H           -24.23250000       -7.10185000       14.83640000
  |   46: Species O             1.07044000      -18.32270000       -2.01168000
  |   47: Species H             1.56943000      -17.67100000       -1.63950000
  |   48: Species H             0.09358300      -17.93710000       -2.19222000
  |   49: Species O            12.30670000       -2.26133000       20.72720000
  |   50: Species H            12.91380000       -1.64570000       21.18600000
  |   51: Species H            11.44100000       -2.48641000       21.25360000
  |   52: Species O            -8.22352000        0.44581400       11.80680000
  |   53: Species H            -8.28021000        0.14691800       12.78840000
  |   54: Species H            -9.10742000        0.41303600       11.33660000
  |   55: Species O            -5.71753000       24.68280000       12.13690000
  |   56: Species H            -6.09773000       25.41390000       12.04140000
  |   57: Species H            -5.86919000       24.58380000       13.20900000
  |   58: Species O             0.66007200      -16.78750000       -4.79281000
  |   59: Species H            -0.09776000      -16.47590000       -5.35218000
  |   60: Species H             0.96881300      -16.03100000       -4.14680000
  |   61: Species O            -7.63796000       22.92710000       -0.84230100
  |   62: Species H            -8.29098000       22.80770000       -0.04048400
  |   63: Species H            -6.79390000       23.12460000       -0.34125200
  |   64: Species O             3.60254000       -8.87929000       10.19380000
  |   65: Species H             4.23413000       -8.27315000       10.82320000
  |   66: Species H             2.91556000       -9.09000000       10.80150000
  |   67: Species O            -6.28195000       44.81650000        5.20279000
  |   68: Species H            -6.71275000       45.61910000        5.13148000
  |   69: Species H            -5.46948000       44.88820000        5.77947000
  |   70: Species O            42.25640000      -36.60910000        4.23611000
  |   71: Species H            41.26470000      -36.32240000        4.25269000
  |   72: Species H            42.20340000      -37.46810000        3.75963000
  |   73: Species O            -4.51690000      -10.80570000       -7.27925000
  |   74: Species H            -3.68881000      -11.05140000       -7.25085000
  |   75: Species H            -4.79273000      -11.07480000       -6.30445000
  |   76: Species O            10.84180000        8.16920000       -0.89262300
  |   77: Species H            10.87220000        9.07276000       -1.27220000
  |   78: Species H            11.57870000        8.10511000       -0.34271100
  |   79: Species O            13.68630000        9.92914000        7.48049000
  |   80: Species H            13.63210000       10.78380000        7.12394000
  |   81: Species H            13.49080000       10.08290000        8.48020000
  |   82: Species O            -1.66014000       22.25690000       -1.08269000
  |   83: Species H            -1.53746000       21.75700000       -0.31282300
  |   84: Species H            -2.21502000       23.15460000       -0.90788000
  |   85: Species O            19.28130000      -13.64350000       19.55480000
  |   86: Species H            19.43150000      -14.41170000       19.20060000
  |   87: Species H            19.96440000      -12.98900000       19.45720000
  |   88: Species O             6.86801000       18.31830000       35.91340000
  |   89: Species H             5.88862000       18.37970000       36.25430000
  |   90: Species H             7.33447000       19.18680000       35.75300000
  |   91: Species O            10.15030000       -2.59580000       -6.87417000
  |   92: Species H            10.19030000       -2.80962000       -5.84869000
  |   93: Species H            10.06860000       -3.51587000       -7.11480000
  |   94: Species O            19.42050000       16.57210000        5.63734000
  |   95: Species H            19.99740000       15.93260000        6.41421000
  |   96: Species H            18.60050000       16.77470000        6.15874000

  Lattice parameters for 3D lattice (in Angstroms) :     9.693160    9.693160    9.693160
  Angle(s) between unit vectors (in degrees)       :    90.000000   90.000000   90.000000


  Quantities derived from the lattice vectors (in Angstrom^-1):
  | Reciprocal lattice vector 1:  0.648208  0.000000  0.000000
  | Reciprocal lattice vector 2:  0.000000  0.648208  0.000000
  | Reciprocal lattice vector 3:  0.000000  0.000000  0.648208
  | Unit cell volume                               :   0.910744E+03  Angstrom^3

  Fractional coordinates:
                         L1                L2                L3
       atom_frac        -0.19027644        2.86324584        0.32874109  O
       atom_frac        -0.09437428        2.85603456        0.29372877  H
       atom_frac        -0.18660478        2.91362156        0.41687334  H
       atom_frac         0.66027178        2.54219470       -1.02478139  O
       atom_frac         0.70365289        2.62383990       -1.03473996  H
       atom_frac         0.62494377        2.54928217       -1.11965551  H
       atom_frac         1.81182401       -1.85130546       -0.34601410  O
       atom_frac         1.87881970       -1.82616402       -0.40307908  H
       atom_frac         1.80067181       -1.78808562       -0.26030211  H
       atom_frac         0.36786249        0.91252904        0.51515708  O
       atom_frac         0.40531364        0.97808145        0.58842421  H
       atom_frac         0.28400336        0.90899872        0.52480718  H
       atom_frac        -3.10185739        2.05958635        2.05703816  O
       atom_frac        -3.13015570        1.96611838        2.04727870  H
       atom_frac        -3.14277284        2.09625138        2.13137924  H
       atom_frac         0.65731299       -0.37621477        0.38786835  O
       atom_frac         0.70359099       -0.30929026        0.34342671  H
       atom_frac         0.58263250       -0.39470101        0.32734320  H
       atom_frac        -0.39026695        0.55546695       -0.30805021  O
       atom_frac        -0.36726207        0.57611862       -0.40945780  H
       atom_frac        -0.41271164        0.45556042       -0.29969277  H
       atom_frac         0.84887797        1.39443690       -0.65476480  O
       atom_frac         0.78553227        1.45698616       -0.64923204  H
       atom_frac         0.79880658        1.30935629       -0.67854033  H
       atom_frac         1.67653273        1.16610063        0.21432020  O
       atom_frac         1.61789344        1.24946870        0.17619641  H
       atom_frac         1.64037321        1.07669738        0.22830635  H
       atom_frac        -1.85158400        2.49936037        0.68245237  O
       atom_frac        -1.77717071        2.46436663        0.74481181  H
       atom_frac        -1.79575082        2.56765596        0.65004498  H
       atom_frac        -1.22112913        0.78884595       -1.01071890  O
       atom_frac        -1.24177255        0.81940874       -1.10687330  H
       atom_frac        -1.13861733        0.74345827       -1.00253375  H
       atom_frac         2.10082161       -2.04616451        0.50116990  O
       atom_frac         2.07154323       -1.99020753        0.57962419  H
       atom_frac         2.06342411       -2.14493519        0.53064738  H
       atom_frac        -0.92956786       -0.68639432        0.17398557  O
       atom_frac        -1.00274627       -0.65457085        0.22714058  H
       atom_frac        -0.89929600       -0.76907221        0.18052214  H
       atom_frac         0.48656991       -0.65725006        0.10205568  O
       atom_frac         0.45452876       -0.57340640        0.16831250  H
       atom_frac         0.54338007       -0.61219767        0.04554552  H
       atom_frac        -2.44112343       -0.71368676        1.62291760  O
       atom_frac        -2.35636263       -0.77760503        1.59214333  H
       atom_frac        -2.49995873       -0.73266613        1.53060509  H
       atom_frac         0.11043251       -1.89027108       -0.20753604  O
       atom_frac         0.16191108       -1.82303810       -0.16913989  H
       atom_frac         0.00965454       -1.85049045       -0.22616154  H
       atom_frac         1.26962724       -0.23329131        2.13833260  O
       atom_frac         1.33225904       -0.16977951        2.18566494  H
       atom_frac         1.18031684       -0.25651181        2.19263893  H
       atom_frac        -0.84838381        0.04599264        1.21805479  O
       atom_frac        -0.85423226        0.01515687        1.31932208  H
       atom_frac        -0.93957182        0.04261108        1.16954636  H
       atom_frac        -0.58985202        2.54641417        1.25210974  O
       atom_frac        -0.62907555        2.62183849        1.24225743  H
       atom_frac        -0.60549810        2.53620078        1.36271350  H
       atom_frac         0.06809668       -1.73189135       -0.49445279  O
       atom_frac        -0.01008546       -1.69974497       -0.55216049  H
       atom_frac         0.09994811       -1.65384663       -0.42780682  H
       atom_frac        -0.78797420        2.36528645       -0.08689643  O
       atom_frac        -0.85534336        2.35296848       -0.00417655  H
       atom_frac        -0.70089630        2.38566164       -0.03520544  H
       atom_frac         0.37165795       -0.91603667        1.05164879  O
       atom_frac         0.43681627       -0.85350391        1.11658118  H
       atom_frac         0.30078530       -0.93777468        1.11434248  H
       atom_frac        -0.64808071        4.62351803        0.53674859  O
       atom_frac        -0.69252442        4.70631868        0.52939186  H
       atom_frac        -0.56426181        4.63091500        0.59624209  H
       atom_frac         4.35940395       -3.77679725        0.43702054  O
       atom_frac         4.25709469       -3.74721969        0.43873102  H
       atom_frac         4.35393618       -3.86541644        0.38786423  H
       atom_frac        -0.46598839       -1.11477578       -0.75096769  O
       atom_frac        -0.38055804       -1.14012355       -0.74803779  H
       atom_frac        -0.49444454       -1.14253762       -0.65040193  H
       atom_frac         1.11850006        0.84277986       -0.09208793  O
       atom_frac         1.12163629        0.93599610       -0.13124719  H
       atom_frac         1.19452274        0.83616798       -0.03535596  H
       atom_frac         1.41195441        1.02434500        0.77172872  O
       atom_frac         1.40636284        1.11251645        0.73494505  H
       atom_frac         1.39178555        1.04020773        0.87486434  H
       atom_frac        -0.17126922        2.29614491       -0.11169629  O
       atom_frac        -0.15861288        2.24457246       -0.03227255  H
       atom_frac        -0.22851371        2.38875661       -0.09366192  H
       atom_frac         1.98916556       -1.40753892        2.01738133  O
       atom_frac         2.00466102       -1.48679069        1.98084010  H
       atom_frac         2.05963793       -1.34001708        2.00731237  H
       atom_frac         0.70854190        1.88981715        3.70502499  O
       atom_frac         0.60750261        1.89615151        3.74019412  H
       atom_frac         0.75666449        1.97941641        3.68847724  H
       atom_frac         1.04716109       -0.26779709       -0.70917740  O
       atom_frac         1.05128771       -0.28985594       -0.60338321  H
       atom_frac         1.03873247       -0.36271660       -0.73400212  H
       atom_frac         2.00352620        1.70966950        0.58157918  O
       atom_frac         2.06304239        1.64369514        0.66172538  H
       atom_frac         1.91893046        1.73057084        0.63536968  H

 
  Finished reading input file 'geometry.in'.
 

 
  Consistency checks for stacksize environment parameter are next.
 
  | Maximum stacksize for task 0: unlimited
  | Maximum stacksize for task 1: unlimited
  | Maximum stacksize for task 2: unlimited
  | Maximum stacksize for task 3: unlimited
  | Maximum stacksize for task 4: unlimited
  | Maximum stacksize for task 5: unlimited
  | Maximum stacksize for task 6: unlimited
  | Maximum stacksize for task 7: unlimited
  | Maximum stacksize for task 8: unlimited
  | Maximum stacksize for task 9: unlimited
  | Maximum stacksize for task 10: unlimited
  | Maximum stacksize for task 11: unlimited
  | Maximum stacksize for task 12: unlimited
  | Maximum stacksize for task 13: unlimited
  | Maximum stacksize for task 14: unlimited
  | Maximum stacksize for task 15: unlimited
  | Maximum stacksize for task 16: unlimited
  | Maximum stacksize for task 17: unlimited
  | Current stacksize for task 0: unlimited
  | Current stacksize for task 1: unlimited
  | Current stacksize for task 2: unlimited
  | Current stacksize for task 3: unlimited
  | Current stacksize for task 4: unlimited
  | Current stacksize for task 5: unlimited
  | Current stacksize for task 6: unlimited
  | Current stacksize for task 7: unlimited
  | Current stacksize for task 8: unlimited
  | Current stacksize for task 9: unlimited
  | Current stacksize for task 10: unlimited
  | Current stacksize for task 11: unlimited
  | Current stacksize for task 12: unlimited
  | Current stacksize for task 13: unlimited
  | Current stacksize for task 14: unlimited
  | Current stacksize for task 15: unlimited
  | Current stacksize for task 16: unlimited
  | Current stacksize for task 17: unlimited
 
  Consistency checks for the contents of control.in are next.
 
  MPI_IN_PLACE appears to work with this MPI implementation.
  | Keeping use_mpi_in_place .true. (see manual).
  Explicit treatment of the Coulomb operator is needed, but the RI method is not specified.
  Coulomb operator: Defaulting to 'LVL fast' resolution of identity - RI_type = LVL_fast
  Species H: Using default value for prodbas_acc =   1.000000E-06.
  Species H: Using default value max_l_prodbas =     6.
  Species O: Using default value for prodbas_acc =   1.000000E-06.
  Species O: Using default value max_l_prodbas =     6.
  Target number of points in a grid batch is not set.  Since GPU acceleration is enabled, defaulting to  200
  Method for grid partitioning is not set. Defaulting to parallel hash+maxmin partitioning.
  Batch size limit is not set. Defaulting to    200
  By default, will store active basis functions for each batch.
  If in need of memory, prune_basis_once .false. can be used to disable this option.
  communication_type for Hartree potential was not specified.
  Defaulting to calc_hartree .
  Defaulting to Pulay charge density mixer.
  Pulay mixer: Number of relevant iterations not set.
  Defaulting to    8 iterations.
  Pulay mixer: Number of initial linear mixing iterations not set.
  Defaulting to    0 iterations.
  Work space size for distributed Hartree potential not set.
  Defaulting to   0.200000E+03 MB.
  Mixing parameter for charge density mixing has not been set.
  Using default: charge_mix_param =     0.0500.
  The mixing parameter will be adjusted in iteration number     2 of the first full s.c.f. cycle only.
  Algorithm-dependent basis array size parameters:
  | n_max_pulay                         :        8
  Maximum number of self-consistency iterations not provided.
  Presetting  1000 iterations.
  Presetting      1001 iterations before the initial mixing cycle
  is restarted anyway using the sc_init_iter criterion / keyword.
  Presetting a factor      1.000 between actual scf density residual
  and density convergence criterion sc_accuracy_rho below which sc_init_iter
  takes no effect.
  Calculation of forces was not defined in control.in. No forces will be calculated.
  Geometry relaxation not requested: no relaxation will be performed.
  No accuracy limit for integral partition fn. given. Defaulting to  0.1000E-14.
  No occupation type (smearing scheme) given. Defaulting to Gaussian broadening, width =  0.1000E-01 eV.
  The width will be adjusted in iteration number     2 of the first full s.c.f. cycle only.
  S.C.F. convergence parameters will be adjusted in iteration number     2 of the first full s.c.f. cycle only.
  No accuracy for occupation numbers given. Defaulting to  0.1000E-12.
  No threshold value for occupation numbers given. Defaulting to  0.0000E+00.
  No accuracy for fermi level given. Defaulting to  0.1000E-19.
  Maximum # of iterations to find E_F not set. Defaulting to  200.
  Preferred method for the eigenvalue solver ('KS_method') not specified in 'control.in'.
  Calling BLACS routine to test compilation state
  Since ScaLAPACK support is enabled, defaulting to ELPA (via ELSI).
  Will not use alltoall communication since running on < 1024 CPUs.
  Threshold for basis singularities not set.
  Default threshold for basis singularities:  0.1000E-04
  partition_type (choice of integration weights) for integrals was not specified.
  | Using a version of the partition function of Stratmann and coworkers ('stratmann_sparse').
  | At each grid point, the set of atoms used to build the partition table is smoothly restricted to
  | only those atoms whose free-atom density would be non-zero at that grid point.
  Partitioning for Hartree potential was not defined. Using partition_type for integrals.
  | Adjusted default value of keyword multip_moments_threshold to:       0.10000000E-11
  | This value may affect high angular momentum components of the Hartree potential in periodic systems.
  Angular momentum expansion for Kerker preconditioner not set explicitly.
  | Using default value of   0
  No explicit requirement for turning off preconditioner.
  | By default, it will be turned off when the charge convergence reaches
  | sc_accuracy_rho  =   0.100000E-05
  No special mixing parameter while Kerker preconditioner is on.
  Using default: charge_mix_param =     0.0500.
  Threshold for auxiliary basis singularities not set.
  Default threshold for auxiliary basis singularities:  0.1000E-04
  No q(lm)/r^(l+1) cutoff set for long-range Hartree potential.
  | Using default value of  0.100000E-09 .
  | Verify using the multipole_threshold keyword.
  Defaulting to new monopole extrapolation.
  Density update method: automatic selection selected.
  Using density matrix based charge density update.
  Using density matrix based charge density update.
  Using packed matrix style: index .
  Defaulting to use time-reversal symmetry for k-point grid.
  Charge integration errors on the 3D integration grid will be compensated
  by explicit normalization and distribution of residual charges.
  Use the "compensate_multipole_errors" flag to change this behaviour.
  Default to 1D ("use_logsbt") integrations for auxiliary 2-center integrals.
  Default onset of logarithmic r-grid for SBT is -38.000000000000
  Default onset of logarithmic k-grid for SBT is -25.000000000000
  Default range of logarithmic r- and k-grid for SBT is  45.000000000000
  Default number of logarithmic r- and k-grid for SBT is   4096
  Default of use_2d_corr is to use the efficient 2D distribution where possible
 
  Consistency checks for the contents of geometry.in are next.
 

  Range separation radius for Ewald summation (hartree_convergence_parameter):      2.91225186 bohr.
  Number of empty states per atom not set in control.in .
  | Since you are using a method that relies on the unoccupied spectrum
  | (MP2,GW,RPA et al.), will use the full Hamiltonian size (see below)
  | as the max. possible number of states (occupied plus empty).

  Structure-dependent array size parameters: 
  | Maximum number of distinct radial functions  :        9
  | Maximum number of basis functions            :      768
  | Number of Kohn-Sham states (occupied + empty):      768
------------------------------------------------------------

  Performing system and environment tests:
  | Environment variable OMP_NUM_THREADS correctly set to 1.
  | Checking for ScaLAPACK...
  | Testing pdtran()...
  | All pdtran() tests passed.
CUDA runtime version: 11060
CUDA driver version: 11060
  Initializing GPUs...

  Number of GPUs available to MPI task         0 :   1
  Number of GPUs available to MPI task         1 :   1
  Number of GPUs available to MPI task         2 :   1
  Number of GPUs available to MPI task         3 :   1
  Number of GPUs available to MPI task         4 :   1
  Number of GPUs available to MPI task         5 :   1
  Number of GPUs available to MPI task         6 :   1
  Number of GPUs available to MPI task         7 :   1
  Number of GPUs available to MPI task         8 :   1
  Number of GPUs available to MPI task         9 :   1
  Number of GPUs available to MPI task        10 :   1
  Number of GPUs available to MPI task        11 :   1
  Number of GPUs available to MPI task        12 :   1
  Number of GPUs available to MPI task        13 :   1
  Number of GPUs available to MPI task        14 :   1
  Number of GPUs available to MPI task        15 :   1
  Number of GPUs available to MPI task        16 :   1
  Number of GPUs available to MPI task        17 :   1

  | MPI task         0, GPU activated = T, Device Name = NVIDIA A100-SXM4-80GB
  | MPI task         1, GPU activated = T, Device Name = NVIDIA A100-SXM4-80GB
  | MPI task         2, GPU activated = T, Device Name = NVIDIA A100-SXM4-80GB
  | MPI task         3, GPU activated = T, Device Name = NVIDIA A100-SXM4-80GB
  | MPI task         4, GPU activated = T, Device Name = NVIDIA A100-SXM4-80GB
  | MPI task         5, GPU activated = T, Device Name = NVIDIA A100-SXM4-80GB
  | MPI task         6, GPU activated = T, Device Name = NVIDIA A100-SXM4-80GB
  | MPI task         7, GPU activated = T, Device Name = NVIDIA A100-SXM4-80GB
  | MPI task         8, GPU activated = T, Device Name = NVIDIA A100-SXM4-80GB
  | MPI task         9, GPU activated = T, Device Name = NVIDIA A100-SXM4-80GB
  | MPI task        10, GPU activated = T, Device Name = NVIDIA A100-SXM4-80GB
  | MPI task        11, GPU activated = T, Device Name = NVIDIA A100-SXM4-80GB
  | MPI task        12, GPU activated = T, Device Name = NVIDIA A100-SXM4-80GB
  | MPI task        13, GPU activated = T, Device Name = NVIDIA A100-SXM4-80GB
  | MPI task        14, GPU activated = T, Device Name = NVIDIA A100-SXM4-80GB
  | MPI task        15, GPU activated = T, Device Name = NVIDIA A100-SXM4-80GB
  | MPI task        16, GPU activated = T, Device Name = NVIDIA A100-SXM4-80GB
  | MPI task        17, GPU activated = T, Device Name = NVIDIA A100-SXM4-80GB

------------------------------------------------------------
          Preparing all fixed parts of the calculation.
------------------------------------------------------------
  Determining machine precision:
    2.225073858507201E-308
  Setting up grids for atomic and cluster calculations.

  Creating wave function, potential, and density for free atoms.
  Runtime choices for atomic solver:
  | atomic solver xc        : PW-LDA
  | compute density gradient: 0
  | compute kinetic density : F

  Species: H

  List of occupied orbitals and eigenvalues:
    n    l              occ      energy [Ha]    energy [eV]
    1    0           1.0000        -0.232375        -6.3233


  Species: O

  List of occupied orbitals and eigenvalues:
    n    l              occ      energy [Ha]    energy [eV]
    1    0           2.0000       -18.757744      -510.4242
    2    0           2.0000        -0.870917       -23.6989
    2    1           4.0000        -0.337950        -9.1961


  Adding cutoff potential to free-atom effective potential.
  Creating fixed part of basis set: Ionic, confined, hydrogenic.
 
  H                    hydrogenic:
 
  List of hydrogenic basis orbitals: 
    n    l      effective z      eigenvalue [eV]  inner max. [A]     outer max. [A]     outer radius [A]   
    2    0         2.100000       -14.9728           0.193243           1.317208           4.696947
    2    1         3.500000       -41.6669           0.602369           0.602369           3.862494
 
 
  O                    hydrogenic:
 
  List of hydrogenic basis orbitals: 
    n    l      effective z      eigenvalue [eV]  inner max. [A]     outer max. [A]     outer radius [A]   
    2    1         1.800000       -10.9749           1.164242           1.164242           4.691341
    3    2         7.600000       -87.3180           0.624125           0.624125           3.413946
    3    0         6.400000       -61.9207           0.061167           1.081902           4.151495
 
  Creating atomic-like basis functions for current effective potential.

  Species H                   :

  List of atomic basis orbitals and eigenvalues:
    n    l      energy [Ha]    energy [eV]    outer radius [A]
    1    0        -0.232375        -6.3233       4.696947


  Species O                   :

  List of atomic basis orbitals and eigenvalues:
    n    l      energy [Ha]    energy [eV]    outer radius [A]
    1    0       -18.757744      -510.4242       1.830144
    2    0        -0.870917       -23.6989       4.578029
    2    1        -0.337950        -9.1961       4.634338

  Assembling full basis from fixed parts.
  | Species H :   atomic orbital   1 s accepted.
  | Species H :    hydro orbital   2 s accepted.
  | Species H :    hydro orbital   2 p accepted.
  | Species O :   atomic orbital   1 s accepted.
  | Species O :    hydro orbital   3 s accepted.
  | Species O :   atomic orbital   2 s accepted.
  | Species O :   atomic orbital   2 p accepted.
  | Species O :    hydro orbital   2 p accepted.
  | Species O :    hydro orbital   3 d accepted.
 
  Basis size parameters after reduction:
  | Total number of radial functions:        9
  | Total number of basis functions :      768
 
  Per-task memory consumption for arrays in subroutine allocate_ext:
  |           2.268304MB.
  Testing on-site integration grid accuracy.
  |  Species  Function  <phi|h_atom|phi> (log., in eV)  <phi|h_atom|phi> (rad., in eV)
           1        1                 -6.3245358373                 -6.3232436907
           1        2                 14.1326137532                 14.1384481100
           1        3                 25.3627025200                 25.3628451197
           2        4               -510.4241781764               -510.4240769407
           2        5                 14.9072942213                 14.9072945271
           2        6                -21.2004736474                -21.2005650551
           2        7                 -9.1962086505                 -9.1963509834
           2        8                  8.1896755006                  8.1702200081
           2        9                 45.7920584937                 45.7920228520

  Preparing densities etc. for the partition functions (integrals / Hartree potential).

  Preparations completed.
  max(cpu_time)          :      0.072 s.
  Wall clock time (cpu1) :      0.069 s.
------------------------------------------------------------

  Initializing index lists of integration centers etc. from given atomic structure:
  Mapping all atomic coordinates to central unit cell.

  Initializing the k-points
  Using symmetry for reducing the k-points
  | k-points reduced from:        1 to        1
  | Number of k-points                             :         1
  | Consuming          0 KiB for k_phase_exx.
  The eigenvectors in the calculations are REAL.
  | Number of basis functions in the Hamiltonian integrals :      4477
  | Number of basis functions in a single unit cell        :       768
  | Number of centers in hartree potential         :      2600
  | Number of centers in hartree multipole         :      1974
  | Number of centers in electron density summation:      1521
  | Number of centers in basis integrals           :      1630
  | Number of centers in integrals                 :       715
  | Number of centers in hamiltonian               :      1521
  | Consuming          0 KiB for k_phase.
  | Number of super-cells (origin) [n_cells]                     :         125
  | Number of super-cells (after PM_index) [n_cells]             :          28
  | Number of super-cells in hamiltonian [n_cells_in_hamiltonian]:          28
  | Size of matrix packed + index [n_hamiltonian_matrix_size] :      832081
  | Size of matrix packed + index (no_symmetry):     1663393

------------------------------------------------------------
          Begin self-consistency loop: Initialization.

          Date     :  20230221, Time     :  123454.901
------------------------------------------------------------
  | Estimated reciprocal-space cutoff momentum G_max:         3.24977417 bohr^-1 .
  | Reciprocal lattice points for long-range Hartree potential:    3574
  Using simple linear distribution as default method for k-point parallelism.
  * Using 18 tasks for Scalapack Eigenvalue solver.
  Detailed listing of tasks and assigned k-points:
   Task     0 k-point     1 on adag039
   Task     1 k-point     1 on adag039
   Task     2 k-point     1 on adag039
   Task     3 k-point     1 on adag039
   Task     4 k-point     1 on adag039
   Task     5 k-point     1 on adag039
   Task     6 k-point     1 on adag039
   Task     7 k-point     1 on adag039
   Task     8 k-point     1 on adag039
   Task     9 k-point     1 on adag039
   Task    10 k-point     1 on adag039
   Task    11 k-point     1 on adag039
   Task    12 k-point     1 on adag039
   Task    13 k-point     1 on adag039
   Task    14 k-point     1 on adag039
   Task    15 k-point     1 on adag039
   Task    16 k-point     1 on adag039
   Task    17 k-point     1 on adag039
  K-point:     1 Tasks:    18 split into      6 X      3 BLACS grid
  Calculating block size based on n_basis =          768  max_nprow =            6  max_npcol =            3
  ScaLAPACK block size set to:           16
  Allocating        0.250 MB for ovlp
  Allocating        0.250 MB for ham
  Allocating        0.250 MB for eigenvec
  Required Scalapack workspace - INTEGER:            1  REAL:             1
  Partitioning the integration grid into batches with parallel hashing+maxmin method.
  | Number of batches:     4096
  | Maximal batch size:     200
  | Minimal batch size:     100
  | Average batch size:     124.406
  | Standard deviation of batch sizes:      24.502

  Integration load balanced across    18 MPI tasks.
  Work distribution over tasks is as follows:
  Task     0 has      28277 integration points.
  Task     1 has      28304 integration points.
  Task     2 has      28272 integration points.
  Task     3 has      28311 integration points.
  Task     4 has      28316 integration points.
  Task     5 has      28280 integration points.
  Task     6 has      28317 integration points.
  Task     7 has      28284 integration points.
  Task     8 has      28308 integration points.
  Task     9 has      28284 integration points.
  Task    10 has      28267 integration points.
  Task    11 has      28333 integration points.
  Task    12 has      28377 integration points.
  Task    13 has      28364 integration points.
  Task    14 has      28302 integration points.
  Task    15 has      28332 integration points.
  Task    16 has      28275 integration points.
  Task    17 has      28365 integration points.
  Initializing partition tables, free-atom densities, potentials, etc. across the integration grid (initialize_grid_storage).
  | initialize_grid_storage: Actual outermost partition radius vs. multipole_radius_free
  | (-- VB: in principle, multipole_radius_free should be larger, hence this output)
  | Species        1: Confinement radius =              4.999999999999999 AA, multipole_radius_free =              5.054417573612229 AA.
  | Species        1: outer_partition_radius set to              5.054417573612229 AA .
  | Species        2: Confinement radius =              4.999999999999999 AA, multipole_radius_free =              5.048384829883283 AA.
  | Species        2: outer_partition_radius set to              5.048384829883283 AA .
  | The sparse table of interatomic distances needs       5694.91 kbyte instead of     21255.20 kbyte of memory.
  | Net number of integration points:   509568
  | of which are non-zero points    :   404452
  | Numerical average free-atom electrostatic potential    :     -5.72203992 eV
  Renormalizing the initial density to the exact electron count on the 3D integration grid.
  | Initial density: Formal number of electrons (from input files) :     320.0000000000
  | Integrated number of electrons on 3D grid     :     319.9996564118
  | Charge integration error                      :      -0.0003435882
  | Normalization factor for density and gradient :       1.0000010737
  Renormalizing the free-atom superposition density to the exact electron count on the 3D integration grid.
  | Formal number of electrons (from input files) :     320.0000000000
  | Integrated number of electrons on 3D grid     :     319.9996564118
  | Charge integration error                      :      -0.0003435882
  | Normalization factor for density and gradient :       1.0000010737
  Obtaining max. number of non-zero basis functions in each batch (get_n_compute_maxes).
  | Maximal number of non-zero basis functions:      458 in task     0
  | Maximal number of non-zero basis functions:      436 in task     1
  | Maximal number of non-zero basis functions:      438 in task     2
  | Maximal number of non-zero basis functions:      436 in task     3
  | Maximal number of non-zero basis functions:      437 in task     4
  | Maximal number of non-zero basis functions:      434 in task     5
  | Maximal number of non-zero basis functions:      428 in task     6
  | Maximal number of non-zero basis functions:      439 in task     7
  | Maximal number of non-zero basis functions:      447 in task     8
  | Maximal number of non-zero basis functions:      452 in task     9
  | Maximal number of non-zero basis functions:      430 in task    10
  | Maximal number of non-zero basis functions:      436 in task    11
  | Maximal number of non-zero basis functions:      433 in task    12
  | Maximal number of non-zero basis functions:      428 in task    13
  | Maximal number of non-zero basis functions:      420 in task    14
  | Maximal number of non-zero basis functions:      439 in task    15
  | Maximal number of non-zero basis functions:      455 in task    16
  | Maximal number of non-zero basis functions:      434 in task    17
  Integrating Hamiltonian matrix: batch-based integration.
  GPU acceleration will be used when integrating the Hamiltonian matrix.
  Reporting GPU memory usage by myid 0.  Note that it is likely not the only MPI task binding to its GPU!
  Allocating        1.678 MB on GPU for hamiltonian_shell
  Allocating        0.733 MB on GPU for wave
  Allocating        0.002 MB on GPU for partition
  Allocating        0.733 MB on GPU for h_times_psi
  Time summed over all CPUs for integration: real work       13.080 s, elapsed       13.343 s
  Deallocating memory used on GPU for Hamiltonian integration.
  Integrating overlap matrix.
  Time summed over all CPUs for integration: real work       10.927 s, elapsed       11.652 s
  Deallocating overlap matrix.

  Updating Kohn-Sham eigenvalues and eigenvectors using ELSI and the ELPA eigensolver.
  Singularity check in k-point 1 (analysis for other k-points may follow below):
  Overlap matrix is not singular
  | Lowest and highest eigenvalues :  0.1578E-02,  0.7629E+01
  Finished singularity check of overlap matrix
  | Time :     0.200 s
  Starting ELPA eigensolver (GPU)
  Finished Cholesky decomposition
  | Time :     0.008 s
  Finished transformation to standard eigenproblem
  | Time :     0.030 s
  Finished solving standard eigenproblem
  | Time :     0.187 s
  Finished back-transformation of eigenvectors
  | Time :     0.017 s

  Obtaining occupation numbers and electronic chemical potential using ELSI.
  | Note that, for insulating systems, the printed 'chemical potential' value is not uniquely defined.
  | It can be anywhere in the energy gap, as long as it correctly separates occupied and unoccupied states.
  | In systems with a gap, the physically relevant chemical potential is the VBM or HOMO.

  | Chemical potential (Fermi level):   -10.44023908 eV
  Writing Kohn-Sham eigenvalues.

  State    Occupation    Eigenvalue [Ha]    Eigenvalue [eV]
      1       2.00000         -18.910785         -514.58866
      2       2.00000         -18.905251         -514.43806
      3       2.00000         -18.904571         -514.41954
      4       2.00000         -18.900036         -514.29615
      5       2.00000         -18.897676         -514.23193
      6       2.00000         -18.894497         -514.14541
      7       2.00000         -18.893884         -514.12873
      8       2.00000         -18.886470         -513.92700
      9       2.00000         -18.884891         -513.88404
     10       2.00000         -18.884787         -513.88120
     11       2.00000         -18.883815         -513.85475
     12       2.00000         -18.881279         -513.78574
     13       2.00000         -18.881143         -513.78204
     14       2.00000         -18.879560         -513.73896
     15       2.00000         -18.876185         -513.64713
     16       2.00000         -18.872482         -513.54637
     17       2.00000         -18.871215         -513.51188
     18       2.00000         -18.867816         -513.41939
     19       2.00000         -18.867199         -513.40261
     20       2.00000         -18.865697         -513.36174
     21       2.00000         -18.862734         -513.28112
     22       2.00000         -18.861053         -513.23536
     23       2.00000         -18.859771         -513.20047
     24       2.00000         -18.859061         -513.18116
     25       2.00000         -18.858544         -513.16708
     26       2.00000         -18.857716         -513.14456
     27       2.00000         -18.857143         -513.12898
     28       2.00000         -18.854937         -513.06894
     29       2.00000         -18.854257         -513.05043
     30       2.00000         -18.853021         -513.01680
     31       2.00000         -18.846022         -512.82635
     32       2.00000         -18.837307         -512.58919
     33       2.00000          -1.158933          -31.53617
     34       2.00000          -1.155057          -31.43070
     35       2.00000          -1.153483          -31.38787
     36       2.00000          -1.147452          -31.22375
     37       2.00000          -1.143744          -31.12287
     38       2.00000          -1.140441          -31.03298
     39       2.00000          -1.137881          -30.96331
     40       2.00000          -1.137078          -30.94148
     41       2.00000          -1.136512          -30.92606
     42       2.00000          -1.128573          -30.71004
     43       2.00000          -1.118909          -30.44707
     44       2.00000          -1.115134          -30.34435
     45       2.00000          -1.113243          -30.29289
     46       2.00000          -1.111606          -30.24835
     47       2.00000          -1.110050          -30.20600
     48       2.00000          -1.104685          -30.06002
     49       2.00000          -1.102413          -29.99819
     50       2.00000          -1.099145          -29.90926
     51       2.00000          -1.087441          -29.59077
     52       2.00000          -1.086953          -29.57749
     53       2.00000          -1.085964          -29.55059
     54       2.00000          -1.081666          -29.43364
     55       2.00000          -1.079519          -29.37521
     56       2.00000          -1.077150          -29.31073
     57       2.00000          -1.075459          -29.26472
     58       2.00000          -1.072735          -29.19061
     59       2.00000          -1.071277          -29.15093
     60       2.00000          -1.069562          -29.10426
     61       2.00000          -1.068355          -29.07143
     62       2.00000          -1.063121          -28.92899
     63       2.00000          -1.052452          -28.63868
     64       2.00000          -1.041103          -28.32986
     65       2.00000          -0.735420          -20.01181
     66       2.00000          -0.716067          -19.48519
     67       2.00000          -0.693858          -18.88083
     68       2.00000          -0.688539          -18.73610
     69       2.00000          -0.683442          -18.59741
     70       2.00000          -0.681851          -18.55411
     71       2.00000          -0.677109          -18.42508
     72       2.00000          -0.671480          -18.27189
     73       2.00000          -0.670783          -18.25294
     74       2.00000          -0.668920          -18.20224
     75       2.00000          -0.662319          -18.02262
     76       2.00000          -0.659027          -17.93305
     77       2.00000          -0.654822          -17.81862
     78       2.00000          -0.653518          -17.78314
     79       2.00000          -0.651802          -17.73642
     80       2.00000          -0.645628          -17.56844
     81       2.00000          -0.642611          -17.48633
     82       2.00000          -0.641126          -17.44592
     83       2.00000          -0.640266          -17.42253
     84       2.00000          -0.638966          -17.38715
     85       2.00000          -0.637360          -17.34344
     86       2.00000          -0.633930          -17.25012
     87       2.00000          -0.632101          -17.20035
     88       2.00000          -0.629894          -17.14028
     89       2.00000          -0.627894          -17.08587
     90       2.00000          -0.624275          -16.98738
     91       2.00000          -0.622154          -16.92967
     92       2.00000          -0.612834          -16.67607
     93       2.00000          -0.607421          -16.52876
     94       2.00000          -0.601587          -16.37000
     95       2.00000          -0.586105          -15.94874
     96       2.00000          -0.585605          -15.93511
     97       2.00000          -0.584800          -15.91321
     98       2.00000          -0.564366          -15.35718
     99       2.00000          -0.562770          -15.31374
    100       2.00000          -0.559580          -15.22694
    101       2.00000          -0.555890          -15.12654
    102       2.00000          -0.552924          -15.04584
    103       2.00000          -0.551505          -15.00722
    104       2.00000          -0.547590          -14.90068
    105       2.00000          -0.546662          -14.87544
    106       2.00000          -0.542171          -14.75323
    107       2.00000          -0.540865          -14.71769
    108       2.00000          -0.539342          -14.67623
    109       2.00000          -0.537747          -14.63283
    110       2.00000          -0.534665          -14.54897
    111       2.00000          -0.532531          -14.49089
    112       2.00000          -0.531840          -14.47211
    113       2.00000          -0.525627          -14.30305
    114       2.00000          -0.523383          -14.24196
    115       2.00000          -0.521395          -14.18789
    116       2.00000          -0.518492          -14.10888
    117       2.00000          -0.514044          -13.98784
    118       2.00000          -0.513447          -13.97159
    119       2.00000          -0.510841          -13.90068
    120       2.00000          -0.508275          -13.83086
    121       2.00000          -0.506709          -13.78825
    122       2.00000          -0.504098          -13.71720
    123       2.00000          -0.501556          -13.64804
    124       2.00000          -0.499289          -13.58634
    125       2.00000          -0.494780          -13.46366
    126       2.00000          -0.494435          -13.45425
    127       2.00000          -0.489414          -13.31764
    128       2.00000          -0.484153          -13.17447
    129       2.00000          -0.483396          -13.15387
    130       2.00000          -0.481615          -13.10542
    131       2.00000          -0.478284          -13.01477
    132       2.00000          -0.477655          -12.99765
    133       2.00000          -0.476105          -12.95548
    134       2.00000          -0.475285          -12.93316
    135       2.00000          -0.473776          -12.89210
    136       2.00000          -0.470669          -12.80756
    137       2.00000          -0.470240          -12.79589
    138       2.00000          -0.467573          -12.72331
    139       2.00000          -0.465429          -12.66497
    140       2.00000          -0.465082          -12.65553
    141       2.00000          -0.464183          -12.63107
    142       2.00000          -0.462450          -12.58392
    143       2.00000          -0.460865          -12.54077
    144       2.00000          -0.458984          -12.48960
    145       2.00000          -0.457945          -12.46131
    146       2.00000          -0.452846          -12.32256
    147       2.00000          -0.452651          -12.31725
    148       2.00000          -0.451288          -12.28018
    149       2.00000          -0.447841          -12.18637
    150       2.00000          -0.446915          -12.16117
    151       2.00000          -0.445923          -12.13419
    152       2.00000          -0.445515          -12.12309
    153       2.00000          -0.444784          -12.10319
    154       2.00000          -0.443203          -12.06016
    155       2.00000          -0.442406          -12.03848
    156       2.00000          -0.441231          -12.00650
    157       2.00000          -0.440765          -11.99381
    158       2.00000          -0.437915          -11.91627
    159       2.00000          -0.437115          -11.89450
    160       2.00000          -0.425584          -11.58073
    161       0.00000          -0.177972           -4.84285
    162       0.00000          -0.116426           -3.16812
    163       0.00000          -0.112963           -3.07388
    164       0.00000          -0.108753           -2.95932
    165       0.00000          -0.108083           -2.94108
    166       0.00000          -0.107289           -2.91949
    167       0.00000          -0.099409           -2.70505
    168       0.00000          -0.073130           -1.98997
    169       0.00000          -0.067386           -1.83367
    170       0.00000          -0.065606           -1.78522
    171       0.00000          -0.060769           -1.65360
    172       0.00000          -0.055567           -1.51205
    173       0.00000          -0.053295           -1.45022
    174       0.00000          -0.051741           -1.40795
    175       0.00000          -0.047789           -1.30041
    176       0.00000          -0.046660           -1.26969
    177       0.00000          -0.036485           -0.99280
    178       0.00000          -0.035534           -0.96694
    179       0.00000          -0.031861           -0.86698
    180       0.00000          -0.021018           -0.57193
    181       0.00000          -0.019138           -0.52076
    182       0.00000          -0.006294           -0.17128
    183       0.00000          -0.002187           -0.05952
    184       0.00000           0.002791            0.07596
    185       0.00000           0.003823            0.10403
    186       0.00000           0.012820            0.34885
    187       0.00000           0.016338            0.44458
    188       0.00000           0.019092            0.51952
    189       0.00000           0.021833            0.59409
    190       0.00000           0.029510            0.80302
    191       0.00000           0.033615            0.91472
    192       0.00000           0.037339            1.01604
    193       0.00000           0.041371            1.12577
    194       0.00000           0.044075            1.19935
    195       0.00000           0.045943            1.25016
    196       0.00000           0.049007            1.33355
    197       0.00000           0.050278            1.36815
    198       0.00000           0.055549            1.51157
    199       0.00000           0.056687            1.54252
    200       0.00000           0.057609            1.56763
    201       0.00000           0.062993            1.71414
    202       0.00000           0.068145            1.85432
    203       0.00000           0.070891            1.92904
    204       0.00000           0.075327            2.04975
    205       0.00000           0.075501            2.05450
    206       0.00000           0.077992            2.12227
    207       0.00000           0.081356            2.21380
    208       0.00000           0.082309            2.23974
    209       0.00000           0.084646            2.30334
    210       0.00000           0.087128            2.37088
    211       0.00000           0.094780            2.57909
    212       0.00000           0.095467            2.59779
    213       0.00000           0.098744            2.68697
    214       0.00000           0.100664            2.73922
    215       0.00000           0.105767            2.87808
    216       0.00000           0.107548            2.92653
    217       0.00000           0.112431            3.05941
    218       0.00000           0.116863            3.17999
    219       0.00000           0.119225            3.24427
    220       0.00000           0.120672            3.28366
    221       0.00000           0.125634            3.41867
    222       0.00000           0.132447            3.60407
    223       0.00000           0.137994            3.75501
    224       0.00000           0.139661            3.80038
    225       0.00000           0.151353            4.11853
    226       0.00000           0.156591            4.26106
    227       0.00000           0.165371            4.49998
    228       0.00000           0.170169            4.63054
    229       0.00000           0.174474            4.74767
    230       0.00000           0.177902            4.84096
    231       0.00000           0.184165            5.01139
    232       0.00000           0.186629            5.07843
    233       0.00000           0.198084            5.39013
    234       0.00000           0.199888            5.43923
    235       0.00000           0.203276            5.53143
    236       0.00000           0.212207            5.77445
    237       0.00000           0.216845            5.90065
    238       0.00000           0.220104            5.98935
    239       0.00000           0.223310            6.07658
    240       0.00000           0.234808            6.38945
    241       0.00000           0.242687            6.60384
    242       0.00000           0.246764            6.71480
    243       0.00000           0.253270            6.89184
    244       0.00000           0.260303            7.08322
    245       0.00000           0.265291            7.21893
    246       0.00000           0.268928            7.31790
    247       0.00000           0.273412            7.43991
    248       0.00000           0.274824            7.47835
    249       0.00000           0.287293            7.81763
    250       0.00000           0.297805            8.10369
    251       0.00000           0.302212            8.22360
    252       0.00000           0.310032            8.43641
    253       0.00000           0.312134            8.49360
    254       0.00000           0.322261            8.76916
    255       0.00000           0.325715            8.86315
    256       0.00000           0.328124            8.92870
    257       0.00000           0.337284            9.17795
    258       0.00000           0.346024            9.41579
    259       0.00000           0.353499            9.61918
[...]
  |    H      0     4.527807 A      4.527807 A        1.268855E-16 a.u.
  |    H      0     4.527807 A      4.583499 A       -4.900954E-17 a.u.
  |    H      0     4.527807 A      4.583499 A        4.713786E-16 a.u.
  |    H      2     3.678162 A  2.180220E+05 A            0.556529 a.u.
  |    H      1     3.958095 A  1.721251E+08 A            0.841931 a.u.
  |    H      0     4.527807 A  3.866455E+16 A            0.581436 a.u.
  |    O      0     2.043000 A      2.043000 A       -1.436841E-16 a.u.
  |    O      3     3.498446 A      3.498446 A        3.043453E-17 a.u.
  |    O      3     3.498446 A      3.498446 A        1.541443E-16 a.u.
  |    O      0     3.905335 A      3.905335 A        2.173090E-16 a.u.
  |    O      0     3.905335 A      3.905335 A        7.213445E-17 a.u.
  |    O      0     4.101052 A      4.101052 A        2.361718E-16 a.u.
  |    O      1     4.101052 A      4.101052 A        3.235185E-17 a.u.
  |    O      0     4.359549 A      4.359549 A       -5.329475E-17 a.u.
  |    O      1     4.413171 A      4.413171 A        3.261883E-17 a.u.
  |    O      1     4.522403 A      4.522403 A        6.417997E-16 a.u.
  |    O      1     4.522403 A      4.522403 A        4.224783E-16 a.u.
  |    O      2     4.522403 A      4.522403 A       -4.387647E-16 a.u.
  |    O      0     4.522403 A      4.578029 A        2.602039E-16 a.u.
  |    O      0     4.578029 A      4.578029 A        1.226235E-16 a.u.
  |    O      1     4.578029 A      4.578029 A       -6.107316E-16 a.u.
  |    O      1     4.578029 A      4.578029 A       -2.224438E-16 a.u.
  |    O      2     4.578029 A      4.578029 A       -7.020279E-16 a.u.
  |    O      2     4.522403 A      4.578029 A        1.323470E-15 a.u.
  |    O      2     4.578029 A      4.578029 A        7.923696E-16 a.u.
  |    O      2     4.522403 A      4.578029 A       -9.951815E-16 a.u.
  |    O      0     4.578029 A      4.634338 A       -8.813582E-18 a.u.
  |    O      1     4.578029 A      4.634338 A       -3.325386E-17 a.u.
  |    O      1     4.634338 A      4.634338 A        9.588032E-16 a.u.
  |    O      2     4.578029 A      4.634338 A        1.064715E-17 a.u.
  |    O      2     4.578029 A      4.634338 A       -3.770343E-15 a.u.
  |    O      4     3.251020 A  1.511584E+03 A            1.513372 a.u.
  |    O      3     3.541477 A  1.434166E+04 A            4.293220 a.u.
  |    O      2     4.634338 A  5.584435E+05 A            9.352428 a.u.
  |    O      1     4.634338 A  2.821283E+08 A            2.261940 a.u.
  |    O      0     4.578029 A  4.264100E+16 A            0.641234 a.u.

  | Shrink_full_auxil_basis : there are       38  radial auxiliary wave functions
                            accepted and       5 rejected.
  | Shrink_full_auxil_basis : there are totally                4544 partial auxiliary wave functions.
 
  | Maximal number of product basis functions per thread :   256   256
 
  | Minimal total memory requirement for three-center overlap :      10.450 Gbs
  | Number of local auxiliary basis functions on task:      0   256
  | Number of local auxiliary basis functions on task:      1   256
  | Number of local auxiliary basis functions on task:      2   256
  | Number of local auxiliary basis functions on task:      3   256
  | Number of local auxiliary basis functions on task:      4   256
  | Number of local auxiliary basis functions on task:      5   256
  | Number of local auxiliary basis functions on task:      6   256
  | Number of local auxiliary basis functions on task:      7   256
  | Number of local auxiliary basis functions on task:      8   256
  | Number of local auxiliary basis functions on task:      9   256
  | Number of local auxiliary basis functions on task:     10   256
  | Number of local auxiliary basis functions on task:     11   256
  | Number of local auxiliary basis functions on task:     12   256
  | Number of local auxiliary basis functions on task:     13   256
  | Number of local auxiliary basis functions on task:     14   240
  | Number of local auxiliary basis functions on task:     15   240
  | Number of local auxiliary basis functions on task:     16   240
  | Number of local auxiliary basis functions on task:     17   240
  | 2D aux task distribution:      3 X      6
  | 2D block size (nb_aux_2d):     64
 
  Basis pair condensation :    295296  -->     233013
 
 --------------------------------------------
  Constructing auxiliary basis (full product) ...
 
  Product basis:
  | charge radius: extent of product basis function
  | field radius: extent of its Coulomb potential
  | Species   l  charge radius    field radius  multipol momen
  |    H      1     3.910002 A      3.910002 A       -2.487223E-16 a.u.
  |    H      1     3.958095 A      3.958095 A       -2.441841E-16 a.u.
  |    H      0     4.527807 A      4.527807 A        1.268855E-16 a.u.
  |    H      0     4.527807 A      4.583499 A       -4.900954E-17 a.u.
  |    H      0     4.527807 A      4.583499 A        4.713786E-16 a.u.
  |    H      2     3.678162 A  2.180220E+05 A            0.556529 a.u.
  |    H      1     3.958095 A  1.721251E+08 A            0.841931 a.u.
  |    H      0     4.527807 A  3.866455E+16 A            0.581436 a.u.
  |    O      0     2.043000 A      2.043000 A       -1.436841E-16 a.u.
  |    O      3     3.498446 A      3.498446 A        3.043453E-17 a.u.
  |    O      3     3.498446 A      3.498446 A        1.541443E-16 a.u.
  |    O      0     3.905335 A      3.905335 A        2.173090E-16 a.u.
  |    O      0     3.905335 A      3.905335 A        7.213445E-17 a.u.
  |    O      0     4.101052 A      4.101052 A        2.361718E-16 a.u.
  |    O      1     4.101052 A      4.101052 A        3.235185E-17 a.u.
  |    O      0     4.359549 A      4.359549 A       -5.329475E-17 a.u.
  |    O      1     4.413171 A      4.413171 A        3.261883E-17 a.u.
  |    O      1     4.522403 A      4.522403 A        6.417997E-16 a.u.
  |    O      1     4.522403 A      4.522403 A        4.224783E-16 a.u.
  |    O      2     4.522403 A      4.522403 A       -4.387647E-16 a.u.
  |    O      0     4.522403 A      4.578029 A        2.602039E-16 a.u.
  |    O      0     4.578029 A      4.578029 A        1.226235E-16 a.u.
  |    O      1     4.578029 A      4.578029 A       -6.107316E-16 a.u.
  |    O      1     4.578029 A      4.578029 A       -2.224438E-16 a.u.
  |    O      2     4.578029 A      4.578029 A       -7.020279E-16 a.u.
  |    O      2     4.522403 A      4.578029 A        1.323470E-15 a.u.
  |    O      2     4.578029 A      4.578029 A        7.923696E-16 a.u.
  |    O      2     4.522403 A      4.578029 A       -9.951815E-16 a.u.
  |    O      0     4.578029 A      4.634338 A       -8.813582E-18 a.u.
  |    O      1     4.578029 A      4.634338 A       -3.325386E-17 a.u.
  |    O      1     4.634338 A      4.634338 A        9.588032E-16 a.u.
  |    O      2     4.578029 A      4.634338 A        1.064715E-17 a.u.
  |    O      2     4.578029 A      4.634338 A       -3.770343E-15 a.u.
  |    O      4     3.251020 A  1.511584E+03 A            1.513372 a.u.
  |    O      3     3.541477 A  1.434166E+04 A            4.293220 a.u.
  |    O      2     4.634338 A  5.584435E+05 A            9.352428 a.u.
  |    O      1     4.634338 A  2.821283E+08 A            2.261940 a.u.
  |    O      0     4.578029 A  4.264100E+16 A            0.641234 a.u.

  | Shrink_full_auxil_basis : there are       38  radial auxiliary wave functions
                            accepted and       5 rejected.
  | Shrink_full_auxil_basis : there are totally                4544 partial auxiliary wave functions.
 
  | Maximal number of product basis functions per thread :   256   256
 
  | Minimal total memory requirement for three-center overlap :      10.450 Gbs
  | Number of local auxiliary basis functions on task:      0   256
  | Number of local auxiliary basis functions on task:      1   256
  | Number of local auxiliary basis functions on task:      2   256
  | Number of local auxiliary basis functions on task:      3   256
  | Number of local auxiliary basis functions on task:      4   256
  | Number of local auxiliary basis functions on task:      5   256
  | Number of local auxiliary basis functions on task:      6   256
  | Number of local auxiliary basis functions on task:      7   256
  | Number of local auxiliary basis functions on task:      8   256
  | Number of local auxiliary basis functions on task:      9   256
  | Number of local auxiliary basis functions on task:     10   256
  | Number of local auxiliary basis functions on task:     11   256
  | Number of local auxiliary basis functions on task:     12   256
  | Number of local auxiliary basis functions on task:     13   256
  | Number of local auxiliary basis functions on task:     14   240
  | Number of local auxiliary basis functions on task:     15   240
  | Number of local auxiliary basis functions on task:     16   240
  | Number of local auxiliary basis functions on task:     17   240
  | 2D aux task distribution:      3 X      6
  | 2D block size (nb_aux_2d):     64
 
  Basis pair condensation :    295296  -->     233013
dP_dE (Bohr^3) at every cycle:--->
 (357.441985841059,0.000000000000000E+000) (-9.33266320626725,0.000000000000000E+000) (12.4512044258676,0.000000000000000E+000)
 (-9.33596222757188,0.000000000000000E+000) (363.950693452390,0.000000000000000E+000) (-5.47353005135783,0.000000000000000E+000)
 (12.4359870765338,0.000000000000000E+000) (-5.47352614850941,0.000000000000000E+000) (358.565739627354,0.000000000000000E+000)
DFPT polarizability (Bohr^3)        xx        yy        zz        xy        xz        yz
  | Polarizability:--->                       357.441985841                  363.950693452                  358.565739627                   -9.332663206                   12.451204426                   -5.473530051

DFPT for dielectric_constant:--->  # PARSE DFPT_dielectric_tensor
               1.730840625302275            -0.019081948074328             0.025458246061821
              -0.019088693389341             1.744148597306129            -0.011191405273593
               0.025427132041803            -0.011191397293668             1.733138298637793

                                               :  max(cpu_time)    wall_clock(cpu1)
  | Time for  dielectric calculation            :        0.000 s           0.000 s
===========================================================================

------------------------------------------------------------------------------
  Final output of selected total energy values:

  The following output summarizes some interesting total energy values
  at the end of a run (AFTER all relaxation, molecular dynamics, etc.).

  | Total energy of the DFT / Hartree-Fock s.c.f. calculation      :         -66109.290481178 eV
  | Final zero-broadening corrected energy (caution - metals only) :         -66109.290481178 eV
  | For reference only, the value of 1 Hartree used in FHI-aims is :             27.211384500 eV
  | For reference only, the overall average (free atom contribution
  | + realspace contribution) of the electrostatic potential after
  | s.c.f. convergence is                                          :             -5.291371161 eV

  Before relying on these values, please be sure to understand exactly which
  total energy value is referred to by a given number. Different objects may
  all carry the same name 'total energy'. Definitions:

  Total energy of the DFT / Hartree-Fock s.c.f. calculation:
  | Note that this energy does not include ANY quantities calculated after the
  | s.c.f. cycle, in particular not ANY RPA, MP2, etc. many-body perturbation terms.

  Final zero-broadening corrected energy:
  | For metallic systems only, a broadening of the occupation numbers at the Fermi
  | level can be extrapolated back to zero broadening by an electron-gas inspired
  | formula. For all systems that are not real metals, this value can be
  | meaningless and should be avoided.

------------------------------------------------------------------------------
  Methods described in the following list of references were used in this FHI-aims run.
  If you publish the results, please make sure to cite these reference if they apply.
  FHI-aims is an academic code, and for our developers (often, Ph.D. students
  and postdocs), scientific credit in the community is essential.
  Thank you for helping us!

  For any use of FHI-aims, please cite:

    Volker Blum, Ralf Gehrke, Felix Hanke, Paula Havu, Ville Havu,
    Xinguo Ren, Karsten Reuter, and Matthias Scheffler
    'Ab initio molecular simulations with numeric atom-centered orbitals'
    Computer Physics Communications 180, 2175-2196 (2009)
    http://doi.org/10.1016/j.cpc.2009.06.022


  For Hartree-Fock, hybrid functionals, or many-body perturbation theory used in your run, please cite:

    Xinguo Ren, Patrick Rinke, Volker Blum, Juergen Wieferink, Alex Tkatchenko,
    Andrea Sanfilippo, Karsten Reuter, and Matthias Scheffler,
    'Resolution-of-identity approach to Hartree-Fock, hybrid density functionals,
    RPA, MP2, and GW with numeric atom-centered orbital basis functions'
    New Journal of Physics 14, 053020 (2012).
    http://doi.org/10.1088/1367-2630/14/5/053020


  The provided symmetry information was generated with SPGlib:

    Atsushi Togo, Yusuke Seto, Dimitar Pashov
    SPGlib 1.7.3 obtained from http://spglib.sourceforge.net
    Copyright (C) 2008 Atsushi Togo


  The DFPT (perturbation by an electric field) part of the code was used.
  Here is the corresponding reference:

    Honghui Shang, Nathaniel Raimbault, Mariana Rossi,
    Christian Carbogno, Patrick Rinke and Matthias Scheffler,
    'All-Electron, Real-Space Perturbation Theory for Homogeneous
    Electric Fields: Theory, Implementation, and Application within dft'
    New Journal of Physics, 20(7):073040, 2018


  The ELSI infrastructure was used in your run to solve the Kohn-Sham electronic structure.
  Please check out http://elsi-interchange.org to learn more.
  If scalability is important for your project, please acknowledge ELSI by citing:

    V. W-z. Yu, F. Corsetti, A. Garcia, W. P. Huhn, M. Jacquelin, W. Jia,
    B. Lange, L. Lin, J. Lu, W. Mi, A. Seifitokaldani, A. Vazquez-Mayagoitia,
    C. Yang, H. Yang, and V. Blum
    'ELSI: A unified software interface for Kohn-Sham electronic structure solvers'
    Computer Physics Communications 222, 267-285 (2018).
    http://doi.org/10.1016/j.cpc.2017.09.007


  For the real-space grid partitioning and parallelization used in this calculation, please cite:

    Ville Havu, Volker Blum, Paula Havu, and Matthias Scheffler,
    'Efficient O(N) integration for all-electron electronic structure calculation'
    'using numerically tabulated basis functions'
    Journal of Computational Physics 228, 8367-8379 (2009).
    http://doi.org/10.1016/j.jcp.2009.08.008


  The high-level electronic structure method used in your calculation
  employed our efficient localized resolution of identity for the Coulomb operator.
  Some calculations, especially large-scale hybrid density functional theory,
  are only possible thanks to this development. For this feature, please cite:

    Arvid Ihrig, Juergen Wieferink, Igor Ying Zhang, Matti Ropo, Xinguo Ren,
    Patrick Rinke, Matthias Scheffler, and Volker Blum,
    'Accurate localized resolution of identity approach for linear-scaling
    hybrid density functionals and for many-body perturbation theory'
    New Journal of Physics 117, 093020 (2015).
    http://doi.org/10.1088/1367-2630/17/9/093020

  Of course, there are many other important community references, e.g., those cited in the
  above references. Our list is limited to references that describe implementations in the
  FHI-aims code. The reason is purely practical (length of this list) - please credit others as well.

------------------------------------------------------------
          Leaving FHI-aims.
          Date     :  20230221, Time     :  124345.676

          Computational steps:
          | Number of self-consistency cycles          :           45
          | Number of SCF (re)initializations          :            1
          | Number of coupled perturbed self-consistency cycles          :            0
          | Number of CPSCF (re)initializations          :            0

          Detailed time accounting                     :  max(cpu_time)    wall_clock(cpu1)
          | Total time                                  :      531.156 s         548.678 s
          | GPU initialization                          :        2.579 s          16.479 s
          | Preparation time                            :        0.072 s           0.069 s
          | Boundary condition initalization            :        1.274 s           1.274 s
          | Grid partitioning                           :        0.433 s           0.434 s
          | Preloading free-atom quantities on grid     :        2.643 s           2.644 s
          | Free-atom superposition energy              :        0.328 s           0.329 s
          | Total time for integrations                 :       13.603 s          13.790 s
          | Product basis setup: Total time             :        0.000 s           0.000 s
          | Product basis: | 2-center integrations     :(       0.000 s)  (       0.000 s)
          | Product basis: | LVL 3-center & coefficient:(       0.000 s)  (       0.000 s)
          | Total time for solution of K.-S. equations  :        2.397 s           5.028 s
          | Total time for density update               :        9.533 s           9.856 s
          | Total time for mixing & preconditioning     :        8.731 s           8.733 s
          | Total time for Hartree multipole update     :        0.101 s           0.100 s
          | Total time for Hartree multipole sum        :       36.448 s          36.463 s
          | Total time for total energy evaluation      :        0.006 s           0.012 s
          | Total time for DFPT                         :      452.193 s         452.359 s
          | Total time first_order_DM                   :        0.327 s           0.329 s
          | Total time first_order_density              :       97.778 s          97.802 s
          | Total time first_order_potential            :       55.488 s          55.507 s
          | Total time first_order_H                    :      197.900 s         197.970 s
          | Total time solving of Sternheimer equations :        0.192 s           0.191 s
          | Total time for dielectric constant          :        0.000 s           0.000 s
          | Total time momentum matrix                  :        0.000 s           0.000 s

          GPU acceleration has been used for charge density update.
          GPU acceleration has been used for real-space Hamiltonian integration.
          Due to GPU usage, wall_clock(cpu1) will give a more reliable estimate for timings.

          Partial memory accounting:
          | Residual value for overall tracked memory usage across tasks:     0.000000 MB (should be 0.000000 MB)
          | Peak values for overall tracked memory usage:
          |   Minimum:      124.543 MB (on task  0 after allocating DFPT_pulay_mixing::pulay_mix::alphas)
          |   Maximum:      124.543 MB (on task  0 after allocating DFPT_pulay_mixing::pulay_mix::alphas)
          |   Average:      124.543 MB
          | Largest tracked array allocation:
          |   Minimum:       44.438 MB (DFPT_pulay_mixing::initialize_pulay_mixing::X_in_diffs on task  0)
          |   Maximum:       44.438 MB (DFPT_pulay_mixing::initialize_pulay_mixing::X_in_diffs on task  0)
          |   Average:       44.438 MB
          Note:  These values currently only include a subset of arrays which are explicitly tracked.
          The "true" memory usage will be greater.

          Have a nice day.
------------------------------------------------------------
