------------------------------------------------------------
          Invoking FHI-aims ...

          When using FHI-aims, please cite the following reference:

            Volker Blum, Ralf Gehrke, Felix Hanke, Paula Havu,
            Ville Havu, Xinguo Ren, Karsten Reuter, and Matthias Scheffler,
            'Ab Initio Molecular Simulations with Numeric Atom-Centered Orbitals',
            Computer Physics Communications 180, 2175-2196 (2009)

          In addition, many other developments in FHI-aims are likely important for
          your particular application. A partial list of references is given at the end of
          this file. Thank you for giving credit to the authors of these developments.

          For any questions about FHI-aims, please visit our slack channel at

            https://fhi-aims.slack.com

          and our main development and support site at

            https://aims-git.rz-berlin.mpg.de .

          The latter site, in particular, has a wiki to collect information, as well
          as an issue tracker to log discussions, suggest improvements, and report issues
          or bugs. https://aims-git.rz-berlin.mpg.de is also the main development site
          of the project and all new and updated code versions can be obtained there.
          Please send an email to aims-coordinators@fhi-berlin.mpg.de and we will add
          you to these sites. They are for you and everyone is welcome there.

------------------------------------------------------------



  Date     :  20230221, Time     :  131033.041
  Time zero on CPU 1             :   0.536935000000000E+00  s.
  Internal wall clock time zero  :           446217033.041  s.

  FHI-aims created a unique identifier for this run for later identification
  aims_uuid : B12FD85D-B905-4A4D-AE0E-5D1BAD4F5E30

  Build configuration of the current instance of FHI-aims
  -------------------------------------------------------
  FHI-aims version      : 221103
  Commit number         : 42523251a
  CMake host system     : Linux-5.3.18-150300.59.68-default
  CMake version         : 3.17.0
  Fortran compiler      : /mpcdf/soft/SLE_15/packages/x86_64/intel_oneapi/2021.3/mpi/2021.3.0/bin/mpiifort (Intel) version 20.2.3.20210609
  Fortran compiler flags: -O3 -ip -fp-model precise
  C compiler            : /mpcdf/soft/SLE_15/packages/x86_64/intel/2021.3.0/bin/icc (Intel) version 20.2.3.20210609
  C compiler flags      : -O3 -ip -fp-model precise -std=gnu99
  CUDA compiler         : /mpcdf/soft/SLE_15/packages/x86_64/cuda/11.6.2/bin/nvcc
  CUDA compiler flags   : -O3 -DAdd_ -lcublas
  HIP compiler          :
  HIP compiler flags    :
  HIP GPU arch          :
  ELPA2 kernel          : AVX512
  Using MPI
  Using ScaLAPACK
  Using LibXC
  Using CUDA
  Using i-PI
  Using RLSY
  Linking against: /mpcdf/soft/SLE_15/packages/x86_64/cuda/11.6.2/lib64/libcublas.so
                   /mpcdf/soft/SLE_15/packages/x86_64/cuda/11.6.2/lib64/libcudart.so
                   /mpcdf/soft/SLE_15/packages/x86_64/intel_oneapi/2021.3/mkl/latest/lib/intel64/libmkl_intel_lp64.so
                   /mpcdf/soft/SLE_15/packages/x86_64/intel_oneapi/2021.3/mkl/latest/lib/intel64/libmkl_sequential.so
                   /mpcdf/soft/SLE_15/packages/x86_64/intel_oneapi/2021.3/mkl/latest/lib/intel64/libmkl_core.so
                   /mpcdf/soft/SLE_15/packages/x86_64/intel_oneapi/2021.3/mkl/latest/lib/intel64/libmkl_blacs_intelmpi_lp64.so
                   /mpcdf/soft/SLE_15/packages/x86_64/intel_oneapi/2021.3/mkl/latest/lib/intel64/libmkl_scalapack_lp64.so

  Using       18 parallel tasks.
  Task        0 on host adag040 reporting.
  Task        1 on host adag040 reporting.
  Task        2 on host adag040 reporting.
  Task        3 on host adag040 reporting.
  Task        4 on host adag040 reporting.
  Task        5 on host adag040 reporting.
  Task        6 on host adag040 reporting.
  Task        7 on host adag040 reporting.
  Task        8 on host adag040 reporting.
  Task        9 on host adag040 reporting.
  Task       10 on host adag040 reporting.
  Task       11 on host adag040 reporting.
  Task       12 on host adag040 reporting.
  Task       13 on host adag040 reporting.
  Task       14 on host adag040 reporting.
  Task       15 on host adag040 reporting.
  Task       16 on host adag040 reporting.
  Task       17 on host adag040 reporting.

  Obtaining array dimensions for all initial allocations:
  
  -----------------------------------------------------------------------
  Parsing control.in (first pass over file, find array dimensions only).
  The contents of control.in will be repeated verbatim below
  unless switched off by setting 'verbatim_writeout .false.' .
  in the first line of control.in .
  -----------------------------------------------------------------------
  
  #########################################################################################
  #
  #  Volker Blum, 2017 : Test run input file control.in for simple H2O
  #
  #########################################################################################
  #
  #  Physical model
  #
    xc                 pw-lda
    spin               none
    relativistic       none
    charge             0.
  
    use_gpu
  
    DFPT dielectric
    ri_density_restart write
    ri_rho1 write
  #  ri_density_restart read 0
  #  ri_rho1 read
    ri_full_output .true.
    sc_accuracy_rho    1d-6
  #  use_calculate_fock_matrix_old .false.
  #  wave_threshold 1e-8
    k_grid 1 1 1
  #  output cube eigenstate 160
  #  output cube eigenstate 161
    wave_threshold 1e-8
    default_prodbas_acc 1e-6
    default_max_l_prodbas 6
  #
  #  Relaxation
  #
  #  relax_geometry   bfgs 1.e-2
  #
  
  ################################################################################
  
  
  ################################################################################
  #
  #  FHI-aims code project
  #  VB, Fritz-Haber Institut, 2009
  #
  #  Suggested "light" defaults for H atom (to be pasted into control.in file)
  #  Be sure to double-check any results obtained with these settings for post-processing,
  #  e.g., with the "tight" defaults and larger basis sets.
  #
  ################################################################################
    species        H
  #     global species definitions
      nucleus             1
      mass                1.00794
  #
      l_hartree           4
  #
      cut_pot             3.5  1.5  1.0
      basis_dep_cutoff    1e-4
  #
      radial_base         24 5.0
      radial_multiplier   1
      angular_grids       specified
        division   0.2421   50
        division   0.3822  110
        division   0.4799  194
        division   0.5341  302
  #      division   0.5626  434
  #      division   0.5922  590
  #      division   0.6542  770
  #      division   0.6868 1202
  #      outer_grid  770
        outer_grid  302
  ################################################################################
  #
  #  Definition of "minimal" basis
  #
  ################################################################################
  #     valence basis states
      valence      1  s   1.
  #     ion occupancy
      ion_occ      1  s   0.5
  ################################################################################
  #
  #  Suggested additional basis functions. For production calculations,
  #  uncomment them one after another (the most important basis functions are
  #  listed first).
  #
  #  Basis constructed for dimers: 0.5 A, 0.7 A, 1.0 A, 1.5 A, 2.5 A
  #
  ################################################################################
  #  "First tier" - improvements: -1014.90 meV to -62.69 meV
       hydro 2 s 2.1
       hydro 2 p 3.5
  #  "Second tier" - improvements: -12.89 meV to -1.83 meV
  #     hydro 1 s 0.85
  #     hydro 2 p 3.7
  #     hydro 2 s 1.2
  #     hydro 3 d 7
  #  "Third tier" - improvements: -0.25 meV to -0.12 meV
  #     hydro 4 f 11.2
  #     hydro 3 p 4.8
  #     hydro 4 d 9
  #     hydro 3 s 3.2
  ################################################################################
  #
  #  FHI-aims code project
  #  VB, Fritz-Haber Institut, 2009
  #
  #  Suggested "light" defaults for O atom (to be pasted into control.in file)
  #  Be sure to double-check any results obtained with these settings for post-processing,
  #  e.g., with the "tight" defaults and larger basis sets.
  #
  ################################################################################
    species        O
  #     global species definitions
      nucleus             8
      mass                15.9994
  #
      l_hartree           4
  #
      cut_pot             3.5  1.5  1.0
      basis_dep_cutoff    1e-4
  #
      radial_base         36 5.0
      radial_multiplier   1
       angular_grids specified
        division   0.2659   50
        division   0.4451  110
        division   0.6052  194
        division   0.7543  302
  #      division   0.8014  434
  #      division   0.8507  590
  #      division   0.8762  770
  #      division   0.9023  974
  #      division   1.2339 1202
  #      outer_grid 974
        outer_grid 302
  ################################################################################
  #
  #  Definition of "minimal" basis
  #
  ################################################################################
  #     valence basis states
      valence      2  s   2.
      valence      2  p   4.
  #     ion occupancy
      ion_occ      2  s   1.
      ion_occ      2  p   3.
  ################################################################################
  #
  #  Suggested additional basis functions. For production calculations,
  #  uncomment them one after another (the most important basis functions are
  #  listed first).
  #
  #  Constructed for dimers: 1.0 A, 1.208 A, 1.5 A, 2.0 A, 3.0 A
  #
  ################################################################################
  #  "First tier" - improvements: -699.05 meV to -159.38 meV
       hydro 2 p 1.8
       hydro 3 d 7.6
       hydro 3 s 6.4
  #  "Second tier" - improvements: -49.91 meV to -5.39 meV
  #     hydro 4 f 11.6
  #     hydro 3 p 6.2
  #     hydro 3 d 5.6
  #     hydro 5 g 17.6
  #     hydro 1 s 0.75
  #  "Third tier" - improvements: -2.83 meV to -0.50 meV
  #     ionic 2 p auto
  #     hydro 4 f 10.8
  #     hydro 4 d 4.7
  #     hydro 2 s 6.8
  #  "Fourth tier" - improvements: -0.40 meV to -0.12 meV
  #     hydro 3 p 5
  #     hydro 3 s 3.3
  #     hydro 5 g 15.6
  #     hydro 4 f 17.6
  #     hydro 4 d 14
  # Further basis functions - -0.08 meV and below
  #     hydro 3 s 2.1
  #     hydro 4 d 11.6
  #     hydro 3 p 16
  #     hydro 2 s 17.2
  
  -----------------------------------------------------------------------
  Completed first pass over input file control.in .
  -----------------------------------------------------------------------
  
  
  -----------------------------------------------------------------------
  Parsing geometry.in (first pass over file, find array dimensions only).
  The contents of geometry.in will be repeated verbatim below
  unless switched off by setting 'verbatim_writeout .false.' .
  in the first line of geometry.in .
  -----------------------------------------------------------------------
  
  #=======================================================
  # FHI-aims file: /ada/ptmp/mpsd/alewis/bulk_water/qmdata/data/geoms/41.in
  # Created using the Atomic Simulation Environment (ASE)
  # Tue Feb 21 11:23:37 2023
  #=======================================================
  lattice_vector 9.8699899999999996 0.0000000000000000 0.0000000000000000
  lattice_vector 0.0000000000000000 9.8699899999999996 0.0000000000000000
  lattice_vector 0.0000000000000000 0.0000000000000000 9.8699899999999996
  atom 9.2049599999999998 14.9105000000000008 -9.1115200000000005 O
  atom 9.2734100000000002 15.7516999999999996 -8.6097900000000003 H
  atom 8.9513300000000005 15.4690999999999992 -10.0089000000000006 H
  atom 15.1689000000000007 16.1058999999999983 -5.6592200000000004 O
  atom 15.3335000000000008 15.4055000000000000 -6.5299300000000002 H
  atom 14.7246000000000006 16.9128000000000007 -5.9331699999999996 H
  atom 7.0240499999999999 -1.0494800000000000 3.6819600000000001 O
  atom 7.8079000000000001 -1.5131200000000000 3.3380700000000001 H
  atom 6.4791499999999997 -1.5330400000000000 3.2656499999999999 H
  atom -2.9162800000000000 -0.8812700000000000 6.4743199999999996 O
  atom -3.8495300000000001 -1.0496300000000001 6.8459800000000000 H
  atom -3.1139500000000000 -1.1802999999999999 5.5982399999999997 H
  atom -10.5193999999999992 -2.4289000000000001 12.5457000000000001 O
  atom -9.7497600000000002 -1.9556800000000001 12.2874999999999996 H
  atom -10.3786000000000005 -3.2888400000000000 13.0271000000000008 H
  atom 0.6622630000000000 1.5405700000000000 12.6174999999999997 O
  atom -0.1496490000000000 1.5839399999999999 11.8425999999999991 H
  atom 0.0450470000000000 1.5887600000000000 13.4291000000000000 H
  atom 4.7019200000000003 7.4763200000000003 7.7906500000000003 O
  atom 3.9012600000000002 7.5618900000000000 7.2047499999999998 H
  atom 4.6313199999999997 7.0396999999999998 8.6219900000000003 H
  atom 3.4200800000000000 -7.6134300000000001 2.6661999999999999 O
  atom 2.5177399999999999 -7.8140900000000002 2.4266000000000001 H
  atom 3.4855000000000000 -7.3185099999999998 3.6159300000000001 H
  atom 4.0847100000000003 -1.4147099999999999 -6.2868399999999998 O
  atom 4.0341800000000001 -0.7145760000000000 -5.6434899999999999 H
  atom 3.0956600000000001 -1.4240400000000000 -6.6614899999999997 H
  atom 8.3104300000000002 1.3112600000000001 8.3195399999999999 O
  atom 8.1425999999999998 2.1442600000000001 7.7948000000000004 H
  atom 8.3399500000000000 0.4617920000000000 7.8248400000000000 H
  atom 7.3447600000000000 7.9750199999999998 -8.9352000000000000 O
  atom 7.6370600000000000 8.8757800000000007 -9.0273599999999998 H
  atom 7.8985300000000001 7.4753200000000000 -8.3979800000000004 H
  atom -7.7877799999999997 -2.9177100000000000 7.0602600000000004 O
  atom -7.7163399999999998 -2.9300299999999999 8.0121400000000005 H
  atom -8.2299000000000007 -2.0607500000000001 6.8271899999999999 H
  atom -4.8000999999999996 4.5067000000000004 1.8243900000000000 O
  atom -5.4097299999999997 3.8516100000000000 1.8377399999999999 H
  atom -4.0512100000000002 4.1143299999999998 2.1223600000000000 H
  atom -0.8555170000000000 1.0865300000000000 4.9341200000000001 O
  atom -1.4791500000000000 0.5360440000000000 4.4564500000000002 H
  atom -1.2634700000000001 1.7039400000000000 5.4655600000000000 H
  atom -6.2467300000000003 3.9676999999999998 -4.2207400000000002 O
  atom -5.9088000000000003 3.7010600000000000 -3.3585600000000002 H
  atom -5.7374200000000002 4.5913800000000000 -4.7567000000000004 H
  atom 1.0220300000000000 14.4029000000000007 6.7708399999999997 O
  atom 1.4354400000000000 15.3215000000000003 6.7126500000000000 H
  atom 1.6834300000000000 13.8191000000000006 6.2081600000000003 H
  atom -5.7603600000000004 3.3754499999999998 8.2522400000000005 O
  atom -6.1775599999999997 3.7769200000000001 9.0673600000000008 H
  atom -5.9486400000000001 2.5451999999999999 8.4392399999999999 H
  atom -1.5954699999999999 3.2600600000000002 16.3970999999999982 O
  atom -2.2367800000000000 3.7843000000000000 15.9675999999999991 H
  atom -0.7206170000000000 3.6247799999999999 16.3104000000000013 H
  atom 3.5998299999999999 0.6911670000000000 -0.9149240000000000 O
  atom 2.5990700000000002 0.5734330000000000 -0.6447010000000000 H
  atom 4.0390199999999998 0.0493110000000000 -0.5104970000000000 H
  atom -0.0262490000000000 -1.1514700000000000 6.8526699999999998 O
  atom -0.6429890000000000 -1.8984700000000001 7.2664099999999996 H
  atom -0.6150240000000000 -0.5793350000000000 6.2625500000000001 H
  atom 8.5970600000000008 6.5718899999999998 8.4863000000000000 O
  atom 8.1860400000000002 7.2411199999999996 9.0006500000000003 H
  atom 7.7972000000000001 6.2816299999999998 8.1453799999999994 H
  atom 1.6430499999999999 8.8272300000000001 2.1559200000000001 O
  atom 1.2462299999999999 9.6971699999999998 2.1995800000000001 H
  atom 1.5382800000000001 8.6974800000000005 1.2160000000000000 H
  atom 5.0098599999999998 9.9221699999999995 1.4721599999999999 O
  atom 4.5683199999999999 9.5251300000000008 2.2574399999999999 H
  atom 4.4021999999999997 10.8687000000000005 1.3487499999999999 H
  atom 1.4423100000000000 3.7938000000000001 9.6000999999999994 O
  atom 1.4818600000000000 4.1176300000000001 8.6010899999999992 H
  atom 0.5465620000000000 4.1056100000000004 9.9869199999999996 H
  atom 7.5928199999999997 0.9255510000000000 1.0372100000000000 O
  atom 6.5776100000000000 0.7150120000000000 1.3264499999999999 H
  atom 7.6450699999999996 1.1961200000000001 0.0749740000000000 H
  atom 7.7119400000000002 3.6533400000000000 2.6211899999999999 O
  atom 8.2985600000000002 4.0711199999999996 1.9964000000000000 H
  atom 7.6471900000000002 2.7781699999999998 2.2073000000000000 H
  atom 9.5118299999999998 15.4216999999999995 14.2988000000000000 O
  atom 10.1349000000000000 15.3377999999999997 14.9959000000000007 H
  atom 9.5800599999999996 14.4412000000000003 13.9326000000000008 H
  atom 12.1142000000000003 6.5757700000000003 9.8040199999999995 O
  atom 11.9130000000000003 5.6896699999999996 9.9596800000000005 H
  atom 12.9145000000000003 6.8821700000000003 10.2838999999999992 H
  atom 0.8537060000000000 11.0152999999999999 9.5754099999999998 O
  atom 1.1546700000000001 11.8255999999999997 9.4439499999999992 H
  atom -0.0568620000000000 10.8473000000000006 8.9480799999999991 H
  atom 4.5604500000000003 6.9281199999999998 0.8693700000000000 O
  atom 4.8103100000000003 5.9996000000000000 1.2847500000000001 H
  atom 5.5064000000000002 7.2374599999999996 0.7480019999999999 H
  atom 3.8536700000000002 0.4484980000000000 6.0888600000000004 O
  atom 3.0425599999999999 0.4740400000000000 5.9785100000000000 H
  atom 4.0702299999999996 0.4760770000000000 7.0176800000000004 H
  atom 6.3327400000000003 5.6092899999999997 6.6686800000000002 O
  atom 6.1352799999999998 5.8132900000000003 5.7371299999999996 H
  atom 5.7694000000000001 6.1704900000000000 7.2086100000000002 H
  
  -----------------------------------------------------------------------
  Completed first pass over input file geometry.in .
  -----------------------------------------------------------------------
  

  Basic array size parameters:
  | Number of species                 :        2
  | Number of atoms                   :       96
  | Number of lattice vectors         :        3
  | Max. basis fn. angular momentum   :        2
  | Max. atomic/ionic basis occupied n:        2
  | Max. number of basis fn. types    :        2
  | Max. radial fns per species/type  :        3
  | Max. logarithmic grid size        :     1301
  | Max. radial integration grid size :       36
  | Max. angular integration grid size:      302
  | Max. angular grid division number :        8
  | Radial grid for Hartree potential :     1301
  | Number of spin channels           :        1

------------------------------------------------------------
          Reading file control.in.
------------------------------------------------------------
  XC: Using Perdew-Wang parametrisation of Ceperley-Alder LDA.
  Spin treatment: No spin polarisation.
  Non-relativistic treatment of kinetic energy.
  Charge =   0.000000E+00: Neutral system requested explicitly.
  DFPT calculation will begin after the DFT/HF calculation.
  Convergence accuracy of self-consistent charge density:  0.1000E-05
  Found k-point grid:         1         1         1
  Threshold value for wave function integration:  0.1000E-07
 
  Reading configuration options for species H                   .
  | Found nuclear charge :   1.0000
  | Found atomic mass :    1.00794000000000      amu
  | Found l_max for Hartree potential  :   4
  | Found cutoff potl. onset [A], width [A], scale factor :    3.50000    1.50000    1.00000
  | Threshold for basis-dependent cutoff potential is   0.100000E-03
  | Found data for basic radial integration grid :    24 points, outermost radius =    5.000 A
  | Found multiplier for basic radial grid :   1
  | Found angular grid specification: user-specified.
  | Specified grid contains     5 separate shells.
  | Check grid settings after all constraints further below.
  | Found free-atom valence shell :  1 s   1.000
  | No ionic wave fns used. Skipping ion_occ.
  | Found hydrogenic basis function :  2 s   2.100
  | Found hydrogenic basis function :  2 p   3.500
  Species H                   : Missing cutoff potential type.
  Defaulting to exp(1/x)/(1-x)^2 type cutoff potential.
  Species H : No 'logarithmic' tag. Using default grid for free atom:
  | Default logarithmic grid data [bohr] : 0.1000E-03 0.1000E+03 0.1012E+01
  Species H : On-site basis accuracy parameter (for Gram-Schmidt orthonormalisation) not specified.
  Using default value basis_acc =  0.1000000E-03.
  Species H                   : Using default innermost maximum threshold i_radial=  2 for radial functions.
  Species H                   : Default cutoff onset for free atom density etc. : 0.35000000E+01 AA.
  Species H                   : Basic radial grid will be enhanced according to radial_multiplier =   1, to contain    24 grid points.
 
  Reading configuration options for species O                   .
  | Found nuclear charge :   8.0000
  | Found atomic mass :    15.9994000000000      amu
  | Found l_max for Hartree potential  :   4
  | Found cutoff potl. onset [A], width [A], scale factor :    3.50000    1.50000    1.00000
  | Threshold for basis-dependent cutoff potential is   0.100000E-03
  | Found data for basic radial integration grid :    36 points, outermost radius =    5.000 A
  | Found multiplier for basic radial grid :   1
  | Found angular grid specification: user-specified.
  | Specified grid contains     5 separate shells.
  | Check grid settings after all constraints further below.
  | Found free-atom valence shell :  2 s   2.000
  | Found free-atom valence shell :  2 p   4.000
  | No ionic wave fns used. Skipping ion_occ.
  | No ionic wave fns used. Skipping ion_occ.
  | Found hydrogenic basis function :  2 p   1.800
  | Found hydrogenic basis function :  3 d   7.600
  | Found hydrogenic basis function :  3 s   6.400
  Species O                   : Missing cutoff potential type.
  Defaulting to exp(1/x)/(1-x)^2 type cutoff potential.
  Species O : No 'logarithmic' tag. Using default grid for free atom:
  | Default logarithmic grid data [bohr] : 0.1000E-03 0.1000E+03 0.1012E+01
  Species O : On-site basis accuracy parameter (for Gram-Schmidt orthonormalisation) not specified.
  Using default value basis_acc =  0.1000000E-03.
  Species O                   : Using default innermost maximum threshold i_radial=  2 for radial functions.
  Species O                   : Default cutoff onset for free atom density etc. : 0.35000000E+01 AA.
  Species O                   : Basic radial grid will be enhanced according to radial_multiplier =   1, to contain    36 grid points.
 
  Finished reading input file 'control.in'.
 
------------------------------------------------------------


------------------------------------------------------------
          Reading geometry description geometry.in.
------------------------------------------------------------
  | The smallest distance between any two atoms is         0.81898043 AA.
  | The first atom of this pair is atom number                     91 .
  | The second atom of this pair is atom number                    92 .
  | Wigner-Seitz cell of the first atom image           0     0     0 .
  | (The Wigner-Seitz cell of the second atom is 0 0 0  by definition.)

  Symmetry information by spglib:
  | Precision set to  0.1E-04
  | Number of Operations  : 1
  | Space group           : 1
  | International         : P1
  | Schoenflies           : C1^1
  Input structure read successfully.
  The structure contains       96 atoms,  and a total of        320.000 electrons.

  Input geometry:
  | Unit cell:
  |        9.86999000        0.00000000        0.00000000
  |        0.00000000        9.86999000        0.00000000
  |        0.00000000        0.00000000        9.86999000
  | Atomic structure:
  |       Atom                x [A]            y [A]            z [A]
  |    1: Species O             9.20496000       14.91050000       -9.11152000
  |    2: Species H             9.27341000       15.75170000       -8.60979000
  |    3: Species H             8.95133000       15.46910000      -10.00890000
  |    4: Species O            15.16890000       16.10590000       -5.65922000
  |    5: Species H            15.33350000       15.40550000       -6.52993000
  |    6: Species H            14.72460000       16.91280000       -5.93317000
  |    7: Species O             7.02405000       -1.04948000        3.68196000
  |    8: Species H             7.80790000       -1.51312000        3.33807000
  |    9: Species H             6.47915000       -1.53304000        3.26565000
  |   10: Species O            -2.91628000       -0.88127000        6.47432000
  |   11: Species H            -3.84953000       -1.04963000        6.84598000
  |   12: Species H            -3.11395000       -1.18030000        5.59824000
  |   13: Species O           -10.51940000       -2.42890000       12.54570000
  |   14: Species H            -9.74976000       -1.95568000       12.28750000
  |   15: Species H           -10.37860000       -3.28884000       13.02710000
  |   16: Species O             0.66226300        1.54057000       12.61750000
  |   17: Species H            -0.14964900        1.58394000       11.84260000
  |   18: Species H             0.04504700        1.58876000       13.42910000
  |   19: Species O             4.70192000        7.47632000        7.79065000
  |   20: Species H             3.90126000        7.56189000        7.20475000
  |   21: Species H             4.63132000        7.03970000        8.62199000
  |   22: Species O             3.42008000       -7.61343000        2.66620000
  |   23: Species H             2.51774000       -7.81409000        2.42660000
  |   24: Species H             3.48550000       -7.31851000        3.61593000
  |   25: Species O             4.08471000       -1.41471000       -6.28684000
  |   26: Species H             4.03418000       -0.71457600       -5.64349000
  |   27: Species H             3.09566000       -1.42404000       -6.66149000
  |   28: Species O             8.31043000        1.31126000        8.31954000
  |   29: Species H             8.14260000        2.14426000        7.79480000
  |   30: Species H             8.33995000        0.46179200        7.82484000
  |   31: Species O             7.34476000        7.97502000       -8.93520000
  |   32: Species H             7.63706000        8.87578000       -9.02736000
  |   33: Species H             7.89853000        7.47532000       -8.39798000
  |   34: Species O            -7.78778000       -2.91771000        7.06026000
  |   35: Species H            -7.71634000       -2.93003000        8.01214000
  |   36: Species H            -8.22990000       -2.06075000        6.82719000
  |   37: Species O            -4.80010000        4.50670000        1.82439000
  |   38: Species H            -5.40973000        3.85161000        1.83774000
  |   39: Species H            -4.05121000        4.11433000        2.12236000
  |   40: Species O            -0.85551700        1.08653000        4.93412000
  |   41: Species H            -1.47915000        0.53604400        4.45645000
  |   42: Species H            -1.26347000        1.70394000        5.46556000
  |   43: Species O            -6.24673000        3.96770000       -4.22074000
  |   44: Species H            -5.90880000        3.70106000       -3.35856000
  |   45: Species H            -5.73742000        4.59138000       -4.75670000
  |   46: Species O             1.02203000       14.40290000        6.77084000
  |   47: Species H             1.43544000       15.32150000        6.71265000
  |   48: Species H             1.68343000       13.81910000        6.20816000
  |   49: Species O            -5.76036000        3.37545000        8.25224000
  |   50: Species H            -6.17756000        3.77692000        9.06736000
  |   51: Species H            -5.94864000        2.54520000        8.43924000
  |   52: Species O            -1.59547000        3.26006000       16.39710000
  |   53: Species H            -2.23678000        3.78430000       15.96760000
  |   54: Species H            -0.72061700        3.62478000       16.31040000
  |   55: Species O             3.59983000        0.69116700       -0.91492400
  |   56: Species H             2.59907000        0.57343300       -0.64470100
  |   57: Species H             4.03902000        0.04931100       -0.51049700
  |   58: Species O            -0.02624900       -1.15147000        6.85267000
  |   59: Species H            -0.64298900       -1.89847000        7.26641000
  |   60: Species H            -0.61502400       -0.57933500        6.26255000
  |   61: Species O             8.59706000        6.57189000        8.48630000
  |   62: Species H             8.18604000        7.24112000        9.00065000
  |   63: Species H             7.79720000        6.28163000        8.14538000
  |   64: Species O             1.64305000        8.82723000        2.15592000
  |   65: Species H             1.24623000        9.69717000        2.19958000
  |   66: Species H             1.53828000        8.69748000        1.21600000
  |   67: Species O             5.00986000        9.92217000        1.47216000
  |   68: Species H             4.56832000        9.52513000        2.25744000
  |   69: Species H             4.40220000       10.86870000        1.34875000
  |   70: Species O             1.44231000        3.79380000        9.60010000
  |   71: Species H             1.48186000        4.11763000        8.60109000
  |   72: Species H             0.54656200        4.10561000        9.98692000
  |   73: Species O             7.59282000        0.92555100        1.03721000
  |   74: Species H             6.57761000        0.71501200        1.32645000
  |   75: Species H             7.64507000        1.19612000        0.07497400
  |   76: Species O             7.71194000        3.65334000        2.62119000
  |   77: Species H             8.29856000        4.07112000        1.99640000
  |   78: Species H             7.64719000        2.77817000        2.20730000
  |   79: Species O             9.51183000       15.42170000       14.29880000
  |   80: Species H            10.13490000       15.33780000       14.99590000
  |   81: Species H             9.58006000       14.44120000       13.93260000
  |   82: Species O            12.11420000        6.57577000        9.80402000
  |   83: Species H            11.91300000        5.68967000        9.95968000
  |   84: Species H            12.91450000        6.88217000       10.28390000
  |   85: Species O             0.85370600       11.01530000        9.57541000
  |   86: Species H             1.15467000       11.82560000        9.44395000
  |   87: Species H            -0.05686200       10.84730000        8.94808000
  |   88: Species O             4.56045000        6.92812000        0.86937000
  |   89: Species H             4.81031000        5.99960000        1.28475000
  |   90: Species H             5.50640000        7.23746000        0.74800200
  |   91: Species O             3.85367000        0.44849800        6.08886000
  |   92: Species H             3.04256000        0.47404000        5.97851000
  |   93: Species H             4.07023000        0.47607700        7.01768000
  |   94: Species O             6.33274000        5.60929000        6.66868000
  |   95: Species H             6.13528000        5.81329000        5.73713000
  |   96: Species H             5.76940000        6.17049000        7.20861000

  Lattice parameters for 3D lattice (in Angstroms) :     9.869990    9.869990    9.869990
  Angle(s) between unit vectors (in degrees)       :    90.000000   90.000000   90.000000


  Quantities derived from the lattice vectors (in Angstrom^-1):
  | Reciprocal lattice vector 1:  0.636595  0.000000  0.000000
  | Reciprocal lattice vector 2:  0.000000  0.636595  0.000000
  | Reciprocal lattice vector 3:  0.000000  0.000000  0.636595
  | Unit cell volume                               :   0.961502E+03  Angstrom^3

  Fractional coordinates:
                         L1                L2                L3
       atom_frac         0.93262101        1.51069049       -0.92315392  O
       atom_frac         0.93955617        1.59591854       -0.87232003  H
       atom_frac         0.90692392        1.56728629       -1.01407398  H
       atom_frac         1.53687086        1.63180510       -0.57337647  O
       atom_frac         1.55354767        1.56084251       -0.66159439  H
       atom_frac         1.49185561        1.71355797       -0.60113232  H
       atom_frac         0.71165726       -0.10633040        0.37304597  O
       atom_frac         0.79107476       -0.15330512        0.33820399  H
       atom_frac         0.65644950       -0.15532336        0.33086660  H
       atom_frac        -0.29546940       -0.08928783        0.65596014  O
       atom_frac        -0.39002370       -0.10634560        0.69361570  H
       atom_frac        -0.31549677       -0.11958472        0.56719814  H
       atom_frac        -1.06579642       -0.24608941        1.27109551  O
       atom_frac        -0.98781863       -0.19814407        1.24493541  H
       atom_frac        -1.05153095       -0.33321614        1.31986962  H
       atom_frac         0.06709865        0.15608628        1.27837009  O
       atom_frac        -0.01516202        0.16048041        1.19985937  H
       atom_frac         0.00456404        0.16096875        1.36059915  H
       atom_frac         0.47638549        0.75748000        0.78932704  O
       atom_frac         0.39526484        0.76614971        0.72996528  H
       atom_frac         0.46923249        0.71324287        0.87355610  H
       atom_frac         0.34651302       -0.77137160        0.27013199  O
       atom_frac         0.25509043       -0.79170192        0.24585638  H
       atom_frac         0.35314119       -0.74149113        0.36635599  H
       atom_frac         0.41385148       -0.14333449       -0.63696518  O
       atom_frac         0.40873192       -0.07239886       -0.57178275  H
       atom_frac         0.31364368       -0.14427978       -0.67492368  H
       atom_frac         0.84198971        0.13285322        0.84291271  O
       atom_frac         0.82498564        0.21725047        0.78974751  H
       atom_frac         0.84498059        0.04678748        0.79279108  H
       atom_frac         0.74415070        0.80800690       -0.90528967  O
       atom_frac         0.77376573        0.89926940       -0.91462707  H
       atom_frac         0.80025714        0.75737868       -0.85086003  H
       atom_frac        -0.78903626       -0.29561428        0.71532595  O
       atom_frac        -0.78179816       -0.29686251        0.81176779  H
       atom_frac        -0.83383063       -0.20878947        0.69171195  H
       atom_frac        -0.48633281        0.45660634        0.18484213  O
       atom_frac        -0.54809883        0.39023444        0.18619472  H
       atom_frac        -0.41045736        0.41685250        0.21503163  H
       atom_frac        -0.08667861        0.11008420        0.49991135  O
       atom_frac        -0.14986337        0.05431049        0.45151515  H
       atom_frac        -0.12801127        0.17263847        0.55375537  H
       atom_frac        -0.63290135        0.40199635       -0.42763367  O
       atom_frac        -0.59866322        0.37498113       -0.34027998  H
       atom_frac        -0.58129947        0.46518588       -0.48193565  H
       atom_frac         0.10354924        1.45926186        0.68600272  O
       atom_frac         0.14543480        1.55233187        0.68010707  H
       atom_frac         0.17056046        1.40011287        0.62899355  H
       atom_frac        -0.58362369        0.34199123        0.83609406  O
       atom_frac        -0.62589324        0.38266705        0.91867976  H
       atom_frac        -0.60269970        0.25787260        0.85504038  H
       atom_frac        -0.16164859        0.33030023        1.66130867  O
       atom_frac        -0.22662434        0.38341478        1.61779293  H
       atom_frac        -0.07301091        0.36725265        1.65252447  H
       atom_frac         0.36472479        0.07002712       -0.09269756  O
       atom_frac         0.26333056        0.05809864       -0.06531932  H
       atom_frac         0.40922230        0.00499605       -0.05172214  H
       atom_frac        -0.00265948       -0.11666375        0.69429351  O
       atom_frac        -0.06514586       -0.19234771        0.73621250  H
       atom_frac        -0.06231253       -0.05869661        0.63450419  H
       atom_frac         0.87103026        0.66584566        0.85980837  O
       atom_frac         0.82938686        0.73365019        0.91192088  H
       atom_frac         0.78999067        0.63643732        0.82526730  H
       atom_frac         0.16646927        0.89435045        0.21843183  O
       atom_frac         0.12626457        0.98249036        0.22285534  H
       atom_frac         0.15585426        0.88120454        0.12320175  H
       atom_frac         0.50758511        1.00528673        0.14915517  O
       atom_frac         0.46284951        0.96505974        0.22871756  H
       atom_frac         0.44601869        1.10118653        0.13665161  H
       atom_frac         0.14613085        0.38437729        0.97265549  O
       atom_frac         0.15013794        0.41718685        0.87143857  H
       atom_frac         0.05537615        0.41596901        1.01184702  H
       atom_frac         0.76928345        0.09377426        0.10508724  O
       atom_frac         0.66642519        0.07244303        0.13439223  H
       atom_frac         0.77457728        0.12118756        0.00759616  H
       atom_frac         0.78135236        0.37014627        0.26557170  O
       atom_frac         0.84078707        0.41247458        0.20226971  H
       atom_frac         0.77479207        0.28147648        0.22363751  H
       atom_frac         0.96371222        1.56248385        1.44871474  O
       atom_frac         1.02683995        1.55398334        1.51934298  H
       atom_frac         0.97062510        1.46314231        1.41161237  H
       atom_frac         1.22737713        0.66623877        0.99331610  O
       atom_frac         1.20699210        0.57646158        1.00908714  H
       atom_frac         1.30846131        0.69728237        1.04193621  H
       atom_frac         0.08649512        1.11603963        0.97015397  O
       atom_frac         0.11698796        1.19813698        0.95683481  H
       atom_frac        -0.00576110        1.09901834        0.90659464  H
       atom_frac         0.46205214        0.70193789        0.08808216  O
       atom_frac         0.48736726        0.60786282        0.13016731  H
       atom_frac         0.55789317        0.73327937        0.07578549  H
       atom_frac         0.39044315        0.04544057        0.61690640  O
       atom_frac         0.30826374        0.04802842        0.60572604  H
       atom_frac         0.41238441        0.04823480        0.71101187  H
       atom_frac         0.64161565        0.56831770        0.67565215  O
       atom_frac         0.62160955        0.58898641        0.58127009  H
       atom_frac         0.58453960        0.62517693        0.73035636  H

 
  Finished reading input file 'geometry.in'.
 

 
  Consistency checks for stacksize environment parameter are next.
 
  | Maximum stacksize for task 0: unlimited
  | Maximum stacksize for task 1: unlimited
  | Maximum stacksize for task 2: unlimited
  | Maximum stacksize for task 3: unlimited
  | Maximum stacksize for task 4: unlimited
  | Maximum stacksize for task 5: unlimited
  | Maximum stacksize for task 6: unlimited
  | Maximum stacksize for task 7: unlimited
  | Maximum stacksize for task 8: unlimited
  | Maximum stacksize for task 9: unlimited
  | Maximum stacksize for task 10: unlimited
  | Maximum stacksize for task 11: unlimited
  | Maximum stacksize for task 12: unlimited
  | Maximum stacksize for task 13: unlimited
  | Maximum stacksize for task 14: unlimited
  | Maximum stacksize for task 15: unlimited
  | Maximum stacksize for task 16: unlimited
  | Maximum stacksize for task 17: unlimited
  | Current stacksize for task 0: unlimited
  | Current stacksize for task 1: unlimited
  | Current stacksize for task 2: unlimited
  | Current stacksize for task 3: unlimited
  | Current stacksize for task 4: unlimited
  | Current stacksize for task 5: unlimited
  | Current stacksize for task 6: unlimited
  | Current stacksize for task 7: unlimited
  | Current stacksize for task 8: unlimited
  | Current stacksize for task 9: unlimited
  | Current stacksize for task 10: unlimited
  | Current stacksize for task 11: unlimited
  | Current stacksize for task 12: unlimited
  | Current stacksize for task 13: unlimited
  | Current stacksize for task 14: unlimited
  | Current stacksize for task 15: unlimited
  | Current stacksize for task 16: unlimited
  | Current stacksize for task 17: unlimited
 
  Consistency checks for the contents of control.in are next.
 
  MPI_IN_PLACE appears to work with this MPI implementation.
  | Keeping use_mpi_in_place .true. (see manual).
  Explicit treatment of the Coulomb operator is needed, but the RI method is not specified.
  Coulomb operator: Defaulting to 'LVL fast' resolution of identity - RI_type = LVL_fast
  Species H: Using default value for prodbas_acc =   1.000000E-06.
  Species H: Using default value max_l_prodbas =     6.
  Species O: Using default value for prodbas_acc =   1.000000E-06.
  Species O: Using default value max_l_prodbas =     6.
  Target number of points in a grid batch is not set.  Since GPU acceleration is enabled, defaulting to  200
  Method for grid partitioning is not set. Defaulting to parallel hash+maxmin partitioning.
  Batch size limit is not set. Defaulting to    200
  By default, will store active basis functions for each batch.
  If in need of memory, prune_basis_once .false. can be used to disable this option.
  communication_type for Hartree potential was not specified.
  Defaulting to calc_hartree .
  Defaulting to Pulay charge density mixer.
  Pulay mixer: Number of relevant iterations not set.
  Defaulting to    8 iterations.
  Pulay mixer: Number of initial linear mixing iterations not set.
  Defaulting to    0 iterations.
  Work space size for distributed Hartree potential not set.
  Defaulting to   0.200000E+03 MB.
  Mixing parameter for charge density mixing has not been set.
  Using default: charge_mix_param =     0.0500.
  The mixing parameter will be adjusted in iteration number     2 of the first full s.c.f. cycle only.
  Algorithm-dependent basis array size parameters:
  | n_max_pulay                         :        8
  Maximum number of self-consistency iterations not provided.
  Presetting  1000 iterations.
  Presetting      1001 iterations before the initial mixing cycle
  is restarted anyway using the sc_init_iter criterion / keyword.
  Presetting a factor      1.000 between actual scf density residual
  and density convergence criterion sc_accuracy_rho below which sc_init_iter
  takes no effect.
  Calculation of forces was not defined in control.in. No forces will be calculated.
  Geometry relaxation not requested: no relaxation will be performed.
  No accuracy limit for integral partition fn. given. Defaulting to  0.1000E-14.
  No occupation type (smearing scheme) given. Defaulting to Gaussian broadening, width =  0.1000E-01 eV.
  The width will be adjusted in iteration number     2 of the first full s.c.f. cycle only.
  S.C.F. convergence parameters will be adjusted in iteration number     2 of the first full s.c.f. cycle only.
  No accuracy for occupation numbers given. Defaulting to  0.1000E-12.
  No threshold value for occupation numbers given. Defaulting to  0.0000E+00.
  No accuracy for fermi level given. Defaulting to  0.1000E-19.
  Maximum # of iterations to find E_F not set. Defaulting to  200.
  Preferred method for the eigenvalue solver ('KS_method') not specified in 'control.in'.
  Calling BLACS routine to test compilation state
  Since ScaLAPACK support is enabled, defaulting to ELPA (via ELSI).
  Will not use alltoall communication since running on < 1024 CPUs.
  Threshold for basis singularities not set.
  Default threshold for basis singularities:  0.1000E-04
  partition_type (choice of integration weights) for integrals was not specified.
  | Using a version of the partition function of Stratmann and coworkers ('stratmann_sparse').
  | At each grid point, the set of atoms used to build the partition table is smoothly restricted to
  | only those atoms whose free-atom density would be non-zero at that grid point.
  Partitioning for Hartree potential was not defined. Using partition_type for integrals.
  | Adjusted default value of keyword multip_moments_threshold to:       0.10000000E-11
  | This value may affect high angular momentum components of the Hartree potential in periodic systems.
  Angular momentum expansion for Kerker preconditioner not set explicitly.
  | Using default value of   0
  No explicit requirement for turning off preconditioner.
  | By default, it will be turned off when the charge convergence reaches
  | sc_accuracy_rho  =   0.100000E-05
  No special mixing parameter while Kerker preconditioner is on.
  Using default: charge_mix_param =     0.0500.
  Threshold for auxiliary basis singularities not set.
  Default threshold for auxiliary basis singularities:  0.1000E-04
  No q(lm)/r^(l+1) cutoff set for long-range Hartree potential.
  | Using default value of  0.100000E-09 .
  | Verify using the multipole_threshold keyword.
  Defaulting to new monopole extrapolation.
  Density update method: automatic selection selected.
  Using density matrix based charge density update.
  Using density matrix based charge density update.
  Using packed matrix style: index .
  Defaulting to use time-reversal symmetry for k-point grid.
  Charge integration errors on the 3D integration grid will be compensated
  by explicit normalization and distribution of residual charges.
  Use the "compensate_multipole_errors" flag to change this behaviour.
  Default to 1D ("use_logsbt") integrations for auxiliary 2-center integrals.
  Default onset of logarithmic r-grid for SBT is -38.000000000000
  Default onset of logarithmic k-grid for SBT is -25.000000000000
  Default range of logarithmic r- and k-grid for SBT is  45.000000000000
  Default number of logarithmic r- and k-grid for SBT is   4096
  Default of use_2d_corr is to use the efficient 2D distribution where possible
 
  Consistency checks for the contents of geometry.in are next.
 

  Range separation radius for Ewald summation (hartree_convergence_parameter):      2.97804007 bohr.
  Number of empty states per atom not set in control.in .
  | Since you are using a method that relies on the unoccupied spectrum
  | (MP2,GW,RPA et al.), will use the full Hamiltonian size (see below)
  | as the max. possible number of states (occupied plus empty).

  Structure-dependent array size parameters: 
  | Maximum number of distinct radial functions  :        9
  | Maximum number of basis functions            :      768
  | Number of Kohn-Sham states (occupied + empty):      768
------------------------------------------------------------

  Performing system and environment tests:
  | Environment variable OMP_NUM_THREADS correctly set to 1.
  | Checking for ScaLAPACK...
  | Testing pdtran()...
  | All pdtran() tests passed.
CUDA runtime version: 11060
CUDA driver version: 11060
  Initializing GPUs...

  Number of GPUs available to MPI task         0 :   1
  Number of GPUs available to MPI task         1 :   1
  Number of GPUs available to MPI task         2 :   1
  Number of GPUs available to MPI task         3 :   1
  Number of GPUs available to MPI task         4 :   1
  Number of GPUs available to MPI task         5 :   1
  Number of GPUs available to MPI task         6 :   1
  Number of GPUs available to MPI task         7 :   1
  Number of GPUs available to MPI task         8 :   1
  Number of GPUs available to MPI task         9 :   1
  Number of GPUs available to MPI task        10 :   1
  Number of GPUs available to MPI task        11 :   1
  Number of GPUs available to MPI task        12 :   1
  Number of GPUs available to MPI task        13 :   1
  Number of GPUs available to MPI task        14 :   1
  Number of GPUs available to MPI task        15 :   1
  Number of GPUs available to MPI task        16 :   1
  Number of GPUs available to MPI task        17 :   1

  | MPI task         0, GPU activated = T, Device Name = NVIDIA A100-SXM4-80GB
  | MPI task         1, GPU activated = T, Device Name = NVIDIA A100-SXM4-80GB
  | MPI task         2, GPU activated = T, Device Name = NVIDIA A100-SXM4-80GB
  | MPI task         3, GPU activated = T, Device Name = NVIDIA A100-SXM4-80GB
  | MPI task         4, GPU activated = T, Device Name = NVIDIA A100-SXM4-80GB
  | MPI task         5, GPU activated = T, Device Name = NVIDIA A100-SXM4-80GB
  | MPI task         6, GPU activated = T, Device Name = NVIDIA A100-SXM4-80GB
  | MPI task         7, GPU activated = T, Device Name = NVIDIA A100-SXM4-80GB
  | MPI task         8, GPU activated = T, Device Name = NVIDIA A100-SXM4-80GB
  | MPI task         9, GPU activated = T, Device Name = NVIDIA A100-SXM4-80GB
  | MPI task        10, GPU activated = T, Device Name = NVIDIA A100-SXM4-80GB
  | MPI task        11, GPU activated = T, Device Name = NVIDIA A100-SXM4-80GB
  | MPI task        12, GPU activated = T, Device Name = NVIDIA A100-SXM4-80GB
  | MPI task        13, GPU activated = T, Device Name = NVIDIA A100-SXM4-80GB
  | MPI task        14, GPU activated = T, Device Name = NVIDIA A100-SXM4-80GB
  | MPI task        15, GPU activated = T, Device Name = NVIDIA A100-SXM4-80GB
  | MPI task        16, GPU activated = T, Device Name = NVIDIA A100-SXM4-80GB
  | MPI task        17, GPU activated = T, Device Name = NVIDIA A100-SXM4-80GB

------------------------------------------------------------
          Preparing all fixed parts of the calculation.
------------------------------------------------------------
  Determining machine precision:
    2.225073858507201E-308
  Setting up grids for atomic and cluster calculations.

  Creating wave function, potential, and density for free atoms.
  Runtime choices for atomic solver:
  | atomic solver xc        : PW-LDA
  | compute density gradient: 0
  | compute kinetic density : F

  Species: H

  List of occupied orbitals and eigenvalues:
    n    l              occ      energy [Ha]    energy [eV]
    1    0           1.0000        -0.232375        -6.3233


  Species: O

  List of occupied orbitals and eigenvalues:
    n    l              occ      energy [Ha]    energy [eV]
    1    0           2.0000       -18.757744      -510.4242
    2    0           2.0000        -0.870917       -23.6989
    2    1           4.0000        -0.337950        -9.1961


  Adding cutoff potential to free-atom effective potential.
  Creating fixed part of basis set: Ionic, confined, hydrogenic.
 
  H                    hydrogenic:
 
  List of hydrogenic basis orbitals: 
    n    l      effective z      eigenvalue [eV]  inner max. [A]     outer max. [A]     outer radius [A]   
    2    0         2.100000       -14.9728           0.193243           1.317208           4.696947
    2    1         3.500000       -41.6669           0.602369           0.602369           3.862494
 
 
  O                    hydrogenic:
 
  List of hydrogenic basis orbitals: 
    n    l      effective z      eigenvalue [eV]  inner max. [A]     outer max. [A]     outer radius [A]   
    2    1         1.800000       -10.9749           1.164242           1.164242           4.691341
    3    2         7.600000       -87.3180           0.624125           0.624125           3.413946
    3    0         6.400000       -61.9207           0.061167           1.081902           4.151495
 
  Creating atomic-like basis functions for current effective potential.

  Species H                   :

  List of atomic basis orbitals and eigenvalues:
    n    l      energy [Ha]    energy [eV]    outer radius [A]
    1    0        -0.232375        -6.3233       4.696947


  Species O                   :

  List of atomic basis orbitals and eigenvalues:
    n    l      energy [Ha]    energy [eV]    outer radius [A]
    1    0       -18.757744      -510.4242       1.830144
    2    0        -0.870917       -23.6989       4.578029
    2    1        -0.337950        -9.1961       4.634338

  Assembling full basis from fixed parts.
  | Species H :   atomic orbital   1 s accepted.
  | Species H :    hydro orbital   2 s accepted.
  | Species H :    hydro orbital   2 p accepted.
  | Species O :   atomic orbital   1 s accepted.
  | Species O :    hydro orbital   3 s accepted.
  | Species O :   atomic orbital   2 s accepted.
  | Species O :   atomic orbital   2 p accepted.
  | Species O :    hydro orbital   2 p accepted.
  | Species O :    hydro orbital   3 d accepted.
 
  Basis size parameters after reduction:
  | Total number of radial functions:        9
  | Total number of basis functions :      768
 
  Per-task memory consumption for arrays in subroutine allocate_ext:
  |           2.268304MB.
  Testing on-site integration grid accuracy.
  |  Species  Function  <phi|h_atom|phi> (log., in eV)  <phi|h_atom|phi> (rad., in eV)
           1        1                 -6.3245358373                 -6.3232436907
           1        2                 14.1326137532                 14.1384481100
           1        3                 25.3627025200                 25.3628451197
           2        4               -510.4241781764               -510.4240769407
           2        5                 14.9072942213                 14.9072945271
           2        6                -21.2004736474                -21.2005650551
           2        7                 -9.1962086505                 -9.1963509834
           2        8                  8.1896755006                  8.1702200081
           2        9                 45.7920584937                 45.7920228520

  Preparing densities etc. for the partition functions (integrals / Hartree potential).

  Preparations completed.
  max(cpu_time)          :      0.070 s.
  Wall clock time (cpu1) :      0.069 s.
------------------------------------------------------------

  Initializing index lists of integration centers etc. from given atomic structure:
  Mapping all atomic coordinates to central unit cell.

  Initializing the k-points
  Using symmetry for reducing the k-points
  | k-points reduced from:        1 to        1
  | Number of k-points                             :         1
  | Consuming          0 KiB for k_phase_exx.
  The eigenvectors in the calculations are REAL.
  | Number of basis functions in the Hamiltonian integrals :      4371
  | Number of basis functions in a single unit cell        :       768
  | Number of centers in hartree potential         :      2574
  | Number of centers in hartree multipole         :      1905
  | Number of centers in electron density summation:      1493
  | Number of centers in basis integrals           :      1579
  | Number of centers in integrals                 :       698
  | Number of centers in hamiltonian               :      1493
  | Consuming          0 KiB for k_phase.
  | Number of super-cells (origin) [n_cells]                     :         125
  | Number of super-cells (after PM_index) [n_cells]             :          28
  | Number of super-cells in hamiltonian [n_cells_in_hamiltonian]:          28
  | Size of matrix packed + index [n_hamiltonian_matrix_size] :      789609
  | Size of matrix packed + index (no_symmetry):     1578449

------------------------------------------------------------
          Begin self-consistency loop: Initialization.

          Date     :  20230221, Time     :  131047.668
------------------------------------------------------------
  | Estimated reciprocal-space cutoff momentum G_max:         3.17466261 bohr^-1 .
  | Reciprocal lattice points for long-range Hartree potential:    3430
  Using simple linear distribution as default method for k-point parallelism.
  * Using 18 tasks for Scalapack Eigenvalue solver.
  Detailed listing of tasks and assigned k-points:
   Task     0 k-point     1 on adag040
   Task     1 k-point     1 on adag040
   Task     2 k-point     1 on adag040
   Task     3 k-point     1 on adag040
   Task     4 k-point     1 on adag040
   Task     5 k-point     1 on adag040
   Task     6 k-point     1 on adag040
   Task     7 k-point     1 on adag040
   Task     8 k-point     1 on adag040
   Task     9 k-point     1 on adag040
   Task    10 k-point     1 on adag040
   Task    11 k-point     1 on adag040
   Task    12 k-point     1 on adag040
   Task    13 k-point     1 on adag040
   Task    14 k-point     1 on adag040
   Task    15 k-point     1 on adag040
   Task    16 k-point     1 on adag040
   Task    17 k-point     1 on adag040
  K-point:     1 Tasks:    18 split into      6 X      3 BLACS grid
  Calculating block size based on n_basis =          768  max_nprow =            6  max_npcol =            3
  ScaLAPACK block size set to:           16
  Allocating        0.250 MB for ovlp
  Allocating        0.250 MB for ham
  Allocating        0.250 MB for eigenvec
  Required Scalapack workspace - INTEGER:            1  REAL:             1
  Partitioning the integration grid into batches with parallel hashing+maxmin method.
  | Number of batches:     3968
  | Maximal batch size:     196
  | Minimal batch size:     104
  | Average batch size:     128.419
  | Standard deviation of batch sizes:      22.328

  Integration load balanced across    18 MPI tasks.
  Work distribution over tasks is as follows:
  Task     0 has      28260 integration points.
  Task     1 has      28338 integration points.
  Task     2 has      28292 integration points.
  Task     3 has      28321 integration points.
  Task     4 has      28419 integration points.
  Task     5 has      28436 integration points.
  Task     6 has      28330 integration points.
  Task     7 has      28336 integration points.
  Task     8 has      28246 integration points.
  Task     9 has      28263 integration points.
  Task    10 has      28272 integration points.
  Task    11 has      28351 integration points.
  Task    12 has      28241 integration points.
  Task    13 has      28324 integration points.
  Task    14 has      28272 integration points.
  Task    15 has      28290 integration points.
  Task    16 has      28328 integration points.
  Task    17 has      28249 integration points.
  Initializing partition tables, free-atom densities, potentials, etc. across the integration grid (initialize_grid_storage).
  | initialize_grid_storage: Actual outermost partition radius vs. multipole_radius_free
  | (-- VB: in principle, multipole_radius_free should be larger, hence this output)
  | Species        1: Confinement radius =              4.999999999999999 AA, multipole_radius_free =              5.054417573612229 AA.
  | Species        1: outer_partition_radius set to              5.054417573612229 AA .
  | Species        2: Confinement radius =              4.999999999999999 AA, multipole_radius_free =              5.048384829883283 AA.
  | Species        2: outer_partition_radius set to              5.048384829883283 AA .
  | The sparse table of interatomic distances needs       5240.53 kbyte instead of     19945.93 kbyte of memory.
  | Net number of integration points:   509568
  | of which are non-zero points    :   406473
  | Numerical average free-atom electrostatic potential    :     -5.42000820 eV
  Renormalizing the initial density to the exact electron count on the 3D integration grid.
  | Initial density: Formal number of electrons (from input files) :     320.0000000000
  | Integrated number of electrons on 3D grid     :     320.0015319138
  | Charge integration error                      :       0.0015319138
  | Normalization factor for density and gradient :       0.9999952128
  Renormalizing the free-atom superposition density to the exact electron count on the 3D integration grid.
  | Formal number of electrons (from input files) :     320.0000000000
  | Integrated number of electrons on 3D grid     :     320.0015319138
  | Charge integration error                      :       0.0015319138
  | Normalization factor for density and gradient :       0.9999952128
  Obtaining max. number of non-zero basis functions in each batch (get_n_compute_maxes).
  | Maximal number of non-zero basis functions:      446 in task     0
  | Maximal number of non-zero basis functions:      421 in task     1
  | Maximal number of non-zero basis functions:      442 in task     2
  | Maximal number of non-zero basis functions:      427 in task     3
  | Maximal number of non-zero basis functions:      414 in task     4
  | Maximal number of non-zero basis functions:      418 in task     5
  | Maximal number of non-zero basis functions:      425 in task     6
  | Maximal number of non-zero basis functions:      415 in task     7
  | Maximal number of non-zero basis functions:      402 in task     8
  | Maximal number of non-zero basis functions:      418 in task     9
  | Maximal number of non-zero basis functions:      406 in task    10
  | Maximal number of non-zero basis functions:      425 in task    11
  | Maximal number of non-zero basis functions:      429 in task    12
  | Maximal number of non-zero basis functions:      423 in task    13
  | Maximal number of non-zero basis functions:      417 in task    14
  | Maximal number of non-zero basis functions:      404 in task    15
  | Maximal number of non-zero basis functions:      443 in task    16
  | Maximal number of non-zero basis functions:      429 in task    17
  Integrating Hamiltonian matrix: batch-based integration.
  GPU acceleration will be used when integrating the Hamiltonian matrix.
  Reporting GPU memory usage by myid 0.  Note that it is likely not the only MPI task binding to its GPU!
  Allocating        1.591 MB on GPU for hamiltonian_shell
  Allocating        0.699 MB on GPU for wave
  Allocating        0.002 MB on GPU for partition
  Allocating        0.699 MB on GPU for h_times_psi
  Time summed over all CPUs for integration: real work       10.708 s, elapsed       10.956 s
  Deallocating memory used on GPU for Hamiltonian integration.
  Integrating overlap matrix.
  Time summed over all CPUs for integration: real work        9.899 s, elapsed       10.052 s
  Deallocating overlap matrix.

  Updating Kohn-Sham eigenvalues and eigenvectors using ELSI and the ELPA eigensolver.
  Singularity check in k-point 1 (analysis for other k-points may follow below):
  Overlap matrix is not singular
  | Lowest and highest eigenvalues :  0.2319E-02,  0.7376E+01
  Finished singularity check of overlap matrix
  | Time :     0.180 s
  Starting ELPA eigensolver (GPU)
  Finished Cholesky decomposition
  | Time :     0.007 s
  Finished transformation to standard eigenproblem
  | Time :     0.030 s
  Finished solving standard eigenproblem
  | Time :     0.227 s
  Finished back-transformation of eigenvectors
  | Time :     0.032 s

  Obtaining occupation numbers and electronic chemical potential using ELSI.
  | Note that, for insulating systems, the printed 'chemical potential' value is not uniquely defined.
  | It can be anywhere in the energy gap, as long as it correctly separates occupied and unoccupied states.
  | In systems with a gap, the physically relevant chemical potential is the VBM or HOMO.

  | Chemical potential (Fermi level):    -7.79731014 eV
  Writing Kohn-Sham eigenvalues.

  State    Occupation    Eigenvalue [Ha]    Eigenvalue [eV]
      1       2.00000         -18.916301         -514.73874
      2       2.00000         -18.913274         -514.65638
      3       2.00000         -18.906961         -514.48459
      4       2.00000         -18.895939         -514.18466
      5       2.00000         -18.891791         -514.07179
      6       2.00000         -18.890374         -514.03322
      7       2.00000         -18.888314         -513.97716
      8       2.00000         -18.887969         -513.96779
      9       2.00000         -18.883257         -513.83957
     10       2.00000         -18.881263         -513.78530
     11       2.00000         -18.881172         -513.78284
     12       2.00000         -18.878474         -513.70941
     13       2.00000         -18.875206         -513.62050
     14       2.00000         -18.875090         -513.61734
     15       2.00000         -18.874687         -513.60636
     16       2.00000         -18.873094         -513.56303
     17       2.00000         -18.872923         -513.55837
     18       2.00000         -18.871973         -513.53250
     19       2.00000         -18.869801         -513.47342
     20       2.00000         -18.869608         -513.46815
     21       2.00000         -18.867671         -513.41544
     22       2.00000         -18.866755         -513.39053
     23       2.00000         -18.866542         -513.38474
     24       2.00000         -18.856957         -513.12391
     25       2.00000         -18.855688         -513.08937
     26       2.00000         -18.853222         -513.02226
     27       2.00000         -18.850897         -512.95901
     28       2.00000         -18.849495         -512.92086
     29       2.00000         -18.849428         -512.91903
     30       2.00000         -18.848559         -512.89540
     31       2.00000         -18.846871         -512.84944
     32       2.00000         -18.840135         -512.66617
     33       2.00000          -1.169742          -31.83030
     34       2.00000          -1.168609          -31.79947
     35       2.00000          -1.167015          -31.75610
     36       2.00000          -1.151212          -31.32607
     37       2.00000          -1.140763          -31.04173
     38       2.00000          -1.129997          -30.74879
     39       2.00000          -1.127988          -30.69410
     40       2.00000          -1.123180          -30.56329
     41       2.00000          -1.120385          -30.48722
     42       2.00000          -1.119973          -30.47602
     43       2.00000          -1.118051          -30.42371
     44       2.00000          -1.110717          -30.22415
     45       2.00000          -1.108930          -30.17552
     46       2.00000          -1.106300          -30.10396
     47       2.00000          -1.105719          -30.08816
     48       2.00000          -1.104101          -30.04411
     49       2.00000          -1.097654          -29.86869
     50       2.00000          -1.096410          -29.83484
     51       2.00000          -1.095216          -29.80235
     52       2.00000          -1.093463          -29.75466
     53       2.00000          -1.092384          -29.72529
     54       2.00000          -1.092265          -29.72205
     55       2.00000          -1.088937          -29.63149
     56       2.00000          -1.080274          -29.39576
     57       2.00000          -1.074946          -29.25077
     58       2.00000          -1.068858          -29.08511
     59       2.00000          -1.063374          -28.93588
     60       2.00000          -1.060156          -28.84832
     61       2.00000          -1.059722          -28.83651
     62       2.00000          -1.057044          -28.76363
     63       2.00000          -1.052138          -28.63012
     64       2.00000          -1.046684          -28.48172
     65       2.00000          -0.714646          -19.44650
     66       2.00000          -0.703754          -19.15013
     67       2.00000          -0.690586          -18.79179
     68       2.00000          -0.688403          -18.73240
     69       2.00000          -0.682496          -18.57165
     70       2.00000          -0.680841          -18.52662
     71       2.00000          -0.679389          -18.48711
     72       2.00000          -0.674340          -18.34973
     73       2.00000          -0.673278          -18.32082
     74       2.00000          -0.671513          -18.27280
     75       2.00000          -0.665315          -18.10415
     76       2.00000          -0.661743          -18.00694
     77       2.00000          -0.658540          -17.91979
     78       2.00000          -0.654468          -17.80897
     79       2.00000          -0.652036          -17.74280
     80       2.00000          -0.651045          -17.71584
     81       2.00000          -0.650330          -17.69638
     82       2.00000          -0.642664          -17.48779
     83       2.00000          -0.642304          -17.47798
     84       2.00000          -0.641309          -17.45089
     85       2.00000          -0.630265          -17.15040
     86       2.00000          -0.628263          -17.09589
     87       2.00000          -0.625013          -17.00748
     88       2.00000          -0.623583          -16.96857
     89       2.00000          -0.622935          -16.95092
     90       2.00000          -0.620971          -16.89747
     91       2.00000          -0.619272          -16.85124
     92       2.00000          -0.612731          -16.67327
     93       2.00000          -0.611517          -16.64022
     94       2.00000          -0.598284          -16.28014
     95       2.00000          -0.596250          -16.22479
     96       2.00000          -0.586364          -15.95578
     97       2.00000          -0.578513          -15.74215
     98       2.00000          -0.573073          -15.59412
     99       2.00000          -0.566331          -15.41065
    100       2.00000          -0.559592          -15.22726
    101       2.00000          -0.557616          -15.17350
    102       2.00000          -0.554273          -15.08253
    103       2.00000          -0.550604          -14.98270
    104       2.00000          -0.547907          -14.90931
    105       2.00000          -0.547011          -14.88492
    106       2.00000          -0.545195          -14.83552
    107       2.00000          -0.543296          -14.78383
    108       2.00000          -0.537679          -14.63099
    109       2.00000          -0.536280          -14.59292
    110       2.00000          -0.534345          -14.54028
    111       2.00000          -0.532367          -14.48643
    112       2.00000          -0.530616          -14.43880
    113       2.00000          -0.529166          -14.39933
    114       2.00000          -0.526401          -14.32410
    115       2.00000          -0.523743          -14.25178
    116       2.00000          -0.520608          -14.16647
    117       2.00000          -0.516067          -14.04290
    118       2.00000          -0.515509          -14.02771
    119       2.00000          -0.511888          -13.92918
    120       2.00000          -0.508345          -13.83277
    121       2.00000          -0.506061          -13.77063
    122       2.00000          -0.505804          -13.76364
    123       2.00000          -0.500928          -13.63095
    124       2.00000          -0.499219          -13.58444
    125       2.00000          -0.498537          -13.56588
    126       2.00000          -0.494400          -13.45330
    127       2.00000          -0.491278          -13.36835
    128       2.00000          -0.487101          -13.25470
    129       2.00000          -0.484463          -13.18291
    130       2.00000          -0.481677          -13.10709
    131       2.00000          -0.478804          -13.02892
    132       2.00000          -0.475144          -12.92933
    133       2.00000          -0.472199          -12.84920
    134       2.00000          -0.470878          -12.81323
    135       2.00000          -0.469930          -12.78744
    136       2.00000          -0.468414          -12.74618
    137       2.00000          -0.467770          -12.72866
    138       2.00000          -0.466436          -12.69236
    139       2.00000          -0.465850          -12.67643
    140       2.00000          -0.463545          -12.61371
    141       2.00000          -0.460992          -12.54422
    142       2.00000          -0.460762          -12.53798
    143       2.00000          -0.458286          -12.47060
    144       2.00000          -0.456904          -12.43298
    145       2.00000          -0.456686          -12.42705
    146       2.00000          -0.455760          -12.40186
    147       2.00000          -0.454769          -12.37489
    148       2.00000          -0.453113          -12.32983
    149       2.00000          -0.452672          -12.31784
    150       2.00000          -0.452146          -12.30351
    151       2.00000          -0.449476          -12.23086
    152       2.00000          -0.445855          -12.13233
    153       2.00000          -0.444879          -12.10577
    154       2.00000          -0.444036          -12.08283
    155       2.00000          -0.441995          -12.02729
    156       2.00000          -0.438626          -11.93563
    157       2.00000          -0.437704          -11.91052
    158       2.00000          -0.436290          -11.87205
    159       2.00000          -0.435301          -11.84514
    160       2.00000          -0.432491          -11.76868
    161       0.00000          -0.172979           -4.70699
    162       0.00000          -0.116060           -3.15815
    163       0.00000          -0.114292           -3.11006
    164       0.00000          -0.109345           -2.97544
    165       0.00000          -0.106518           -2.89849
    166       0.00000          -0.101149           -2.75241
    167       0.00000          -0.091639           -2.49363
    168       0.00000          -0.072134           -1.96288
    169       0.00000          -0.066668           -1.81412
    170       0.00000          -0.062367           -1.69709
    171       0.00000          -0.061753           -1.68040
    172       0.00000          -0.055700           -1.51566
    173       0.00000          -0.052818           -1.43726
    174       0.00000          -0.049043           -1.33452
    175       0.00000          -0.042852           -1.16608
    176       0.00000          -0.039131           -1.06480
    177       0.00000          -0.037240           -1.01336
    178       0.00000          -0.032127           -0.87421
    179       0.00000          -0.026880           -0.73145
    180       0.00000          -0.020465           -0.55689
    181       0.00000          -0.006733           -0.18321
    182       0.00000          -0.004063           -0.11056
    183       0.00000           0.000407            0.01106
    184       0.00000           0.006254            0.17018
    185       0.00000           0.013554            0.36882
    186       0.00000           0.017113            0.46566
    187       0.00000           0.020714            0.56366
    188       0.00000           0.024153            0.65723
    189       0.00000           0.030304            0.82462
    190       0.00000           0.030570            0.83185
    191       0.00000           0.036708            0.99887
    192       0.00000           0.038439            1.04599
    193       0.00000           0.038935            1.05946
    194       0.00000           0.048684            1.32475
    195       0.00000           0.049960            1.35947
    196       0.00000           0.053985            1.46899
    197       0.00000           0.056575            1.53947
    198       0.00000           0.062023            1.68773
    199       0.00000           0.064883            1.76557
    200       0.00000           0.066017            1.79640
    201       0.00000           0.066639            1.81335
    202       0.00000           0.068365            1.86030
    203       0.00000           0.072272            1.96662
    204       0.00000           0.076952            2.09398
    205       0.00000           0.080444            2.18900
    206       0.00000           0.082265            2.23854
    207       0.00000           0.083553            2.27360
    208       0.00000           0.084246            2.29245
    209       0.00000           0.089429            2.43349
    210       0.00000           0.091797            2.49793
    211       0.00000           0.094084            2.56016
    212       0.00000           0.095401            2.59600
    213       0.00000           0.098191            2.67192
    214       0.00000           0.098485            2.67992
    215       0.00000           0.105736            2.87721
    216       0.00000           0.105833            2.87985
    217       0.00000           0.110804            3.01513
    218       0.00000           0.112511            3.06157
    219       0.00000           0.114057            3.10364
    220       0.00000           0.120286            3.27316
    221       0.00000           0.123138            3.35076
    222       0.00000           0.127194            3.46111
    223       0.00000           0.132879            3.61583
    224       0.00000           0.135600            3.68986
    225       0.00000           0.142613            3.88069
    226       0.00000           0.147713            4.01948
    227       0.00000           0.149581            4.07032
    228       0.00000           0.156460            4.25751
    229       0.00000           0.162866            4.43182
    230       0.00000           0.167214            4.55013
    231       0.00000           0.170638            4.64330
    232       0.00000           0.179221            4.87685
    233       0.00000           0.186811            5.08338
    234       0.00000           0.193832            5.27444
    235       0.00000           0.198096            5.39046
    236       0.00000           0.208325            5.66882
    237       0.00000           0.213560            5.81127
    238       0.00000           0.216485            5.89086
    239       0.00000           0.221675            6.03208
    240       0.00000           0.224133            6.09898
    241       0.00000           0.228925            6.22936
    242       0.00000           0.236146            6.42586
    243       0.00000           0.241996            6.58506
    244       0.00000           0.246646            6.71157
    245       0.00000           0.249521            6.78981
    246       0.00000           0.253282            6.89216
    247       0.00000           0.256655            6.98395
    248       0.00000           0.265137            7.21476
    249       0.00000           0.276842            7.53325
    250       0.00000           0.279388            7.60254
    251       0.00000           0.287551            7.82466
    252       0.00000           0.293362            7.98279
    253       0.00000           0.296424            8.06610
    254       0.00000           0.313850            8.54029
    255       0.00000           0.315174            8.57631
    256       0.00000           0.320007            8.70784
    257       0.00000           0.329192            8.95776
    258       0.00000           0.333186            9.06645
    259       0.00000           0.335974            9.14232
    260       0.00000           0.342443            9.31835
    261       0.00000           0.356995            9.71432
[...]
  |    H      0     4.527807 A      4.527807 A        1.268855E-16 a.u.
  |    H      0     4.527807 A      4.583499 A       -4.900954E-17 a.u.
  |    H      0     4.527807 A      4.583499 A        4.713786E-16 a.u.
  |    H      2     3.678162 A  2.180220E+05 A            0.556529 a.u.
  |    H      1     3.958095 A  1.721251E+08 A            0.841931 a.u.
  |    H      0     4.527807 A  3.866455E+16 A            0.581436 a.u.
  |    O      0     2.043000 A      2.043000 A       -1.436841E-16 a.u.
  |    O      3     3.498446 A      3.498446 A        3.043453E-17 a.u.
  |    O      3     3.498446 A      3.498446 A        1.541443E-16 a.u.
  |    O      0     3.905335 A      3.905335 A        2.173090E-16 a.u.
  |    O      0     3.905335 A      3.905335 A        7.213445E-17 a.u.
  |    O      0     4.101052 A      4.101052 A        2.361718E-16 a.u.
  |    O      1     4.101052 A      4.101052 A        3.235185E-17 a.u.
  |    O      0     4.359549 A      4.359549 A       -5.329475E-17 a.u.
  |    O      1     4.413171 A      4.413171 A        3.261883E-17 a.u.
  |    O      1     4.522403 A      4.522403 A        6.417997E-16 a.u.
  |    O      1     4.522403 A      4.522403 A        4.224783E-16 a.u.
  |    O      2     4.522403 A      4.522403 A       -4.387647E-16 a.u.
  |    O      0     4.522403 A      4.578029 A        2.602039E-16 a.u.
  |    O      0     4.578029 A      4.578029 A        1.226235E-16 a.u.
  |    O      1     4.578029 A      4.578029 A       -6.107316E-16 a.u.
  |    O      1     4.578029 A      4.578029 A       -2.224438E-16 a.u.
  |    O      2     4.578029 A      4.578029 A       -7.020279E-16 a.u.
  |    O      2     4.522403 A      4.578029 A        1.323470E-15 a.u.
  |    O      2     4.578029 A      4.578029 A        7.923696E-16 a.u.
  |    O      2     4.522403 A      4.578029 A       -9.951815E-16 a.u.
  |    O      0     4.578029 A      4.634338 A       -8.813582E-18 a.u.
  |    O      1     4.578029 A      4.634338 A       -3.325386E-17 a.u.
  |    O      1     4.634338 A      4.634338 A        9.588032E-16 a.u.
  |    O      2     4.578029 A      4.634338 A        1.064715E-17 a.u.
  |    O      2     4.578029 A      4.634338 A       -3.770343E-15 a.u.
  |    O      4     3.251020 A  1.511584E+03 A            1.513372 a.u.
  |    O      3     3.541477 A  1.434166E+04 A            4.293220 a.u.
  |    O      2     4.634338 A  5.584435E+05 A            9.352428 a.u.
  |    O      1     4.634338 A  2.821283E+08 A            2.261940 a.u.
  |    O      0     4.578029 A  4.264100E+16 A            0.641234 a.u.

  | Shrink_full_auxil_basis : there are       38  radial auxiliary wave functions
                            accepted and       5 rejected.
  | Shrink_full_auxil_basis : there are totally                4544 partial auxiliary wave functions.
 
  | Maximal number of product basis functions per thread :   256   256
 
  | Minimal total memory requirement for three-center overlap :      10.450 Gbs
  | Number of local auxiliary basis functions on task:      0   256
  | Number of local auxiliary basis functions on task:      1   256
  | Number of local auxiliary basis functions on task:      2   256
  | Number of local auxiliary basis functions on task:      3   256
  | Number of local auxiliary basis functions on task:      4   256
  | Number of local auxiliary basis functions on task:      5   256
  | Number of local auxiliary basis functions on task:      6   256
  | Number of local auxiliary basis functions on task:      7   256
  | Number of local auxiliary basis functions on task:      8   256
  | Number of local auxiliary basis functions on task:      9   256
  | Number of local auxiliary basis functions on task:     10   256
  | Number of local auxiliary basis functions on task:     11   256
  | Number of local auxiliary basis functions on task:     12   256
  | Number of local auxiliary basis functions on task:     13   256
  | Number of local auxiliary basis functions on task:     14   240
  | Number of local auxiliary basis functions on task:     15   240
  | Number of local auxiliary basis functions on task:     16   240
  | Number of local auxiliary basis functions on task:     17   240
  | 2D aux task distribution:      3 X      6
  | 2D block size (nb_aux_2d):     64
 
  Basis pair condensation :    295296  -->     228470
 
 --------------------------------------------
  Constructing auxiliary basis (full product) ...
 
  Product basis:
  | charge radius: extent of product basis function
  | field radius: extent of its Coulomb potential
  | Species   l  charge radius    field radius  multipol momen
  |    H      1     3.910002 A      3.910002 A       -2.487223E-16 a.u.
  |    H      1     3.958095 A      3.958095 A       -2.441841E-16 a.u.
  |    H      0     4.527807 A      4.527807 A        1.268855E-16 a.u.
  |    H      0     4.527807 A      4.583499 A       -4.900954E-17 a.u.
  |    H      0     4.527807 A      4.583499 A        4.713786E-16 a.u.
  |    H      2     3.678162 A  2.180220E+05 A            0.556529 a.u.
  |    H      1     3.958095 A  1.721251E+08 A            0.841931 a.u.
  |    H      0     4.527807 A  3.866455E+16 A            0.581436 a.u.
  |    O      0     2.043000 A      2.043000 A       -1.436841E-16 a.u.
  |    O      3     3.498446 A      3.498446 A        3.043453E-17 a.u.
  |    O      3     3.498446 A      3.498446 A        1.541443E-16 a.u.
  |    O      0     3.905335 A      3.905335 A        2.173090E-16 a.u.
  |    O      0     3.905335 A      3.905335 A        7.213445E-17 a.u.
  |    O      0     4.101052 A      4.101052 A        2.361718E-16 a.u.
  |    O      1     4.101052 A      4.101052 A        3.235185E-17 a.u.
  |    O      0     4.359549 A      4.359549 A       -5.329475E-17 a.u.
  |    O      1     4.413171 A      4.413171 A        3.261883E-17 a.u.
  |    O      1     4.522403 A      4.522403 A        6.417997E-16 a.u.
  |    O      1     4.522403 A      4.522403 A        4.224783E-16 a.u.
  |    O      2     4.522403 A      4.522403 A       -4.387647E-16 a.u.
  |    O      0     4.522403 A      4.578029 A        2.602039E-16 a.u.
  |    O      0     4.578029 A      4.578029 A        1.226235E-16 a.u.
  |    O      1     4.578029 A      4.578029 A       -6.107316E-16 a.u.
  |    O      1     4.578029 A      4.578029 A       -2.224438E-16 a.u.
  |    O      2     4.578029 A      4.578029 A       -7.020279E-16 a.u.
  |    O      2     4.522403 A      4.578029 A        1.323470E-15 a.u.
  |    O      2     4.578029 A      4.578029 A        7.923696E-16 a.u.
  |    O      2     4.522403 A      4.578029 A       -9.951815E-16 a.u.
  |    O      0     4.578029 A      4.634338 A       -8.813582E-18 a.u.
  |    O      1     4.578029 A      4.634338 A       -3.325386E-17 a.u.
  |    O      1     4.634338 A      4.634338 A        9.588032E-16 a.u.
  |    O      2     4.578029 A      4.634338 A        1.064715E-17 a.u.
  |    O      2     4.578029 A      4.634338 A       -3.770343E-15 a.u.
  |    O      4     3.251020 A  1.511584E+03 A            1.513372 a.u.
  |    O      3     3.541477 A  1.434166E+04 A            4.293220 a.u.
  |    O      2     4.634338 A  5.584435E+05 A            9.352428 a.u.
  |    O      1     4.634338 A  2.821283E+08 A            2.261940 a.u.
  |    O      0     4.578029 A  4.264100E+16 A            0.641234 a.u.

  | Shrink_full_auxil_basis : there are       38  radial auxiliary wave functions
                            accepted and       5 rejected.
  | Shrink_full_auxil_basis : there are totally                4544 partial auxiliary wave functions.
 
  | Maximal number of product basis functions per thread :   256   256
 
  | Minimal total memory requirement for three-center overlap :      10.450 Gbs
  | Number of local auxiliary basis functions on task:      0   256
  | Number of local auxiliary basis functions on task:      1   256
  | Number of local auxiliary basis functions on task:      2   256
  | Number of local auxiliary basis functions on task:      3   256
  | Number of local auxiliary basis functions on task:      4   256
  | Number of local auxiliary basis functions on task:      5   256
  | Number of local auxiliary basis functions on task:      6   256
  | Number of local auxiliary basis functions on task:      7   256
  | Number of local auxiliary basis functions on task:      8   256
  | Number of local auxiliary basis functions on task:      9   256
  | Number of local auxiliary basis functions on task:     10   256
  | Number of local auxiliary basis functions on task:     11   256
  | Number of local auxiliary basis functions on task:     12   256
  | Number of local auxiliary basis functions on task:     13   256
  | Number of local auxiliary basis functions on task:     14   240
  | Number of local auxiliary basis functions on task:     15   240
  | Number of local auxiliary basis functions on task:     16   240
  | Number of local auxiliary basis functions on task:     17   240
  | 2D aux task distribution:      3 X      6
  | 2D block size (nb_aux_2d):     64
 
  Basis pair condensation :    295296  -->     228470
dP_dE (Bohr^3) at every cycle:--->
 (353.216908627725,0.000000000000000E+000) (-1.49850920882834,0.000000000000000E+000) (2.31694699139020,0.000000000000000E+000)
 (-1.49922299265281,0.000000000000000E+000) (351.063145924891,0.000000000000000E+000) (-2.77315180593604,0.000000000000000E+000)
 (2.32308167965464,0.000000000000000E+000) (-2.78665624112393,0.000000000000000E+000) (362.117155414906,0.000000000000000E+000)
DFPT polarizability (Bohr^3)        xx        yy        zz        xy        xz        yz
  | Polarizability:--->                       353.216908628                  351.063145925                  362.117155415                   -1.498509209                    2.316946991                   -2.773151806

DFPT for dielectric_constant:--->  # PARSE DFPT_dielectric_tensor
               1.684076400053064            -0.002902167931326             0.004487239195716
              -0.002903550318911             1.679905200429445            -0.005370772626870
               0.004499120267547            -0.005396926712879             1.701313538573450

                                               :  max(cpu_time)    wall_clock(cpu1)
  | Time for  dielectric calculation            :        0.000 s           0.000 s
===========================================================================

------------------------------------------------------------------------------
  Final output of selected total energy values:

  The following output summarizes some interesting total energy values
  at the end of a run (AFTER all relaxation, molecular dynamics, etc.).

  | Total energy of the DFT / Hartree-Fock s.c.f. calculation      :         -66112.129260184 eV
  | Final zero-broadening corrected energy (caution - metals only) :         -66112.129260184 eV
  | For reference only, the value of 1 Hartree used in FHI-aims is :             27.211384500 eV
  | For reference only, the overall average (free atom contribution
  | + realspace contribution) of the electrostatic potential after
  | s.c.f. convergence is                                          :             -4.989859014 eV

  Before relying on these values, please be sure to understand exactly which
  total energy value is referred to by a given number. Different objects may
  all carry the same name 'total energy'. Definitions:

  Total energy of the DFT / Hartree-Fock s.c.f. calculation:
  | Note that this energy does not include ANY quantities calculated after the
  | s.c.f. cycle, in particular not ANY RPA, MP2, etc. many-body perturbation terms.

  Final zero-broadening corrected energy:
  | For metallic systems only, a broadening of the occupation numbers at the Fermi
  | level can be extrapolated back to zero broadening by an electron-gas inspired
  | formula. For all systems that are not real metals, this value can be
  | meaningless and should be avoided.

------------------------------------------------------------------------------
  Methods described in the following list of references were used in this FHI-aims run.
  If you publish the results, please make sure to cite these reference if they apply.
  FHI-aims is an academic code, and for our developers (often, Ph.D. students
  and postdocs), scientific credit in the community is essential.
  Thank you for helping us!

  For any use of FHI-aims, please cite:

    Volker Blum, Ralf Gehrke, Felix Hanke, Paula Havu, Ville Havu,
    Xinguo Ren, Karsten Reuter, and Matthias Scheffler
    'Ab initio molecular simulations with numeric atom-centered orbitals'
    Computer Physics Communications 180, 2175-2196 (2009)
    http://doi.org/10.1016/j.cpc.2009.06.022


  For Hartree-Fock, hybrid functionals, or many-body perturbation theory used in your run, please cite:

    Xinguo Ren, Patrick Rinke, Volker Blum, Juergen Wieferink, Alex Tkatchenko,
    Andrea Sanfilippo, Karsten Reuter, and Matthias Scheffler,
    'Resolution-of-identity approach to Hartree-Fock, hybrid density functionals,
    RPA, MP2, and GW with numeric atom-centered orbital basis functions'
    New Journal of Physics 14, 053020 (2012).
    http://doi.org/10.1088/1367-2630/14/5/053020


  The provided symmetry information was generated with SPGlib:

    Atsushi Togo, Yusuke Seto, Dimitar Pashov
    SPGlib 1.7.3 obtained from http://spglib.sourceforge.net
    Copyright (C) 2008 Atsushi Togo


  The DFPT (perturbation by an electric field) part of the code was used.
  Here is the corresponding reference:

    Honghui Shang, Nathaniel Raimbault, Mariana Rossi,
    Christian Carbogno, Patrick Rinke and Matthias Scheffler,
    'All-Electron, Real-Space Perturbation Theory for Homogeneous
    Electric Fields: Theory, Implementation, and Application within dft'
    New Journal of Physics, 20(7):073040, 2018


  The ELSI infrastructure was used in your run to solve the Kohn-Sham electronic structure.
  Please check out http://elsi-interchange.org to learn more.
  If scalability is important for your project, please acknowledge ELSI by citing:

    V. W-z. Yu, F. Corsetti, A. Garcia, W. P. Huhn, M. Jacquelin, W. Jia,
    B. Lange, L. Lin, J. Lu, W. Mi, A. Seifitokaldani, A. Vazquez-Mayagoitia,
    C. Yang, H. Yang, and V. Blum
    'ELSI: A unified software interface for Kohn-Sham electronic structure solvers'
    Computer Physics Communications 222, 267-285 (2018).
    http://doi.org/10.1016/j.cpc.2017.09.007


  For the real-space grid partitioning and parallelization used in this calculation, please cite:

    Ville Havu, Volker Blum, Paula Havu, and Matthias Scheffler,
    'Efficient O(N) integration for all-electron electronic structure calculation'
    'using numerically tabulated basis functions'
    Journal of Computational Physics 228, 8367-8379 (2009).
    http://doi.org/10.1016/j.jcp.2009.08.008


  The high-level electronic structure method used in your calculation
  employed our efficient localized resolution of identity for the Coulomb operator.
  Some calculations, especially large-scale hybrid density functional theory,
  are only possible thanks to this development. For this feature, please cite:

    Arvid Ihrig, Juergen Wieferink, Igor Ying Zhang, Matti Ropo, Xinguo Ren,
    Patrick Rinke, Matthias Scheffler, and Volker Blum,
    'Accurate localized resolution of identity approach for linear-scaling
    hybrid density functionals and for many-body perturbation theory'
    New Journal of Physics 117, 093020 (2015).
    http://doi.org/10.1088/1367-2630/17/9/093020

  Of course, there are many other important community references, e.g., those cited in the
  above references. Our list is limited to references that describe implementations in the
  FHI-aims code. The reason is purely practical (length of this list) - please credit others as well.

------------------------------------------------------------
          Leaving FHI-aims.
          Date     :  20230221, Time     :  131855.230

          Computational steps:
          | Number of self-consistency cycles          :           45
          | Number of SCF (re)initializations          :            1
          | Number of coupled perturbed self-consistency cycles          :            0
          | Number of CPSCF (re)initializations          :            0

          Detailed time accounting                     :  max(cpu_time)    wall_clock(cpu1)
          | Total time                                  :      485.207 s         502.189 s
          | GPU initialization                          :        1.770 s          13.198 s
          | Preparation time                            :        0.070 s           0.069 s
          | Boundary condition initalization            :        1.231 s           1.232 s
          | Grid partitioning                           :        0.415 s           0.415 s
          | Preloading free-atom quantities on grid     :        2.215 s           2.216 s
          | Free-atom superposition energy              :        0.255 s           0.255 s
          | Total time for integrations                 :       13.327 s          13.535 s
          | Product basis setup: Total time             :        0.000 s           0.000 s
          | Product basis: | 2-center integrations     :(       0.000 s)  (       0.000 s)
          | Product basis: | LVL 3-center & coefficient:(       0.000 s)  (       0.000 s)
          | Total time for solution of K.-S. equations  :        2.993 s           7.187 s
          | Total time for density update               :        9.342 s           9.956 s
          | Total time for mixing & preconditioning     :        8.546 s           8.549 s
          | Total time for Hartree multipole update     :        0.100 s           0.099 s
          | Total time for Hartree multipole sum        :       36.832 s          36.845 s
          | Total time for total energy evaluation      :        0.006 s           0.008 s
          | Total time for DFPT                         :      407.305 s         407.465 s
          | Total time first_order_DM                   :        0.306 s           0.304 s
          | Total time first_order_density              :       87.016 s          87.035 s
          | Total time first_order_potential            :       53.306 s          53.330 s
          | Total time first_order_H                    :      175.362 s         175.434 s
          | Total time solving of Sternheimer equations :        0.196 s           0.193 s
          | Total time for dielectric constant          :        0.000 s           0.000 s
          | Total time momentum matrix                  :        0.000 s           0.000 s

          GPU acceleration has been used for charge density update.
          GPU acceleration has been used for real-space Hamiltonian integration.
          Due to GPU usage, wall_clock(cpu1) will give a more reliable estimate for timings.

          Partial memory accounting:
          | Residual value for overall tracked memory usage across tasks:     0.000000 MB (should be 0.000000 MB)
          | Peak values for overall tracked memory usage:
          |   Minimum:      118.225 MB (on task  0 after allocating DFPT_pulay_mixing::pulay_mix::alphas)
          |   Maximum:      118.225 MB (on task  0 after allocating DFPT_pulay_mixing::pulay_mix::alphas)
          |   Average:      118.225 MB
          | Largest tracked array allocation:
          |   Minimum:       42.170 MB (DFPT_pulay_mixing::initialize_pulay_mixing::X_in_diffs on task  0)
          |   Maximum:       42.170 MB (DFPT_pulay_mixing::initialize_pulay_mixing::X_in_diffs on task  0)
          |   Average:       42.170 MB
          Note:  These values currently only include a subset of arrays which are explicitly tracked.
          The "true" memory usage will be greater.

          Have a nice day.
------------------------------------------------------------
