------------------------------------------------------------
          Invoking FHI-aims ...

          When using FHI-aims, please cite the following reference:

            Volker Blum, Ralf Gehrke, Felix Hanke, Paula Havu,
            Ville Havu, Xinguo Ren, Karsten Reuter, and Matthias Scheffler,
            'Ab Initio Molecular Simulations with Numeric Atom-Centered Orbitals',
            Computer Physics Communications 180, 2175-2196 (2009)

          In addition, many other developments in FHI-aims are likely important for
          your particular application. A partial list of references is given at the end of
          this file. Thank you for giving credit to the authors of these developments.

          For any questions about FHI-aims, please visit our slack channel at

            https://fhi-aims.slack.com

          and our main development and support site at

            https://aims-git.rz-berlin.mpg.de .

          The latter site, in particular, has a wiki to collect information, as well
          as an issue tracker to log discussions, suggest improvements, and report issues
          or bugs. https://aims-git.rz-berlin.mpg.de is also the main development site
          of the project and all new and updated code versions can be obtained there.
          Please send an email to aims-coordinators@fhi-berlin.mpg.de and we will add
          you to these sites. They are for you and everyone is welcome there.

------------------------------------------------------------



  Date     :  20230221, Time     :  142617.453
  Time zero on CPU 1             :   0.430923000000000E+00  s.
  Internal wall clock time zero  :           446221577.453  s.

  FHI-aims created a unique identifier for this run for later identification
  aims_uuid : 3B4ABF37-0A4F-4AA7-A19F-F46B367274A5

  Build configuration of the current instance of FHI-aims
  -------------------------------------------------------
  FHI-aims version      : 221103
  Commit number         : 42523251a
  CMake host system     : Linux-5.3.18-150300.59.68-default
  CMake version         : 3.17.0
  Fortran compiler      : /mpcdf/soft/SLE_15/packages/x86_64/intel_oneapi/2021.3/mpi/2021.3.0/bin/mpiifort (Intel) version 20.2.3.20210609
  Fortran compiler flags: -O3 -ip -fp-model precise
  C compiler            : /mpcdf/soft/SLE_15/packages/x86_64/intel/2021.3.0/bin/icc (Intel) version 20.2.3.20210609
  C compiler flags      : -O3 -ip -fp-model precise -std=gnu99
  CUDA compiler         : /mpcdf/soft/SLE_15/packages/x86_64/cuda/11.6.2/bin/nvcc
  CUDA compiler flags   : -O3 -DAdd_ -lcublas
  HIP compiler          :
  HIP compiler flags    :
  HIP GPU arch          :
  ELPA2 kernel          : AVX512
  Using MPI
  Using ScaLAPACK
  Using LibXC
  Using CUDA
  Using i-PI
  Using RLSY
  Linking against: /mpcdf/soft/SLE_15/packages/x86_64/cuda/11.6.2/lib64/libcublas.so
                   /mpcdf/soft/SLE_15/packages/x86_64/cuda/11.6.2/lib64/libcudart.so
                   /mpcdf/soft/SLE_15/packages/x86_64/intel_oneapi/2021.3/mkl/latest/lib/intel64/libmkl_intel_lp64.so
                   /mpcdf/soft/SLE_15/packages/x86_64/intel_oneapi/2021.3/mkl/latest/lib/intel64/libmkl_sequential.so
                   /mpcdf/soft/SLE_15/packages/x86_64/intel_oneapi/2021.3/mkl/latest/lib/intel64/libmkl_core.so
                   /mpcdf/soft/SLE_15/packages/x86_64/intel_oneapi/2021.3/mkl/latest/lib/intel64/libmkl_blacs_intelmpi_lp64.so
                   /mpcdf/soft/SLE_15/packages/x86_64/intel_oneapi/2021.3/mkl/latest/lib/intel64/libmkl_scalapack_lp64.so

  Using       18 parallel tasks.
  Task        0 on host adag037 reporting.
  Task        1 on host adag037 reporting.
  Task        2 on host adag037 reporting.
  Task        3 on host adag037 reporting.
  Task        4 on host adag037 reporting.
  Task        5 on host adag037 reporting.
  Task        6 on host adag037 reporting.
  Task        7 on host adag037 reporting.
  Task        8 on host adag037 reporting.
  Task        9 on host adag037 reporting.
  Task       10 on host adag037 reporting.
  Task       11 on host adag037 reporting.
  Task       12 on host adag037 reporting.
  Task       13 on host adag037 reporting.
  Task       14 on host adag037 reporting.
  Task       15 on host adag037 reporting.
  Task       16 on host adag037 reporting.
  Task       17 on host adag037 reporting.

  Obtaining array dimensions for all initial allocations:
  
  -----------------------------------------------------------------------
  Parsing control.in (first pass over file, find array dimensions only).
  The contents of control.in will be repeated verbatim below
  unless switched off by setting 'verbatim_writeout .false.' .
  in the first line of control.in .
  -----------------------------------------------------------------------
  
  #########################################################################################
  #
  #  Volker Blum, 2017 : Test run input file control.in for simple H2O
  #
  #########################################################################################
  #
  #  Physical model
  #
    xc                 pw-lda
    spin               none
    relativistic       none
    charge             0.
  
    use_gpu
  
    DFPT dielectric
    ri_density_restart write
    ri_rho1 write
  #  ri_density_restart read 0
  #  ri_rho1 read
    ri_full_output .true.
    sc_accuracy_rho    1d-6
  #  use_calculate_fock_matrix_old .false.
  #  wave_threshold 1e-8
    k_grid 1 1 1
  #  output cube eigenstate 160
  #  output cube eigenstate 161
    wave_threshold 1e-8
    default_prodbas_acc 1e-6
    default_max_l_prodbas 6
  #
  #  Relaxation
  #
  #  relax_geometry   bfgs 1.e-2
  #
  
  ################################################################################
  
  
  ################################################################################
  #
  #  FHI-aims code project
  #  VB, Fritz-Haber Institut, 2009
  #
  #  Suggested "light" defaults for H atom (to be pasted into control.in file)
  #  Be sure to double-check any results obtained with these settings for post-processing,
  #  e.g., with the "tight" defaults and larger basis sets.
  #
  ################################################################################
    species        H
  #     global species definitions
      nucleus             1
      mass                1.00794
  #
      l_hartree           4
  #
      cut_pot             3.5  1.5  1.0
      basis_dep_cutoff    1e-4
  #
      radial_base         24 5.0
      radial_multiplier   1
      angular_grids       specified
        division   0.2421   50
        division   0.3822  110
        division   0.4799  194
        division   0.5341  302
  #      division   0.5626  434
  #      division   0.5922  590
  #      division   0.6542  770
  #      division   0.6868 1202
  #      outer_grid  770
        outer_grid  302
  ################################################################################
  #
  #  Definition of "minimal" basis
  #
  ################################################################################
  #     valence basis states
      valence      1  s   1.
  #     ion occupancy
      ion_occ      1  s   0.5
  ################################################################################
  #
  #  Suggested additional basis functions. For production calculations,
  #  uncomment them one after another (the most important basis functions are
  #  listed first).
  #
  #  Basis constructed for dimers: 0.5 A, 0.7 A, 1.0 A, 1.5 A, 2.5 A
  #
  ################################################################################
  #  "First tier" - improvements: -1014.90 meV to -62.69 meV
       hydro 2 s 2.1
       hydro 2 p 3.5
  #  "Second tier" - improvements: -12.89 meV to -1.83 meV
  #     hydro 1 s 0.85
  #     hydro 2 p 3.7
  #     hydro 2 s 1.2
  #     hydro 3 d 7
  #  "Third tier" - improvements: -0.25 meV to -0.12 meV
  #     hydro 4 f 11.2
  #     hydro 3 p 4.8
  #     hydro 4 d 9
  #     hydro 3 s 3.2
  ################################################################################
  #
  #  FHI-aims code project
  #  VB, Fritz-Haber Institut, 2009
  #
  #  Suggested "light" defaults for O atom (to be pasted into control.in file)
  #  Be sure to double-check any results obtained with these settings for post-processing,
  #  e.g., with the "tight" defaults and larger basis sets.
  #
  ################################################################################
    species        O
  #     global species definitions
      nucleus             8
      mass                15.9994
  #
      l_hartree           4
  #
      cut_pot             3.5  1.5  1.0
      basis_dep_cutoff    1e-4
  #
      radial_base         36 5.0
      radial_multiplier   1
       angular_grids specified
        division   0.2659   50
        division   0.4451  110
        division   0.6052  194
        division   0.7543  302
  #      division   0.8014  434
  #      division   0.8507  590
  #      division   0.8762  770
  #      division   0.9023  974
  #      division   1.2339 1202
  #      outer_grid 974
        outer_grid 302
  ################################################################################
  #
  #  Definition of "minimal" basis
  #
  ################################################################################
  #     valence basis states
      valence      2  s   2.
      valence      2  p   4.
  #     ion occupancy
      ion_occ      2  s   1.
      ion_occ      2  p   3.
  ################################################################################
  #
  #  Suggested additional basis functions. For production calculations,
  #  uncomment them one after another (the most important basis functions are
  #  listed first).
  #
  #  Constructed for dimers: 1.0 A, 1.208 A, 1.5 A, 2.0 A, 3.0 A
  #
  ################################################################################
  #  "First tier" - improvements: -699.05 meV to -159.38 meV
       hydro 2 p 1.8
       hydro 3 d 7.6
       hydro 3 s 6.4
  #  "Second tier" - improvements: -49.91 meV to -5.39 meV
  #     hydro 4 f 11.6
  #     hydro 3 p 6.2
  #     hydro 3 d 5.6
  #     hydro 5 g 17.6
  #     hydro 1 s 0.75
  #  "Third tier" - improvements: -2.83 meV to -0.50 meV
  #     ionic 2 p auto
  #     hydro 4 f 10.8
  #     hydro 4 d 4.7
  #     hydro 2 s 6.8
  #  "Fourth tier" - improvements: -0.40 meV to -0.12 meV
  #     hydro 3 p 5
  #     hydro 3 s 3.3
  #     hydro 5 g 15.6
  #     hydro 4 f 17.6
  #     hydro 4 d 14
  # Further basis functions - -0.08 meV and below
  #     hydro 3 s 2.1
  #     hydro 4 d 11.6
  #     hydro 3 p 16
  #     hydro 2 s 17.2
  
  -----------------------------------------------------------------------
  Completed first pass over input file control.in .
  -----------------------------------------------------------------------
  
  
  -----------------------------------------------------------------------
  Parsing geometry.in (first pass over file, find array dimensions only).
  The contents of geometry.in will be repeated verbatim below
  unless switched off by setting 'verbatim_writeout .false.' .
  in the first line of geometry.in .
  -----------------------------------------------------------------------
  
  #=======================================================
  # FHI-aims file: /ada/ptmp/mpsd/alewis/bulk_water/qmdata/data/geoms/430.in
  # Created using the Atomic Simulation Environment (ASE)
  # Tue Feb 21 11:23:37 2023
  #=======================================================
  lattice_vector 10.0663099999999996 0.0000000000000000 0.0000000000000000
  lattice_vector 0.0000000000000000 10.0663099999999996 0.0000000000000000
  lattice_vector 0.0000000000000000 0.0000000000000000 10.0663099999999996
  atom 22.6008999999999993 13.1550999999999991 17.0709000000000017 O
  atom 21.8441000000000010 12.8300000000000001 17.0260999999999996 H
  atom 22.4373000000000005 13.9503000000000004 16.6650999999999989 H
  atom 27.1818999999999988 22.7114000000000011 3.4426600000000001 O
  atom 26.7018999999999984 23.2500999999999998 2.7488299999999999 H
  atom 26.9357000000000006 21.8447999999999993 3.3942999999999999 H
  atom -12.8010999999999999 23.1586999999999996 -3.8470100000000000 O
  atom -12.8726000000000003 24.1116999999999990 -3.7335099999999999 H
  atom -12.9992000000000001 22.9520000000000017 -4.7416700000000001 H
  atom -8.6156400000000009 -21.4631000000000007 5.0342500000000001 O
  atom -8.2302099999999996 -22.2108999999999988 5.5242599999999999 H
  atom -8.0285700000000002 -20.8247000000000000 5.2188400000000001 H
  atom -1.6581699999999999 -4.5505300000000002 30.9488999999999983 O
  atom -1.2041299999999999 -4.8575699999999999 30.1128000000000000 H
  atom -1.5238600000000000 -5.2760300000000004 31.6925999999999988 H
  atom 9.5058000000000007 3.7132600000000000 13.2710000000000008 O
  atom 8.9830799999999993 4.6150300000000000 13.5388999999999999 H
  atom 8.8377999999999997 3.0209500000000000 13.4442000000000004 H
  atom 15.0151000000000003 9.0238999999999994 -8.0266099999999998 O
  atom 14.1914999999999996 8.5411999999999999 -7.8962500000000002 H
  atom 14.7380999999999993 9.5309500000000007 -8.9111600000000006 H
  atom -42.0206000000000017 -22.9548999999999985 -23.6040999999999990 O
  atom -42.1400999999999968 -22.4783000000000008 -22.9416000000000011 H
  atom -41.9401999999999973 -22.4161000000000001 -24.4390000000000001 H
  atom -13.7390000000000008 9.1436799999999998 7.8034600000000003 O
  atom -12.9375000000000000 9.3223099999999999 8.2634500000000006 H
  atom -13.8369000000000000 9.9388299999999994 7.3337599999999998 H
  atom 14.0030000000000001 -9.5963999999999992 19.6278000000000006 O
  atom 14.5553000000000008 -9.3056999999999999 18.8143999999999991 H
  atom 13.6753999999999998 -8.7503600000000006 19.9329999999999998 H
  atom -7.6902499999999998 -11.9730000000000008 12.2621000000000002 O
  atom -8.3412500000000005 -11.2742000000000004 12.3118999999999996 H
  atom -7.8681700000000001 -12.3554999999999993 13.0038999999999998 H
  atom 21.7195999999999998 9.0947600000000008 -1.1380399999999999 O
  atom 22.3876999999999988 9.8202700000000007 -0.9630040000000000 H
  atom 22.2018999999999984 8.5611099999999993 -1.8012699999999999 H
  atom -10.4636999999999993 -8.3587900000000008 -10.0915999999999997 O
  atom -10.8367000000000004 -8.9347300000000001 -10.7246000000000006 H
  atom -10.6268999999999991 -8.6608199999999993 -9.3094900000000003 H
  atom -5.4352499999999999 3.2705799999999998 -0.9629290000000000 O
  atom -5.0600800000000001 2.8368699999999998 -1.5523800000000001 H
  atom -6.2003000000000004 3.4906600000000001 -1.3082600000000000 H
  atom -3.5430999999999999 5.2671000000000001 -12.4644999999999992 O
  atom -4.1997499999999999 4.6974299999999998 -12.0950000000000006 H
  atom -4.0221299999999998 6.0320299999999998 -12.6524000000000001 H
  atom -2.3759399999999999 18.3865000000000016 1.2969299999999999 O
  atom -2.1735500000000001 17.5738999999999983 0.9598850000000000 H
  atom -3.3698199999999998 18.4860000000000007 1.2582500000000001 H
  atom -18.1260000000000012 16.6157000000000004 16.5601999999999983 O
  atom -18.6293000000000006 16.1525999999999996 17.2380999999999993 H
  atom -17.1173999999999999 16.7434000000000012 16.8679999999999986 H
  atom 19.0045999999999999 -21.9078000000000017 14.2012999999999998 O
  atom 18.8234999999999992 -22.5052999999999983 13.4222999999999999 H
  atom 19.8820000000000014 -21.7465000000000011 14.3405000000000005 H
  atom 4.8049900000000001 14.8242999999999991 3.5126599999999999 O
  atom 4.7362500000000001 14.6798000000000002 2.5546500000000001 H
  atom 5.0873499999999998 13.9762000000000004 3.8671500000000001 H
  atom -3.9082699999999999 -6.2698700000000001 -18.9572000000000003 O
  atom -4.6374899999999997 -6.5186700000000002 -19.4999000000000002 H
  atom -3.1349399999999998 -5.7275000000000000 -19.3887999999999998 H
  atom 42.5940000000000012 2.5844600000000000 40.8447999999999993 O
  atom 42.4851999999999990 3.5607000000000002 40.9645999999999972 H
  atom 41.9095000000000013 2.1049799999999999 40.4102999999999994 H
  atom -18.7039000000000009 15.5322999999999993 10.8504000000000005 O
  atom -18.2270000000000003 16.2440999999999995 11.2647999999999993 H
  atom -19.3090000000000011 15.6160999999999994 10.1097000000000001 H
  atom 40.3592999999999975 15.7279000000000000 8.3475000000000001 O
  atom 39.6051000000000002 16.3840000000000003 7.8989599999999998 H
  atom 40.2199999999999989 14.9626999999999999 7.8185799999999999 H
  atom 2.1931200000000000 2.0252800000000000 13.2517999999999994 O
  atom 2.4670999999999998 2.0097499999999999 12.2088999999999999 H
  atom 1.8060600000000000 2.9790000000000001 13.2574000000000005 H
  atom -6.1346800000000004 7.9386400000000004 -22.3667000000000016 O
  atom -5.1990200000000000 8.2896300000000007 -22.5616999999999983 H
  atom -6.3776500000000000 8.2104800000000004 -21.4218000000000011 H
  atom -3.7054100000000001 10.0028000000000006 14.2789000000000001 O
  atom -3.8960800000000000 9.4116800000000005 13.5198000000000000 H
  atom -3.0766900000000001 9.4766800000000000 14.7078000000000007 H
  atom -11.2643000000000004 -0.6905440000000000 28.8987000000000016 O
  atom -10.4555000000000007 -0.9657770000000000 28.7957999999999998 H
  atom -11.6697000000000006 -1.1014999999999999 29.6980000000000004 H
  atom -6.7384599999999999 0.7062060000000000 -14.5192999999999994 O
  atom -6.3331999999999997 0.9727050000000000 -15.3712999999999997 H
  atom -7.0695499999999996 1.5330800000000000 -14.4232999999999993 H
  atom 5.3091299999999997 31.8624000000000009 27.4309000000000012 O
  atom 6.0258500000000002 32.3881000000000014 26.8912000000000013 H
  atom 4.5494500000000002 31.6234000000000002 26.7845000000000013 H
  atom -10.3290000000000006 0.2086430000000000 -17.7948999999999984 O
  atom -9.9464500000000005 0.8034580000000000 -17.0852000000000004 H
  atom -10.9382999999999999 -0.3079610000000000 -17.2343000000000011 H
  atom 37.6867999999999981 15.5624000000000002 4.3992000000000004 O
  atom 36.8367999999999967 15.7081999999999997 4.0764899999999997 H
  atom 38.0041000000000011 16.1950000000000003 5.1601800000000004 H
  atom 19.9493000000000009 2.7242299999999999 -12.6935000000000002 O
  atom 19.1496999999999993 2.6666200000000000 -13.1068999999999996 H
  atom 19.8004999999999995 2.5123199999999999 -11.6506000000000007 H
  
  -----------------------------------------------------------------------
  Completed first pass over input file geometry.in .
  -----------------------------------------------------------------------
  

  Basic array size parameters:
  | Number of species                 :        2
  | Number of atoms                   :       96
  | Number of lattice vectors         :        3
  | Max. basis fn. angular momentum   :        2
  | Max. atomic/ionic basis occupied n:        2
  | Max. number of basis fn. types    :        2
  | Max. radial fns per species/type  :        3
  | Max. logarithmic grid size        :     1301
  | Max. radial integration grid size :       36
  | Max. angular integration grid size:      302
  | Max. angular grid division number :        8
  | Radial grid for Hartree potential :     1301
  | Number of spin channels           :        1

------------------------------------------------------------
          Reading file control.in.
------------------------------------------------------------
  XC: Using Perdew-Wang parametrisation of Ceperley-Alder LDA.
  Spin treatment: No spin polarisation.
  Non-relativistic treatment of kinetic energy.
  Charge =   0.000000E+00: Neutral system requested explicitly.
  DFPT calculation will begin after the DFT/HF calculation.
  Convergence accuracy of self-consistent charge density:  0.1000E-05
  Found k-point grid:         1         1         1
  Threshold value for wave function integration:  0.1000E-07
 
  Reading configuration options for species H                   .
  | Found nuclear charge :   1.0000
  | Found atomic mass :    1.00794000000000      amu
  | Found l_max for Hartree potential  :   4
  | Found cutoff potl. onset [A], width [A], scale factor :    3.50000    1.50000    1.00000
  | Threshold for basis-dependent cutoff potential is   0.100000E-03
  | Found data for basic radial integration grid :    24 points, outermost radius =    5.000 A
  | Found multiplier for basic radial grid :   1
  | Found angular grid specification: user-specified.
  | Specified grid contains     5 separate shells.
  | Check grid settings after all constraints further below.
  | Found free-atom valence shell :  1 s   1.000
  | No ionic wave fns used. Skipping ion_occ.
  | Found hydrogenic basis function :  2 s   2.100
  | Found hydrogenic basis function :  2 p   3.500
  Species H                   : Missing cutoff potential type.
  Defaulting to exp(1/x)/(1-x)^2 type cutoff potential.
  Species H : No 'logarithmic' tag. Using default grid for free atom:
  | Default logarithmic grid data [bohr] : 0.1000E-03 0.1000E+03 0.1012E+01
  Species H : On-site basis accuracy parameter (for Gram-Schmidt orthonormalisation) not specified.
  Using default value basis_acc =  0.1000000E-03.
  Species H                   : Using default innermost maximum threshold i_radial=  2 for radial functions.
  Species H                   : Default cutoff onset for free atom density etc. : 0.35000000E+01 AA.
  Species H                   : Basic radial grid will be enhanced according to radial_multiplier =   1, to contain    24 grid points.
 
  Reading configuration options for species O                   .
  | Found nuclear charge :   8.0000
  | Found atomic mass :    15.9994000000000      amu
  | Found l_max for Hartree potential  :   4
  | Found cutoff potl. onset [A], width [A], scale factor :    3.50000    1.50000    1.00000
  | Threshold for basis-dependent cutoff potential is   0.100000E-03
  | Found data for basic radial integration grid :    36 points, outermost radius =    5.000 A
  | Found multiplier for basic radial grid :   1
  | Found angular grid specification: user-specified.
  | Specified grid contains     5 separate shells.
  | Check grid settings after all constraints further below.
  | Found free-atom valence shell :  2 s   2.000
  | Found free-atom valence shell :  2 p   4.000
  | No ionic wave fns used. Skipping ion_occ.
  | No ionic wave fns used. Skipping ion_occ.
  | Found hydrogenic basis function :  2 p   1.800
  | Found hydrogenic basis function :  3 d   7.600
  | Found hydrogenic basis function :  3 s   6.400
  Species O                   : Missing cutoff potential type.
  Defaulting to exp(1/x)/(1-x)^2 type cutoff potential.
  Species O : No 'logarithmic' tag. Using default grid for free atom:
  | Default logarithmic grid data [bohr] : 0.1000E-03 0.1000E+03 0.1012E+01
  Species O : On-site basis accuracy parameter (for Gram-Schmidt orthonormalisation) not specified.
  Using default value basis_acc =  0.1000000E-03.
  Species O                   : Using default innermost maximum threshold i_radial=  2 for radial functions.
  Species O                   : Default cutoff onset for free atom density etc. : 0.35000000E+01 AA.
  Species O                   : Basic radial grid will be enhanced according to radial_multiplier =   1, to contain    36 grid points.
 
  Finished reading input file 'control.in'.
 
------------------------------------------------------------


------------------------------------------------------------
          Reading geometry description geometry.in.
------------------------------------------------------------
  | The smallest distance between any two atoms is         0.82238031 AA.
  | The first atom of this pair is atom number                     40 .
  | The second atom of this pair is atom number                    41 .
  | Wigner-Seitz cell of the first atom image           0     0     0 .
  | (The Wigner-Seitz cell of the second atom is 0 0 0  by definition.)

  Symmetry information by spglib:
  | Precision set to  0.1E-04
  | Number of Operations  : 1
  | Space group           : 1
  | International         : P1       f
  | Schoenflies           : C1^1
  Input structure read successfully.
  The structure contains       96 atoms,  and a total of        320.000 electrons.

  Input geometry:
  | Unit cell:
  |       10.06631000        0.00000000        0.00000000
  |        0.00000000       10.06631000        0.00000000
  |        0.00000000        0.00000000       10.06631000
  | Atomic structure:
  |       Atom                x [A]            y [A]            z [A]
  |    1: Species O            22.60090000       13.15510000       17.07090000
  |    2: Species H            21.84410000       12.83000000       17.02610000
  |    3: Species H            22.43730000       13.95030000       16.66510000
  |    4: Species O            27.18190000       22.71140000        3.44266000
  |    5: Species H            26.70190000       23.25010000        2.74883000
  |    6: Species H            26.93570000       21.84480000        3.39430000
  |    7: Species O           -12.80110000       23.15870000       -3.84701000
  |    8: Species H           -12.87260000       24.11170000       -3.73351000
  |    9: Species H           -12.99920000       22.95200000       -4.74167000
  |   10: Species O            -8.61564000      -21.46310000        5.03425000
  |   11: Species H            -8.23021000      -22.21090000        5.52426000
  |   12: Species H            -8.02857000      -20.82470000        5.21884000
  |   13: Species O            -1.65817000       -4.55053000       30.94890000
  |   14: Species H            -1.20413000       -4.85757000       30.11280000
  |   15: Species H            -1.52386000       -5.27603000       31.69260000
  |   16: Species O             9.50580000        3.71326000       13.27100000
  |   17: Species H             8.98308000        4.61503000       13.53890000
  |   18: Species H             8.83780000        3.02095000       13.44420000
  |   19: Species O            15.01510000        9.02390000       -8.02661000
  |   20: Species H            14.19150000        8.54120000       -7.89625000
  |   21: Species H            14.73810000        9.53095000       -8.91116000
  |   22: Species O           -42.02060000      -22.95490000      -23.60410000
  |   23: Species H           -42.14010000      -22.47830000      -22.94160000
  |   24: Species H           -41.94020000      -22.41610000      -24.43900000
  |   25: Species O           -13.73900000        9.14368000        7.80346000
  |   26: Species H           -12.93750000        9.32231000        8.26345000
  |   27: Species H           -13.83690000        9.93883000        7.33376000
  |   28: Species O            14.00300000       -9.59640000       19.62780000
  |   29: Species H            14.55530000       -9.30570000       18.81440000
  |   30: Species H            13.67540000       -8.75036000       19.93300000
  |   31: Species O            -7.69025000      -11.97300000       12.26210000
  |   32: Species H            -8.34125000      -11.27420000       12.31190000
  |   33: Species H            -7.86817000      -12.35550000       13.00390000
  |   34: Species O            21.71960000        9.09476000       -1.13804000
  |   35: Species H            22.38770000        9.82027000       -0.96300400
  |   36: Species H            22.20190000        8.56111000       -1.80127000
  |   37: Species O           -10.46370000       -8.35879000      -10.09160000
  |   38: Species H           -10.83670000       -8.93473000      -10.72460000
  |   39: Species H           -10.62690000       -8.66082000       -9.30949000
  |   40: Species O            -5.43525000        3.27058000       -0.96292900
  |   41: Species H            -5.06008000        2.83687000       -1.55238000
  |   42: Species H            -6.20030000        3.49066000       -1.30826000
  |   43: Species O            -3.54310000        5.26710000      -12.46450000
  |   44: Species H            -4.19975000        4.69743000      -12.09500000
  |   45: Species H            -4.02213000        6.03203000      -12.65240000
  |   46: Species O            -2.37594000       18.38650000        1.29693000
  |   47: Species H            -2.17355000       17.57390000        0.95988500
  |   48: Species H            -3.36982000       18.48600000        1.25825000
  |   49: Species O           -18.12600000       16.61570000       16.56020000
  |   50: Species H           -18.62930000       16.15260000       17.23810000
  |   51: Species H           -17.11740000       16.74340000       16.86800000
  |   52: Species O            19.00460000      -21.90780000       14.20130000
  |   53: Species H            18.82350000      -22.50530000       13.42230000
  |   54: Species H            19.88200000      -21.74650000       14.34050000
  |   55: Species O             4.80499000       14.82430000        3.51266000
  |   56: Species H             4.73625000       14.67980000        2.55465000
  |   57: Species H             5.08735000       13.97620000        3.86715000
  |   58: Species O            -3.90827000       -6.26987000      -18.95720000
  |   59: Species H            -4.63749000       -6.51867000      -19.49990000
  |   60: Species H            -3.13494000       -5.72750000      -19.38880000
  |   61: Species O            42.59400000        2.58446000       40.84480000
  |   62: Species H            42.48520000        3.56070000       40.96460000
  |   63: Species H            41.90950000        2.10498000       40.41030000
  |   64: Species O           -18.70390000       15.53230000       10.85040000
  |   65: Species H           -18.22700000       16.24410000       11.26480000
  |   66: Species H           -19.30900000       15.61610000       10.10970000
  |   67: Species O            40.35930000       15.72790000        8.34750000
  |   68: Species H            39.60510000       16.38400000        7.89896000
  |   69: Species H            40.22000000       14.96270000        7.81858000
  |   70: Species O             2.19312000        2.02528000       13.25180000
  |   71: Species H             2.46710000        2.00975000       12.20890000
  |   72: Species H             1.80606000        2.97900000       13.25740000
  |   73: Species O            -6.13468000        7.93864000      -22.36670000
  |   74: Species H            -5.19902000        8.28963000      -22.56170000
  |   75: Species H            -6.37765000        8.21048000      -21.42180000
  |   76: Species O            -3.70541000       10.00280000       14.27890000
  |   77: Species H            -3.89608000        9.41168000       13.51980000
  |   78: Species H            -3.07669000        9.47668000       14.70780000
  |   79: Species O           -11.26430000       -0.69054400       28.89870000
  |   80: Species H           -10.45550000       -0.96577700       28.79580000
  |   81: Species H           -11.66970000       -1.10150000       29.69800000
  |   82: Species O            -6.73846000        0.70620600      -14.51930000
  |   83: Species H            -6.33320000        0.97270500      -15.37130000
  |   84: Species H            -7.06955000        1.53308000      -14.42330000
  |   85: Species O             5.30913000       31.86240000       27.43090000
  |   86: Species H             6.02585000       32.38810000       26.89120000
  |   87: Species H             4.54945000       31.62340000       26.78450000
  |   88: Species O           -10.32900000        0.20864300      -17.79490000
  |   89: Species H            -9.94645000        0.80345800      -17.08520000
  |   90: Species H           -10.93830000       -0.30796100      -17.23430000
  |   91: Species O            37.68680000       15.56240000        4.39920000
  |   92: Species H            36.83680000       15.70820000        4.07649000
  |   93: Species H            38.00410000       16.19500000        5.16018000
  |   94: Species O            19.94930000        2.72423000      -12.69350000
  |   95: Species H            19.14970000        2.66662000      -13.10690000
  |   96: Species H            19.80050000        2.51232000      -11.65060000

  Lattice parameters for 3D lattice (in Angstroms) :    10.066310   10.066310   10.066310
  Angle(s) between unit vectors (in degrees)       :    90.000000   90.000000   90.000000


  Quantities derived from the lattice vectors (in Angstrom^-1):
  | Reciprocal lattice vector 1:  0.624180  0.000000  0.000000
  | Reciprocal lattice vector 2:  0.000000  0.624180  0.000000
  | Reciprocal lattice vector 3:  0.000000  0.000000  0.624180
  | Unit cell volume                               :   0.102003E+04  Angstrom^3

  Fractional coordinates:
                         L1                L2                L3
       atom_frac         2.24520207        1.30684432        1.69584485  O
       atom_frac         2.17002059        1.27454847        1.69139436  H
       atom_frac         2.22894983        1.38584049        1.65553217  H
       atom_frac         2.70028441        2.25617928        0.34199821  O
       atom_frac         2.65260061        2.30969442        0.27307226  H
       atom_frac         2.67582659        2.17009013        0.33719407  H
       atom_frac        -1.27167751        2.30061462       -0.38216685  O
       atom_frac        -1.27878041        2.39528685       -0.37089162  H
       atom_frac        -1.29135701        2.28008078       -0.47104351  H
       atom_frac        -0.85588860       -2.13217157        0.50010878  O
       atom_frac        -0.81759950       -2.20645897        0.54878699  H
       atom_frac        -0.79756832       -2.06875210        0.51844618  H
       atom_frac        -0.16472471       -0.45205542        3.07450297  O
       atom_frac        -0.11961980       -0.48255716        2.99144374  H
       atom_frac        -0.15138218       -0.52412751        3.14838307  H
       atom_frac         0.94431823        0.36887996        1.31835797  O
       atom_frac         0.89239056        0.45846293        1.34497149  H
       atom_frac         0.87795826        0.30010500        1.33556388  H
       atom_frac         1.49161907        0.89644567       -0.79737362  O
       atom_frac         1.40980161        0.84849364       -0.78442349  H
       atom_frac         1.46410154        0.94681666       -0.88524593  H
       atom_frac        -4.17437969       -2.28036887       -2.34486123  O
       atom_frac        -4.18625097       -2.23302283       -2.27904764  H
       atom_frac        -4.16639265       -2.22684380       -2.42780125  H
       atom_frac        -1.36484968        0.90834477        0.77520561  O
       atom_frac        -1.28522766        0.92609010        0.82090160  H
       atom_frac        -1.37457519        0.98733598        0.72854502  H
       atom_frac         1.39107578       -0.95331854        1.94985054  O
       atom_frac         1.44594196       -0.92444004        1.86904635  H
       atom_frac         1.35853158       -0.86927186        1.98016950  H
       atom_frac        -0.76395919       -1.18941300        1.21813256  O
       atom_frac        -0.82863035       -1.11999332        1.22307976  H
       atom_frac        -0.78163399       -1.22741104        1.29182392  H
       atom_frac         2.15765261        0.90348499       -0.11305434  O
       atom_frac         2.22402251        0.97555807       -0.09566604  H
       atom_frac         2.20556490        0.85047152       -0.17894045  H
       atom_frac        -1.03947723       -0.83037280       -1.00251234  O
       atom_frac        -1.07653152       -0.88758741       -1.06539536  H
       atom_frac        -1.05568972       -0.86037684       -0.92481654  H
       atom_frac        -0.53994463        0.32490356       -0.09565859  O
       atom_frac        -0.50267476        0.28181826       -0.15421540  H
       atom_frac        -0.61594566        0.34676659       -0.12996421  H
       atom_frac        -0.35197605        0.52324039       -1.23823924  O
       atom_frac        -0.41720849        0.46664865       -1.20153264  H
       atom_frac        -0.39956349        0.59922951       -1.25690546  H
       atom_frac        -0.23602889        1.82653823        0.12883867  O
       atom_frac        -0.21592321        1.74581351        0.09535619  H
       atom_frac        -0.33476219        1.83642268        0.12499615  H
       atom_frac        -1.80065982        1.65062471        1.64511127  O
       atom_frac        -1.85065828        1.60461977        1.71245471  H
       atom_frac        -1.70046422        1.66331059        1.67568851  H
       atom_frac         1.88794106       -2.17634863        1.41077515  O
       atom_frac         1.86995036       -2.23570504        1.33338830  H
       atom_frac         1.97510309       -2.16032489        1.42460345  H
       atom_frac         0.47733380        1.47266476        0.34895210  O
       atom_frac         0.47050508        1.45830995        0.25378217  H
       atom_frac         0.50538380        1.38841343        0.38416758  H
       atom_frac        -0.38825250       -0.62285684       -1.88323229  O
       atom_frac        -0.46069414       -0.64757294       -1.93714479  H
       atom_frac        -0.31142891       -0.56897711       -1.92610798  H
       atom_frac         4.23134197        0.25674353        4.05757423  O
       atom_frac         4.22053364        0.35372445        4.06947531  H
       atom_frac         4.16334287        0.20911138        4.01441044  H
       atom_frac        -1.85806914        1.54299838        1.07789249  O
       atom_frac        -1.81069329        1.61370949        1.11905952  H
       atom_frac        -1.91818054        1.55132318        1.00431042  H
       atom_frac         4.00934404        1.56242953        0.82925124  O
       atom_frac         3.93442086        1.62760734        0.78469270  H
       atom_frac         3.99550580        1.48641359        0.77670765  H
       atom_frac         0.21786732        0.20119388        1.31645062  O
       atom_frac         0.24508484        0.19965111        1.21284761  H
       atom_frac         0.17941629        0.29593764        1.31700693  H
       atom_frac        -0.60942689        0.78863456       -2.22193634  O
       atom_frac        -0.51647724        0.82350236       -2.24130789  H
       atom_frac        -0.63356384        0.81563949       -2.12806878  H
       atom_frac        -0.36810013        0.99369084        1.41848403  O
       atom_frac        -0.38704153        0.93496823        1.34307408  H
       atom_frac        -0.30564229        0.94142541        1.46109150  H
       atom_frac        -1.11900985       -0.06859952        2.87083350  O
       atom_frac        -1.03866263       -0.09594151        2.86061129  H
       atom_frac        -1.15928280       -0.10942441        2.95023698  H
       atom_frac        -0.66940716        0.07015540       -1.44236567  O
       atom_frac        -0.62914812        0.09662975       -1.52700443  H
       atom_frac        -0.70229806        0.15229811       -1.43282891  H
       atom_frac         0.52741571        3.16525122        2.72502039  O
       atom_frac         0.59861558        3.21747492        2.67140591  H
       atom_frac         0.45194813        3.14150866        2.66080619  H
       atom_frac        -1.02609596        0.02072686       -1.76776793  O
       atom_frac        -0.98809296        0.07981654       -1.69726543  H
       atom_frac        -1.08662459       -0.03059324       -1.71207722  H
       atom_frac         3.74385450        1.54598855        0.43702211  O
       atom_frac         3.65941442        1.56047251        0.40496369  H
       atom_frac         3.77537549        1.60883184        0.51261882  H
       atom_frac         1.98178876        0.27062846       -1.26098839  O
       atom_frac         1.90235548        0.26490541       -1.30205607  H
       atom_frac         1.96700678        0.24957705       -1.15738538  H

 
  Finished reading input file 'geometry.in'.
 

 
  Consistency checks for stacksize environment parameter are next.
 
  | Maximum stacksize for task 0: unlimited
  | Maximum stacksize for task 1: unlimited
  | Maximum stacksize for task 2: unlimited
  | Maximum stacksize for task 3: unlimited
  | Maximum stacksize for task 4: unlimited
  | Maximum stacksize for task 5: unlimited
  | Maximum stacksize for task 6: unlimited
  | Maximum stacksize for task 7: unlimited
  | Maximum stacksize for task 8: unlimited
  | Maximum stacksize for task 9: unlimited
  | Maximum stacksize for task 10: unlimited
  | Maximum stacksize for task 11: unlimited
  | Maximum stacksize for task 12: unlimited
  | Maximum stacksize for task 13: unlimited
  | Maximum stacksize for task 14: unlimited
  | Maximum stacksize for task 15: unlimited
  | Maximum stacksize for task 16: unlimited
  | Maximum stacksize for task 17: unlimited
  | Current stacksize for task 0: unlimited
  | Current stacksize for task 1: unlimited
  | Current stacksize for task 2: unlimited
  | Current stacksize for task 3: unlimited
  | Current stacksize for task 4: unlimited
  | Current stacksize for task 5: unlimited
  | Current stacksize for task 6: unlimited
  | Current stacksize for task 7: unlimited
  | Current stacksize for task 8: unlimited
  | Current stacksize for task 9: unlimited
  | Current stacksize for task 10: unlimited
  | Current stacksize for task 11: unlimited
  | Current stacksize for task 12: unlimited
  | Current stacksize for task 13: unlimited
  | Current stacksize for task 14: unlimited
  | Current stacksize for task 15: unlimited
  | Current stacksize for task 16: unlimited
  | Current stacksize for task 17: unlimited
 
  Consistency checks for the contents of control.in are next.
 
  MPI_IN_PLACE appears to work with this MPI implementation.
  | Keeping use_mpi_in_place .true. (see manual).
  Explicit treatment of the Coulomb operator is needed, but the RI method is not specified.
  Coulomb operator: Defaulting to 'LVL fast' resolution of identity - RI_type = LVL_fast
  Species H: Using default value for prodbas_acc =   1.000000E-06.
  Species H: Using default value max_l_prodbas =     6.
  Species O: Using default value for prodbas_acc =   1.000000E-06.
  Species O: Using default value max_l_prodbas =     6.
  Target number of points in a grid batch is not set.  Since GPU acceleration is enabled, defaulting to  200
  Method for grid partitioning is not set. Defaulting to parallel hash+maxmin partitioning.
  Batch size limit is not set. Defaulting to    200
  By default, will store active basis functions for each batch.
  If in need of memory, prune_basis_once .false. can be used to disable this option.
  communication_type for Hartree potential was not specified.
  Defaulting to calc_hartree .
  Defaulting to Pulay charge density mixer.
  Pulay mixer: Number of relevant iterations not set.
  Defaulting to    8 iterations.
  Pulay mixer: Number of initial linear mixing iterations not set.
  Defaulting to    0 iterations.
  Work space size for distributed Hartree potential not set.
  Defaulting to   0.200000E+03 MB.
  Mixing parameter for charge density mixing has not been set.
  Using default: charge_mix_param =     0.0500.
  The mixing parameter will be adjusted in iteration number     2 of the first full s.c.f. cycle only.
  Algorithm-dependent basis array size parameters:
  | n_max_pulay                         :        8
  Maximum number of self-consistency iterations not provided.
  Presetting  1000 iterations.
  Presetting      1001 iterations before the initial mixing cycle
  is restarted anyway using the sc_init_iter criterion / keyword.
  Presetting a factor      1.000 between actual scf density residual
  and density convergence criterion sc_accuracy_rho below which sc_init_iter
  takes no effect.
  Calculation of forces was not defined in control.in. No forces will be calculated.
  Geometry relaxation not requested: no relaxation will be performed.
  No accuracy limit for integral partition fn. given. Defaulting to  0.1000E-14.
  No occupation type (smearing scheme) given. Defaulting to Gaussian broadening, width =  0.1000E-01 eV.
  The width will be adjusted in iteration number     2 of the first full s.c.f. cycle only.
  S.C.F. convergence parameters will be adjusted in iteration number     2 of the first full s.c.f. cycle only.
  No accuracy for occupation numbers given. Defaulting to  0.1000E-12.
  No threshold value for occupation numbers given. Defaulting to  0.0000E+00.
  No accuracy for fermi level given. Defaulting to  0.1000E-19.
  Maximum # of iterations to find E_F not set. Defaulting to  200.
  Preferred method for the eigenvalue solver ('KS_method') not specified in 'control.in'.
  Calling BLACS routine to test compilation state
  Since ScaLAPACK support is enabled, defaulting to ELPA (via ELSI).
  Will not use alltoall communication since running on < 1024 CPUs.
  Threshold for basis singularities not set.
  Default threshold for basis singularities:  0.1000E-04
  partition_type (choice of integration weights) for integrals was not specified.
  | Using a version of the partition function of Stratmann and coworkers ('stratmann_sparse').
  | At each grid point, the set of atoms used to build the partition table is smoothly restricted to
  | only those atoms whose free-atom density would be non-zero at that grid point.
  Partitioning for Hartree potential was not defined. Using partition_type for integrals.
  | Adjusted default value of keyword multip_moments_threshold to:       0.10000000E-11
  | This value may affect high angular momentum components of the Hartree potential in periodic systems.
  Angular momentum expansion for Kerker preconditioner not set explicitly.
  | Using default value of   0
  No explicit requirement for turning off preconditioner.
  | By default, it will be turned off when the charge convergence reaches
  | sc_accuracy_rho  =   0.100000E-05
  No special mixing parameter while Kerker preconditioner is on.
  Using default: charge_mix_param =     0.0500.
  Threshold for auxiliary basis singularities not set.
  Default threshold for auxiliary basis singularities:  0.1000E-04
  No q(lm)/r^(l+1) cutoff set for long-range Hartree potential.
  | Using default value of  0.100000E-09 .
  | Verify using the multipole_threshold keyword.
  Defaulting to new monopole extrapolation.
  Density update method: automatic selection selected.
  Using density matrix based charge density update.
  Using density matrix based charge density update.
  Using packed matrix style: index .
  Defaulting to use time-reversal symmetry for k-point grid.
  Charge integration errors on the 3D integration grid will be compensated
  by explicit normalization and distribution of residual charges.
  Use the "compensate_multipole_errors" flag to change this behaviour.
  Default to 1D ("use_logsbt") integrations for auxiliary 2-center integrals.
  Default onset of logarithmic r-grid for SBT is -38.000000000000
  Default onset of logarithmic k-grid for SBT is -25.000000000000
  Default range of logarithmic r- and k-grid for SBT is  45.000000000000
  Default number of logarithmic r- and k-grid for SBT is   4096
  Default of use_2d_corr is to use the efficient 2D distribution where possible
 
  Consistency checks for the contents of geometry.in are next.
 

  Range separation radius for Ewald summation (hartree_convergence_parameter):      3.05045425 bohr.
  Number of empty states per atom not set in control.in .
  | Since you are using a method that relies on the unoccupied spectrum
  | (MP2,GW,RPA et al.), will use the full Hamiltonian size (see below)
  | as the max. possible number of states (occupied plus empty).

  Structure-dependent array size parameters: 
  | Maximum number of distinct radial functions  :        9
  | Maximum number of basis functions            :      768
  | Number of Kohn-Sham states (occupied + empty):      768
------------------------------------------------------------

  Performing system and environment tests:
  | Environment variable OMP_NUM_THREADS correctly set to 1.
  | Checking for ScaLAPACK...
  | Testing pdtran()...
  | All pdtran() tests passed.
CUDA runtime version: 11060
CUDA driver version: 11060
  Initializing GPUs...

  Number of GPUs available to MPI task         0 :   1
  Number of GPUs available to MPI task         1 :   1
  Number of GPUs available to MPI task         2 :   1
  Number of GPUs available to MPI task         3 :   1
  Number of GPUs available to MPI task         4 :   1
  Number of GPUs available to MPI task         5 :   1
  Number of GPUs available to MPI task         6 :   1
  Number of GPUs available to MPI task         7 :   1
  Number of GPUs available to MPI task         8 :   1
  Number of GPUs available to MPI task         9 :   1
  Number of GPUs available to MPI task        10 :   1
  Number of GPUs available to MPI task        11 :   1
  Number of GPUs available to MPI task        12 :   1
  Number of GPUs available to MPI task        13 :   1
  Number of GPUs available to MPI task        14 :   1
  Number of GPUs available to MPI task        15 :   1
  Number of GPUs available to MPI task        16 :   1
  Number of GPUs available to MPI task        17 :   1

  | MPI task         0, GPU activated = T, Device Name = NVIDIA A100-SXM4-80GB
  | MPI task         1, GPU activated = T, Device Name = NVIDIA A100-SXM4-80GB
  | MPI task         2, GPU activated = T, Device Name = NVIDIA A100-SXM4-80GB
  | MPI task         3, GPU activated = T, Device Name = NVIDIA A100-SXM4-80GB
  | MPI task         4, GPU activated = T, Device Name = NVIDIA A100-SXM4-80GB
  | MPI task         5, GPU activated = T, Device Name = NVIDIA A100-SXM4-80GB
  | MPI task         6, GPU activated = T, Device Name = NVIDIA A100-SXM4-80GB
  | MPI task         7, GPU activated = T, Device Name = NVIDIA A100-SXM4-80GB
  | MPI task         8, GPU activated = T, Device Name = NVIDIA A100-SXM4-80GB
  | MPI task         9, GPU activated = T, Device Name = NVIDIA A100-SXM4-80GB
  | MPI task        10, GPU activated = T, Device Name = NVIDIA A100-SXM4-80GB
  | MPI task        11, GPU activated = T, Device Name = NVIDIA A100-SXM4-80GB
  | MPI task        12, GPU activated = T, Device Name = NVIDIA A100-SXM4-80GB
  | MPI task        13, GPU activated = T, Device Name = NVIDIA A100-SXM4-80GB
  | MPI task        14, GPU activated = T, Device Name = NVIDIA A100-SXM4-80GB
  | MPI task        15, GPU activated = T, Device Name = NVIDIA A100-SXM4-80GB
  | MPI task        16, GPU activated = T, Device Name = NVIDIA A100-SXM4-80GB
  | MPI task        17, GPU activated = T, Device Name = NVIDIA A100-SXM4-80GB

------------------------------------------------------------
          Preparing all fixed parts of the calculation.
------------------------------------------------------------
  Determining machine precision:
    2.225073858507201E-308
  Setting up grids for atomic and cluster calculations.

  Creating wave function, potential, and density for free atoms.
  Runtime choices for atomic solver:
  | atomic solver xc        : PW-LDA
  | compute density gradient: 0
  | compute kinetic density : F

  Species: H

  List of occupied orbitals and eigenvalues:
    n    l              occ      energy [Ha]    energy [eV]
    1    0           1.0000        -0.232375        -6.3233


  Species: O

  List of occupied orbitals and eigenvalues:
    n    l              occ      energy [Ha]    energy [eV]
    1    0           2.0000       -18.757744      -510.4242
    2    0           2.0000        -0.870917       -23.6989
    2    1           4.0000        -0.337950        -9.1961


  Adding cutoff potential to free-atom effective potential.
  Creating fixed part of basis set: Ionic, confined, hydrogenic.
 
  H                    hydrogenic:
 
  List of hydrogenic basis orbitals: 
    n    l      effective z      eigenvalue [eV]  inner max. [A]     outer max. [A]     outer radius [A]   
    2    0         2.100000       -14.9728           0.193243           1.317208           4.696947
    2    1         3.500000       -41.6669           0.602369           0.602369           3.862494
 
 
  O                    hydrogenic:
 
  List of hydrogenic basis orbitals: 
    n    l      effective z      eigenvalue [eV]  inner max. [A]     outer max. [A]     outer radius [A]   
    2    1         1.800000       -10.9749           1.164242           1.164242           4.691341
    3    2         7.600000       -87.3180           0.624125           0.624125           3.413946
    3    0         6.400000       -61.9207           0.061167           1.081902           4.151495
 
  Creating atomic-like basis functions for current effective potential.

  Species H                   :

  List of atomic basis orbitals and eigenvalues:
    n    l      energy [Ha]    energy [eV]    outer radius [A]
    1    0        -0.232375        -6.3233       4.696947


  Species O                   :

  List of atomic basis orbitals and eigenvalues:
    n    l      energy [Ha]    energy [eV]    outer radius [A]
    1    0       -18.757744      -510.4242       1.830144
    2    0        -0.870917       -23.6989       4.578029
    2    1        -0.337950        -9.1961       4.634338

  Assembling full basis from fixed parts.
  | Species H :   atomic orbital   1 s accepted.
  | Species H :    hydro orbital   2 s accepted.
  | Species H :    hydro orbital   2 p accepted.
  | Species O :   atomic orbital   1 s accepted.
  | Species O :    hydro orbital   3 s accepted.
  | Species O :   atomic orbital   2 s accepted.
  | Species O :   atomic orbital   2 p accepted.
  | Species O :    hydro orbital   2 p accepted.
  | Species O :    hydro orbital   3 d accepted.
 
  Basis size parameters after reduction:
  | Total number of radial functions:        9
  | Total number of basis functions :      768
 
  Per-task memory consumption for arrays in subroutine allocate_ext:
  |           2.268304MB.
  Testing on-site integration grid accuracy.
  |  Species  Function  <phi|h_atom|phi> (log., in eV)  <phi|h_atom|phi> (rad., in eV)
           1        1                 -6.3245358373                 -6.3232436907
           1        2                 14.1326137532                 14.1384481100
           1        3                 25.3627025200                 25.3628451197
           2        4               -510.4241781764               -510.4240769407
           2        5                 14.9072942213                 14.9072945271
           2        6                -21.2004736474                -21.2005650551
           2        7                 -9.1962086505                 -9.1963509834
           2        8                  8.1896755006                  8.1702200081
           2        9                 45.7920584937                 45.7920228520

  Preparing densities etc. for the partition functions (integrals / Hartree potential).

  Preparations completed.
  max(cpu_time)          :      0.070 s.
  Wall clock time (cpu1) :      0.065 s.
------------------------------------------------------------

  Initializing index lists of integration centers etc. from given atomic structure:
  Mapping all atomic coordinates to central unit cell.

  Initializing the k-points
  Using symmetry for reducing the k-points
  | k-points reduced from:        1 to        1
  | Number of k-points                             :         1
  | Consuming          0 KiB for k_phase_exx.
  The eigenvectors in the calculations are REAL.
  | Number of basis functions in the Hamiltonian integrals :      4321
  | Number of basis functions in a single unit cell        :       768
  | Number of centers in hartree potential         :      2473
  | Number of centers in hartree multipole         :      1800
  | Number of centers in electron density summation:      1404
  | Number of centers in basis integrals           :      1478
  | Number of centers in integrals                 :       680
  | Number of centers in hamiltonian               :      1404
  | Consuming          0 KiB for k_phase.
  | Number of super-cells (origin) [n_cells]                     :         125
  | Number of super-cells (after PM_index) [n_cells]             :          28
  | Number of super-cells in hamiltonian [n_cells_in_hamiltonian]:          28
  | Size of matrix packed + index [n_hamiltonian_matrix_size] :      745237
  | Size of matrix packed + index (no_symmetry):     1489705

------------------------------------------------------------
          Begin self-consistency loop: Initialization.

          Date     :  20230221, Time     :  142628.533
------------------------------------------------------------
  | Estimated reciprocal-space cutoff momentum G_max:         3.09580941 bohr^-1 .
  | Reciprocal lattice points for long-range Hartree potential:    3406
  Using simple linear distribution as default method for k-point parallelism.
  * Using 18 tasks for Scalapack Eigenvalue solver.
  Detailed listing of tasks and assigned k-points:
   Task     0 k-point     1 on adag037
   Task     1 k-point     1 on adag037
   Task     2 k-point     1 on adag037
   Task     3 k-point     1 on adag037
   Task     4 k-point     1 on adag037
   Task     5 k-point     1 on adag037
   Task     6 k-point     1 on adag037
   Task     7 k-point     1 on adag037
   Task     8 k-point     1 on adag037
   Task     9 k-point     1 on adag037
   Task    10 k-point     1 on adag037
   Task    11 k-point     1 on adag037
   Task    12 k-point     1 on adag037
   Task    13 k-point     1 on adag037
   Task    14 k-point     1 on adag037
   Task    15 k-point     1 on adag037
   Task    16 k-point     1 on adag037
   Task    17 k-point     1 on adag037
  K-point:     1 Tasks:    18 split into      6 X      3 BLACS grid
  Calculating block size based on n_basis =          768  max_nprow =            6  max_npcol =            3
  ScaLAPACK block size set to:           16
  Allocating        0.250 MB for ovlp
  Allocating        0.250 MB for ham
  Allocating        0.250 MB for eigenvec
  Required Scalapack workspace - INTEGER:            1  REAL:             1
  Partitioning the integration grid into batches with parallel hashing+maxmin method.
  | Number of batches:     3938
  | Maximal batch size:     200
  | Minimal batch size:      99
  | Average batch size:     129.398
  | Standard deviation of batch sizes:      26.313

  Integration load balanced across    18 MPI tasks.
  Work distribution over tasks is as follows:
  Task     0 has      28246 integration points.
  Task     1 has      28284 integration points.
  Task     2 has      28364 integration points.
  Task     3 has      28298 integration points.
  Task     4 has      28223 integration points.
  Task     5 has      28320 integration points.
  Task     6 has      28414 integration points.
  Task     7 has      28301 integration points.
  Task     8 has      28249 integration points.
  Task     9 has      28292 integration points.
  Task    10 has      28286 integration points.
  Task    11 has      28298 integration points.
  Task    12 has      28290 integration points.
  Task    13 has      28342 integration points.
  Task    14 has      28341 integration points.
  Task    15 has      28318 integration points.
  Task    16 has      28304 integration points.
  Task    17 has      28398 integration points.
  Initializing partition tables, free-atom densities, potentials, etc. across the integration grid (initialize_grid_storage).
  | initialize_grid_storage: Actual outermost partition radius vs. multipole_radius_free
  | (-- VB: in principle, multipole_radius_free should be larger, hence this output)
  | Species        1: Confinement radius =              4.999999999999999 AA, multipole_radius_free =              5.054417573612229 AA.
  | Species        1: outer_partition_radius set to              5.054417573612229 AA .
  | Species        2: Confinement radius =              4.999999999999999 AA, multipole_radius_free =              5.048384829883283 AA.
  | Species        2: outer_partition_radius set to              5.048384829883283 AA .
  | The sparse table of interatomic distances needs       4634.34 kbyte instead of     17475.87 kbyte of memory.
  | Net number of integration points:   509568
  | of which are non-zero points    :   408511
  | Numerical average free-atom electrostatic potential    :     -5.10896102 eV
  Renormalizing the initial density to the exact electron count on the 3D integration grid.
  | Initial density: Formal number of electrons (from input files) :     320.0000000000
  | Integrated number of electrons on 3D grid     :     319.9973281788
  | Charge integration error                      :      -0.0026718212
  | Normalization factor for density and gradient :       1.0000083495
  Renormalizing the free-atom superposition density to the exact electron count on the 3D integration grid.
  | Formal number of electrons (from input files) :     320.0000000000
  | Integrated number of electrons on 3D grid     :     319.9973281788
  | Charge integration error                      :      -0.0026718212
  | Normalization factor for density and gradient :       1.0000083495
  Obtaining max. number of non-zero basis functions in each batch (get_n_compute_maxes).
  | Maximal number of non-zero basis functions:      403 in task     0
  | Maximal number of non-zero basis functions:      425 in task     1
  | Maximal number of non-zero basis functions:      420 in task     2
  | Maximal number of non-zero basis functions:      406 in task     3
  | Maximal number of non-zero basis functions:      430 in task     4
  | Maximal number of non-zero basis functions:      420 in task     5
  | Maximal number of non-zero basis functions:      422 in task     6
  | Maximal number of non-zero basis functions:      406 in task     7
  | Maximal number of non-zero basis functions:      403 in task     8
  | Maximal number of non-zero basis functions:      434 in task     9
  | Maximal number of non-zero basis functions:      406 in task    10
  | Maximal number of non-zero basis functions:      418 in task    11
  | Maximal number of non-zero basis functions:      425 in task    12
  | Maximal number of non-zero basis functions:      442 in task    13
  | Maximal number of non-zero basis functions:      423 in task    14
  | Maximal number of non-zero basis functions:      427 in task    15
  | Maximal number of non-zero basis functions:      404 in task    16
  | Maximal number of non-zero basis functions:      413 in task    17
  Integrating Hamiltonian matrix: batch-based integration.
  GPU acceleration will be used when integrating the Hamiltonian matrix.
  Reporting GPU memory usage by myid 0.  Note that it is likely not the only MPI task binding to its GPU!
  Allocating        1.299 MB on GPU for hamiltonian_shell
  Allocating        0.645 MB on GPU for wave
  Allocating        0.002 MB on GPU for partition
  Allocating        0.645 MB on GPU for h_times_psi
  Time summed over all CPUs for integration: real work       11.239 s, elapsed       11.527 s
  Deallocating memory used on GPU for Hamiltonian integration.
  Integrating overlap matrix.
  Time summed over all CPUs for integration: real work        8.607 s, elapsed        9.030 s
  Deallocating overlap matrix.

  Updating Kohn-Sham eigenvalues and eigenvectors using ELSI and the ELPA eigensolver.
  Singularity check in k-point 1 (analysis for other k-points may follow below):
  Overlap matrix is not singular
  | Lowest and highest eigenvalues :  0.1934E-02,  0.7068E+01
  Finished singularity check of overlap matrix
  | Time :     0.165 s
  Starting ELPA eigensolver (GPU)
  Finished Cholesky decomposition
  | Time :     0.007 s
  Finished transformation to standard eigenproblem
  | Time :     0.030 s
  Finished solving standard eigenproblem
  | Time :     0.223 s
  Finished back-transformation of eigenvectors
  | Time :     0.017 s

  Obtaining occupation numbers and electronic chemical potential using ELSI.
  | Note that, for insulating systems, the printed 'chemical potential' value is not uniquely defined.
  | It can be anywhere in the energy gap, as long as it correctly separates occupied and unoccupied states.
  | In systems with a gap, the physically relevant chemical potential is the VBM or HOMO.

  | Chemical potential (Fermi level):    -4.77074710 eV
  Writing Kohn-Sham eigenvalues.

  State    Occupation    Eigenvalue [Ha]    Eigenvalue [eV]
      1       2.00000         -18.941473         -515.42370
      2       2.00000         -18.926291         -515.01058
      3       2.00000         -18.912498         -514.63527
      4       2.00000         -18.908968         -514.53919
      5       2.00000         -18.906597         -514.47468
      6       2.00000         -18.900266         -514.30240
      7       2.00000         -18.891782         -514.07155
      8       2.00000         -18.890475         -514.03597
      9       2.00000         -18.889228         -514.00206
     10       2.00000         -18.887539         -513.95609
     11       2.00000         -18.885417         -513.89834
     12       2.00000         -18.884822         -513.88216
     13       2.00000         -18.884695         -513.87869
     14       2.00000         -18.881337         -513.78732
     15       2.00000         -18.878956         -513.72252
     16       2.00000         -18.878428         -513.70817
     17       2.00000         -18.876713         -513.66149
     18       2.00000         -18.872174         -513.53800
     19       2.00000         -18.870520         -513.49296
     20       2.00000         -18.870398         -513.48966
     21       2.00000         -18.867689         -513.41594
     22       2.00000         -18.865792         -513.36432
     23       2.00000         -18.864048         -513.31686
     24       2.00000         -18.863736         -513.30837
     25       2.00000         -18.860580         -513.22250
     26       2.00000         -18.859216         -513.18537
     27       2.00000         -18.858955         -513.17829
     28       2.00000         -18.856285         -513.10563
     29       2.00000         -18.854380         -513.05377
     30       2.00000         -18.853429         -513.02791
     31       2.00000         -18.850948         -512.96040
     32       2.00000         -18.841114         -512.69280
     33       2.00000          -1.213577          -33.02310
     34       2.00000          -1.194658          -32.50830
     35       2.00000          -1.164893          -31.69836
     36       2.00000          -1.162956          -31.64563
     37       2.00000          -1.159921          -31.56304
     38       2.00000          -1.146427          -31.19587
     39       2.00000          -1.146057          -31.18579
     40       2.00000          -1.136418          -30.92352
     41       2.00000          -1.130695          -30.76778
     42       2.00000          -1.129641          -30.73911
     43       2.00000          -1.124808          -30.60760
     44       2.00000          -1.120501          -30.49039
     45       2.00000          -1.118213          -30.42813
     46       2.00000          -1.115476          -30.35364
     47       2.00000          -1.114291          -30.32141
     48       2.00000          -1.107243          -30.12963
     49       2.00000          -1.102605          -30.00341
     50       2.00000          -1.098858          -29.90144
     51       2.00000          -1.097037          -29.85190
     52       2.00000          -1.096516          -29.83771
     53       2.00000          -1.092251          -29.72166
     54       2.00000          -1.089669          -29.65139
     55       2.00000          -1.088181          -29.61090
     56       2.00000          -1.087105          -29.58162
     57       2.00000          -1.086064          -29.55330
     58       2.00000          -1.080900          -29.41278
     59       2.00000          -1.075234          -29.25861
     60       2.00000          -1.068086          -29.06410
     61       2.00000          -1.067493          -29.04796
     62       2.00000          -1.067052          -29.03595
     63       2.00000          -1.064141          -28.95676
     64       2.00000          -1.049076          -28.54682
     65       2.00000          -0.744945          -20.27098
     66       2.00000          -0.720812          -19.61430
     67       2.00000          -0.714025          -19.42960
     68       2.00000          -0.708725          -19.28540
     69       2.00000          -0.703626          -19.14665
     70       2.00000          -0.686029          -18.66779
     71       2.00000          -0.681216          -18.53683
     72       2.00000          -0.679545          -18.49136
     73       2.00000          -0.676067          -18.39672
     74       2.00000          -0.675144          -18.37161
     75       2.00000          -0.673819          -18.33555
     76       2.00000          -0.668840          -18.20006
     77       2.00000          -0.663798          -18.06287
     78       2.00000          -0.662185          -18.01898
     79       2.00000          -0.661343          -17.99605
     80       2.00000          -0.658973          -17.93156
     81       2.00000          -0.653344          -17.77839
     82       2.00000          -0.644629          -17.54124
     83       2.00000          -0.642123          -17.47305
     84       2.00000          -0.641866          -17.46607
     85       2.00000          -0.640302          -17.42350
     86       2.00000          -0.638124          -17.36425
     87       2.00000          -0.633301          -17.23300
     88       2.00000          -0.632305          -17.20591
     89       2.00000          -0.621941          -16.92388
     90       2.00000          -0.620844          -16.89402
     91       2.00000          -0.620190          -16.87622
     92       2.00000          -0.618086          -16.81897
     93       2.00000          -0.614254          -16.71470
     94       2.00000          -0.609779          -16.59292
     95       2.00000          -0.606020          -16.49065
     96       2.00000          -0.588165          -16.00479
     97       2.00000          -0.585284          -15.92638
     98       2.00000          -0.572020          -15.56546
     99       2.00000          -0.569089          -15.48571
    100       2.00000          -0.565391          -15.38507
    101       2.00000          -0.562732          -15.31273
    102       2.00000          -0.560444          -15.25044
    103       2.00000          -0.557987          -15.18359
    104       2.00000          -0.555880          -15.12625
    105       2.00000          -0.550784          -14.98761
    106       2.00000          -0.548347          -14.92128
    107       2.00000          -0.543385          -14.78626
    108       2.00000          -0.540862          -14.71760
    109       2.00000          -0.537941          -14.63812
    110       2.00000          -0.533962          -14.52983
    111       2.00000          -0.531181          -14.45417
    112       2.00000          -0.530390          -14.43264
    113       2.00000          -0.529149          -14.39887
    114       2.00000          -0.528335          -14.37674
    115       2.00000          -0.527103          -14.34320
    116       2.00000          -0.524548          -14.27367
    117       2.00000          -0.521629          -14.19424
    118       2.00000          -0.520175          -14.15469
    119       2.00000          -0.516015          -14.04147
    120       2.00000          -0.514863          -14.01014
    121       2.00000          -0.514129          -13.99016
    122       2.00000          -0.510497          -13.89132
    123       2.00000          -0.505362          -13.75161
    124       2.00000          -0.504122          -13.71785
    125       2.00000          -0.502095          -13.66270
    126       2.00000          -0.498944          -13.57696
    127       2.00000          -0.494326          -13.45130
    128       2.00000          -0.493100          -13.41794
    129       2.00000          -0.491507          -13.37459
    130       2.00000          -0.489721          -13.32599
    131       2.00000          -0.486252          -13.23158
    132       2.00000          -0.482687          -13.13457
    133       2.00000          -0.481049          -13.09000
    134       2.00000          -0.479335          -13.04338
    135       2.00000          -0.473525          -12.88527
    136       2.00000          -0.473085          -12.87329
    137       2.00000          -0.471272          -12.82397
    138       2.00000          -0.468727          -12.75472
    139       2.00000          -0.468418          -12.74630
    140       2.00000          -0.465094          -12.65585
    141       2.00000          -0.464207          -12.63170
    142       2.00000          -0.463023          -12.59950
    143       2.00000          -0.460160          -12.52158
    144       2.00000          -0.459341          -12.49930
    145       2.00000          -0.457128          -12.43909
    146       2.00000          -0.456304          -12.41666
    147       2.00000          -0.455468          -12.39391
    148       2.00000          -0.453081          -12.32895
    149       2.00000          -0.451339          -12.28156
    150       2.00000          -0.451022          -12.27292
    151       2.00000          -0.448739          -12.21081
    152       2.00000          -0.448085          -12.19300
    153       2.00000          -0.447468          -12.17623
    154       2.00000          -0.446585          -12.15219
    155       2.00000          -0.445390          -12.11968
    156       2.00000          -0.443948          -12.08044
    157       2.00000          -0.441250          -12.00703
    158       2.00000          -0.440426          -11.98460
    159       2.00000          -0.436397          -11.87496
    160       2.00000          -0.428517          -11.66055
    161       0.00000          -0.170101           -4.62868
    162       0.00000          -0.116690           -3.17529
    163       0.00000          -0.114127           -3.10554
    164       0.00000          -0.109392           -2.97671
    165       0.00000          -0.104822           -2.85235
    166       0.00000          -0.096176           -2.61709
    167       0.00000          -0.093760           -2.55133
    168       0.00000          -0.073016           -1.98687
    169       0.00000          -0.067081           -1.82538
    170       0.00000          -0.063534           -1.72884
    171       0.00000          -0.061114           -1.66300
    172       0.00000          -0.056805           -1.54574
    173       0.00000          -0.054862           -1.49286
    174       0.00000          -0.051124           -1.39116
    175       0.00000          -0.050252           -1.36743
    176       0.00000          -0.047239           -1.28544
    177       0.00000          -0.039692           -1.08006
    178       0.00000          -0.030128           -0.81981
    179       0.00000          -0.019493           -0.53043
    180       0.00000          -0.012635           -0.34382
    181       0.00000          -0.009341           -0.25417
    182       0.00000          -0.007706           -0.20970
    183       0.00000          -0.005668           -0.15424
    184       0.00000           0.002493            0.06784
    185       0.00000           0.003515            0.09566
    186       0.00000           0.011236            0.30576
    187       0.00000           0.013132            0.35734
    188       0.00000           0.018650            0.50749
    189       0.00000           0.023464            0.63850
    190       0.00000           0.030375            0.82655
    191       0.00000           0.033540            0.91266
    192       0.00000           0.035582            0.96822
    193       0.00000           0.036825            1.00207
    194       0.00000           0.043577            1.18580
    195       0.00000           0.047156            1.28318
    196       0.00000           0.052312            1.42348
    197       0.00000           0.055868            1.52024
    198       0.00000           0.057165            1.55554
    199       0.00000           0.058107            1.58116
    200       0.00000           0.061816            1.68211
    201       0.00000           0.063179            1.71919
    202       0.00000           0.065016            1.76918
    203       0.00000           0.067743            1.84339
    204       0.00000           0.074451            2.02593
    205       0.00000           0.075353            2.05045
    206       0.00000           0.078258            2.12951
    207       0.00000           0.079877            2.17357
    208       0.00000           0.084154            2.28993
    209       0.00000           0.085632            2.33018
    210       0.00000           0.087178            2.37224
    211       0.00000           0.090878            2.47292
    212       0.00000           0.092391            2.51408
    213       0.00000           0.093959            2.55675
    214       0.00000           0.096537            2.62691
    215       0.00000           0.098976            2.69326
    216       0.00000           0.101388            2.75891
    217       0.00000           0.106654            2.90221
    218       0.00000           0.109479            2.97908
    219       0.00000           0.113902            3.09943
    220       0.00000           0.119291            3.24608
    221       0.00000           0.121233            3.29892
    222       0.00000           0.125793            3.42300
    223       0.00000           0.128403            3.49402
    224       0.00000           0.133933            3.64449
    225       0.00000           0.146296            3.98093
    226       0.00000           0.148694            4.04616
    227       0.00000           0.155746            4.23807
    228       0.00000           0.158921            4.32445
    229       0.00000           0.166947            4.54286
    230       0.00000           0.170262            4.63307
    231       0.00000           0.178551            4.85862
    232       0.00000           0.179534            4.88536
    233       0.00000           0.185382            5.04449
    234       0.00000           0.193688            5.27053
    235       0.00000           0.195816            5.32841
    236       0.00000           0.201587            5.48546
    237       0.00000           0.205667            5.59649
    238       0.00000           0.211940            5.76719
    239       0.00000           0.215322            5.85921
    240       0.00000           0.225725            6.14229
    241       0.00000           0.229612            6.24807
    242       0.00000           0.237577            6.46479
    243       0.00000           0.240836            6.55347
    244       0.00000           0.245140            6.67060
    245       0.00000           0.254593            6.92782
    246       0.00000           0.260139            7.07873
    247       0.00000           0.263594            7.17275
    248       0.00000           0.269115            7.32298
    249       0.00000           0.276984            7.53713
    250       0.00000           0.281790            7.66789
    251       0.00000           0.288761            7.85757
    252       0.00000           0.297179            8.08666
    253       0.00000           0.299226            8.14235
    254       0.00000           0.311172            8.46743
    255       0.00000           0.312434            8.50177
    256       0.00000           0.319043            8.68160
    257       0.00000           0.328321            8.93407
    258       0.00000           0.333177            9.06620
[...]
  |    H      0     4.527807 A      4.527807 A        1.268855E-16 a.u.
  |    H      0     4.527807 A      4.583499 A       -4.900954E-17 a.u.
  |    H      0     4.527807 A      4.583499 A        4.713786E-16 a.u.
  |    H      2     3.678162 A  2.180220E+05 A            0.556529 a.u.
  |    H      1     3.958095 A  1.721251E+08 A            0.841931 a.u.
  |    H      0     4.527807 A  3.866455E+16 A            0.581436 a.u.
  |    O      0     2.043000 A      2.043000 A       -1.436841E-16 a.u.
  |    O      3     3.498446 A      3.498446 A        3.043453E-17 a.u.
  |    O      3     3.498446 A      3.498446 A        1.541443E-16 a.u.
  |    O      0     3.905335 A      3.905335 A        2.173090E-16 a.u.
  |    O      0     3.905335 A      3.905335 A        7.213445E-17 a.u.
  |    O      0     4.101052 A      4.101052 A        2.361718E-16 a.u.
  |    O      1     4.101052 A      4.101052 A        3.235185E-17 a.u.
  |    O      0     4.359549 A      4.359549 A       -5.329475E-17 a.u.
  |    O      1     4.413171 A      4.413171 A        3.261883E-17 a.u.
  |    O      1     4.522403 A      4.522403 A        6.417997E-16 a.u.
  |    O      1     4.522403 A      4.522403 A        4.224783E-16 a.u.
  |    O      2     4.522403 A      4.522403 A       -4.387647E-16 a.u.
  |    O      0     4.522403 A      4.578029 A        2.602039E-16 a.u.
  |    O      0     4.578029 A      4.578029 A        1.226235E-16 a.u.
  |    O      1     4.578029 A      4.578029 A       -6.107316E-16 a.u.
  |    O      1     4.578029 A      4.578029 A       -2.224438E-16 a.u.
  |    O      2     4.578029 A      4.578029 A       -7.020279E-16 a.u.
  |    O      2     4.522403 A      4.578029 A        1.323470E-15 a.u.
  |    O      2     4.578029 A      4.578029 A        7.923696E-16 a.u.
  |    O      2     4.522403 A      4.578029 A       -9.951815E-16 a.u.
  |    O      0     4.578029 A      4.634338 A       -8.813582E-18 a.u.
  |    O      1     4.578029 A      4.634338 A       -3.325386E-17 a.u.
  |    O      1     4.634338 A      4.634338 A        9.588032E-16 a.u.
  |    O      2     4.578029 A      4.634338 A        1.064715E-17 a.u.
  |    O      2     4.578029 A      4.634338 A       -3.770343E-15 a.u.
  |    O      4     3.251020 A  1.511584E+03 A            1.513372 a.u.
  |    O      3     3.541477 A  1.434166E+04 A            4.293220 a.u.
  |    O      2     4.634338 A  5.584435E+05 A            9.352428 a.u.
  |    O      1     4.634338 A  2.821283E+08 A            2.261940 a.u.
  |    O      0     4.578029 A  4.264100E+16 A            0.641234 a.u.

  | Shrink_full_auxil_basis : there are       38  radial auxiliary wave functions
                            accepted and       5 rejected.
  | Shrink_full_auxil_basis : there are totally                4544 partial auxiliary wave functions.
 
  | Maximal number of product basis functions per thread :   256   256
 
  | Minimal total memory requirement for three-center overlap :      10.450 Gbs
  | Number of local auxiliary basis functions on task:      0   256
  | Number of local auxiliary basis functions on task:      1   256
  | Number of local auxiliary basis functions on task:      2   256
  | Number of local auxiliary basis functions on task:      3   256
  | Number of local auxiliary basis functions on task:      4   256
  | Number of local auxiliary basis functions on task:      5   256
  | Number of local auxiliary basis functions on task:      6   256
  | Number of local auxiliary basis functions on task:      7   256
  | Number of local auxiliary basis functions on task:      8   256
  | Number of local auxiliary basis functions on task:      9   256
  | Number of local auxiliary basis functions on task:     10   256
  | Number of local auxiliary basis functions on task:     11   256
  | Number of local auxiliary basis functions on task:     12   256
  | Number of local auxiliary basis functions on task:     13   256
  | Number of local auxiliary basis functions on task:     14   240
  | Number of local auxiliary basis functions on task:     15   240
  | Number of local auxiliary basis functions on task:     16   240
  | Number of local auxiliary basis functions on task:     17   240
  | 2D aux task distribution:      3 X      6
  | 2D block size (nb_aux_2d):     64
 
  Basis pair condensation :    295296  -->     223896
 
 --------------------------------------------
  Constructing auxiliary basis (full product) ...
 
  Product basis:
  | charge radius: extent of product basis function
  | field radius: extent of its Coulomb potential
  | Species   l  charge radius    field radius  multipol momen
  |    H      1     3.910002 A      3.910002 A       -2.487223E-16 a.u.
  |    H      1     3.958095 A      3.958095 A       -2.441841E-16 a.u.
  |    H      0     4.527807 A      4.527807 A        1.268855E-16 a.u.
  |    H      0     4.527807 A      4.583499 A       -4.900954E-17 a.u.
  |    H      0     4.527807 A      4.583499 A        4.713786E-16 a.u.
  |    H      2     3.678162 A  2.180220E+05 A            0.556529 a.u.
  |    H      1     3.958095 A  1.721251E+08 A            0.841931 a.u.
  |    H      0     4.527807 A  3.866455E+16 A            0.581436 a.u.
  |    O      0     2.043000 A      2.043000 A       -1.436841E-16 a.u.
  |    O      3     3.498446 A      3.498446 A        3.043453E-17 a.u.
  |    O      3     3.498446 A      3.498446 A        1.541443E-16 a.u.
  |    O      0     3.905335 A      3.905335 A        2.173090E-16 a.u.
  |    O      0     3.905335 A      3.905335 A        7.213445E-17 a.u.
  |    O      0     4.101052 A      4.101052 A        2.361718E-16 a.u.
  |    O      1     4.101052 A      4.101052 A        3.235185E-17 a.u.
  |    O      0     4.359549 A      4.359549 A       -5.329475E-17 a.u.
  |    O      1     4.413171 A      4.413171 A        3.261883E-17 a.u.
  |    O      1     4.522403 A      4.522403 A        6.417997E-16 a.u.
  |    O      1     4.522403 A      4.522403 A        4.224783E-16 a.u.
  |    O      2     4.522403 A      4.522403 A       -4.387647E-16 a.u.
  |    O      0     4.522403 A      4.578029 A        2.602039E-16 a.u.
  |    O      0     4.578029 A      4.578029 A        1.226235E-16 a.u.
  |    O      1     4.578029 A      4.578029 A       -6.107316E-16 a.u.
  |    O      1     4.578029 A      4.578029 A       -2.224438E-16 a.u.
  |    O      2     4.578029 A      4.578029 A       -7.020279E-16 a.u.
  |    O      2     4.522403 A      4.578029 A        1.323470E-15 a.u.
  |    O      2     4.578029 A      4.578029 A        7.923696E-16 a.u.
  |    O      2     4.522403 A      4.578029 A       -9.951815E-16 a.u.
  |    O      0     4.578029 A      4.634338 A       -8.813582E-18 a.u.
  |    O      1     4.578029 A      4.634338 A       -3.325386E-17 a.u.
  |    O      1     4.634338 A      4.634338 A        9.588032E-16 a.u.
  |    O      2     4.578029 A      4.634338 A        1.064715E-17 a.u.
  |    O      2     4.578029 A      4.634338 A       -3.770343E-15 a.u.
  |    O      4     3.251020 A  1.511584E+03 A            1.513372 a.u.
  |    O      3     3.541477 A  1.434166E+04 A            4.293220 a.u.
  |    O      2     4.634338 A  5.584435E+05 A            9.352428 a.u.
  |    O      1     4.634338 A  2.821283E+08 A            2.261940 a.u.
  |    O      0     4.578029 A  4.264100E+16 A            0.641234 a.u.

  | Shrink_full_auxil_basis : there are       38  radial auxiliary wave functions
                            accepted and       5 rejected.
  | Shrink_full_auxil_basis : there are totally                4544 partial auxiliary wave functions.
 
  | Maximal number of product basis functions per thread :   256   256
 
  | Minimal total memory requirement for three-center overlap :      10.450 Gbs
  | Number of local auxiliary basis functions on task:      0   256
  | Number of local auxiliary basis functions on task:      1   256
  | Number of local auxiliary basis functions on task:      2   256
  | Number of local auxiliary basis functions on task:      3   256
  | Number of local auxiliary basis functions on task:      4   256
  | Number of local auxiliary basis functions on task:      5   256
  | Number of local auxiliary basis functions on task:      6   256
  | Number of local auxiliary basis functions on task:      7   256
  | Number of local auxiliary basis functions on task:      8   256
  | Number of local auxiliary basis functions on task:      9   256
  | Number of local auxiliary basis functions on task:     10   256
  | Number of local auxiliary basis functions on task:     11   256
  | Number of local auxiliary basis functions on task:     12   256
  | Number of local auxiliary basis functions on task:     13   256
  | Number of local auxiliary basis functions on task:     14   240
  | Number of local auxiliary basis functions on task:     15   240
  | Number of local auxiliary basis functions on task:     16   240
  | Number of local auxiliary basis functions on task:     17   240
  | 2D aux task distribution:      3 X      6
  | 2D block size (nb_aux_2d):     64
 
  Basis pair condensation :    295296  -->     223896
dP_dE (Bohr^3) at every cycle:--->
 (340.696230074869,0.000000000000000E+000) (10.5285947621197,0.000000000000000E+000) (3.29579159700108,0.000000000000000E+000)
 (10.5194900120813,0.000000000000000E+000) (324.228990802388,0.000000000000000E+000) (-10.4109748275780,0.000000000000000E+000)
 (3.29919209631183,0.000000000000000E+000) (-10.3957148900040,0.000000000000000E+000) (338.715118837287,0.000000000000000E+000)
DFPT polarizability (Bohr^3)        xx        yy        zz        xy        xz        yz
  | Polarizability:--->                       340.696230075                  324.228990802                  338.715118837                   10.528594762                    3.295791597                  -10.410974828

DFPT for dielectric_constant:--->  # PARSE DFPT_dielectric_tensor
               1.621970356623358             0.019220857939929             0.006016751856904
               0.019204236433354             1.591907990859415            -0.019006132603471
               0.006022959761724            -0.018978274271100             1.618353667167538

                                               :  max(cpu_time)    wall_clock(cpu1)
  | Time for  dielectric calculation            :        0.000 s           0.000 s
===========================================================================

------------------------------------------------------------------------------
  Final output of selected total energy values:

  The following output summarizes some interesting total energy values
  at the end of a run (AFTER all relaxation, molecular dynamics, etc.).

  | Total energy of the DFT / Hartree-Fock s.c.f. calculation      :         -66108.487282664 eV
  | Final zero-broadening corrected energy (caution - metals only) :         -66108.487282664 eV
  | For reference only, the value of 1 Hartree used in FHI-aims is :             27.211384500 eV
  | For reference only, the overall average (free atom contribution
  | + realspace contribution) of the electrostatic potential after
  | s.c.f. convergence is                                          :             -4.712771159 eV

  Before relying on these values, please be sure to understand exactly which
  total energy value is referred to by a given number. Different objects may
  all carry the same name 'total energy'. Definitions:

  Total energy of the DFT / Hartree-Fock s.c.f. calculation:
  | Note that this energy does not include ANY quantities calculated after the
  | s.c.f. cycle, in particular not ANY RPA, MP2, etc. many-body perturbation terms.

  Final zero-broadening corrected energy:
  | For metallic systems only, a broadening of the occupation numbers at the Fermi
  | level can be extrapolated back to zero broadening by an electron-gas inspired
  | formula. For all systems that are not real metals, this value can be
  | meaningless and should be avoided.

------------------------------------------------------------------------------
  Methods described in the following list of references were used in this FHI-aims run.
  If you publish the results, please make sure to cite these reference if they apply.
  FHI-aims is an academic code, and for our developers (often, Ph.D. students
  and postdocs), scientific credit in the community is essential.
  Thank you for helping us!

  For any use of FHI-aims, please cite:

    Volker Blum, Ralf Gehrke, Felix Hanke, Paula Havu, Ville Havu,
    Xinguo Ren, Karsten Reuter, and Matthias Scheffler
    'Ab initio molecular simulations with numeric atom-centered orbitals'
    Computer Physics Communications 180, 2175-2196 (2009)
    http://doi.org/10.1016/j.cpc.2009.06.022


  For Hartree-Fock, hybrid functionals, or many-body perturbation theory used in your run, please cite:

    Xinguo Ren, Patrick Rinke, Volker Blum, Juergen Wieferink, Alex Tkatchenko,
    Andrea Sanfilippo, Karsten Reuter, and Matthias Scheffler,
    'Resolution-of-identity approach to Hartree-Fock, hybrid density functionals,
    RPA, MP2, and GW with numeric atom-centered orbital basis functions'
    New Journal of Physics 14, 053020 (2012).
    http://doi.org/10.1088/1367-2630/14/5/053020


  The provided symmetry information was generated with SPGlib:

    Atsushi Togo, Yusuke Seto, Dimitar Pashov
    SPGlib 1.7.3 obtained from http://spglib.sourceforge.net
    Copyright (C) 2008 Atsushi Togo


  The DFPT (perturbation by an electric field) part of the code was used.
  Here is the corresponding reference:

    Honghui Shang, Nathaniel Raimbault, Mariana Rossi,
    Christian Carbogno, Patrick Rinke and Matthias Scheffler,
    'All-Electron, Real-Space Perturbation Theory for Homogeneous
    Electric Fields: Theory, Implementation, and Application within dft'
    New Journal of Physics, 20(7):073040, 2018


  The ELSI infrastructure was used in your run to solve the Kohn-Sham electronic structure.
  Please check out http://elsi-interchange.org to learn more.
  If scalability is important for your project, please acknowledge ELSI by citing:

    V. W-z. Yu, F. Corsetti, A. Garcia, W. P. Huhn, M. Jacquelin, W. Jia,
    B. Lange, L. Lin, J. Lu, W. Mi, A. Seifitokaldani, A. Vazquez-Mayagoitia,
    C. Yang, H. Yang, and V. Blum
    'ELSI: A unified software interface for Kohn-Sham electronic structure solvers'
    Computer Physics Communications 222, 267-285 (2018).
    http://doi.org/10.1016/j.cpc.2017.09.007


  For the real-space grid partitioning and parallelization used in this calculation, please cite:

    Ville Havu, Volker Blum, Paula Havu, and Matthias Scheffler,
    'Efficient O(N) integration for all-electron electronic structure calculation'
    'using numerically tabulated basis functions'
    Journal of Computational Physics 228, 8367-8379 (2009).
    http://doi.org/10.1016/j.jcp.2009.08.008


  The high-level electronic structure method used in your calculation
  employed our efficient localized resolution of identity for the Coulomb operator.
  Some calculations, especially large-scale hybrid density functional theory,
  are only possible thanks to this development. For this feature, please cite:

    Arvid Ihrig, Juergen Wieferink, Igor Ying Zhang, Matti Ropo, Xinguo Ren,
    Patrick Rinke, Matthias Scheffler, and Volker Blum,
    'Accurate localized resolution of identity approach for linear-scaling
    hybrid density functionals and for many-body perturbation theory'
    New Journal of Physics 117, 093020 (2015).
    http://doi.org/10.1088/1367-2630/17/9/093020

  Of course, there are many other important community references, e.g., those cited in the
  above references. Our list is limited to references that describe implementations in the
  FHI-aims code. The reason is purely practical (length of this list) - please credit others as well.

------------------------------------------------------------
          Leaving FHI-aims.
          Date     :  20230221, Time     :  143345.593

          Computational steps:
          | Number of self-consistency cycles          :           45
          | Number of SCF (re)initializations          :            1
          | Number of coupled perturbed self-consistency cycles          :            0
          | Number of CPSCF (re)initializations          :            0

          Detailed time accounting                     :  max(cpu_time)    wall_clock(cpu1)
          | Total time                                  :      437.139 s         448.140 s
          | GPU initialization                          :        2.120 s           9.653 s
          | Preparation time                            :        0.070 s           0.065 s
          | Boundary condition initalization            :        1.306 s           1.306 s
          | Grid partitioning                           :        0.419 s           0.420 s
          | Preloading free-atom quantities on grid     :        2.261 s           2.261 s
          | Free-atom superposition energy              :        0.296 s           0.295 s
          | Total time for integrations                 :       11.505 s          11.684 s
          | Product basis setup: Total time             :        0.000 s           0.000 s
          | Product basis: | 2-center integrations     :(       0.000 s)  (       0.000 s)
          | Product basis: | LVL 3-center & coefficient:(       0.000 s)  (       0.000 s)
          | Total time for solution of K.-S. equations  :        2.353 s           4.771 s
          | Total time for density update               :        8.056 s           8.357 s
          | Total time for mixing & preconditioning     :        8.282 s           8.286 s
          | Total time for Hartree multipole update     :        0.113 s           0.114 s
          | Total time for Hartree multipole sum        :       34.992 s          35.009 s
          | Total time for total energy evaluation      :        0.007 s           0.012 s
          | Total time for DFPT                         :      364.715 s         364.844 s
          | Total time first_order_DM                   :        0.299 s           0.300 s
          | Total time first_order_density              :       77.188 s          77.199 s
          | Total time first_order_potential            :       51.747 s          51.762 s
          | Total time first_order_H                    :      153.059 s         153.112 s
          | Total time solving of Sternheimer equations :        0.187 s           0.185 s
          | Total time for dielectric constant          :        0.000 s           0.000 s
          | Total time momentum matrix                  :        0.000 s           0.000 s

          GPU acceleration has been used for charge density update.
          GPU acceleration has been used for real-space Hamiltonian integration.
          Due to GPU usage, wall_clock(cpu1) will give a more reliable estimate for timings.

          Partial memory accounting:
          | Residual value for overall tracked memory usage across tasks:     0.000000 MB (should be 0.000000 MB)
          | Peak values for overall tracked memory usage:
          |   Minimum:      111.623 MB (on task  0 after allocating DFPT_pulay_mixing::pulay_mix::alphas)
          |   Maximum:      111.623 MB (on task  0 after allocating DFPT_pulay_mixing::pulay_mix::alphas)
          |   Average:      111.623 MB
          | Largest tracked array allocation:
          |   Minimum:       39.800 MB (DFPT_pulay_mixing::initialize_pulay_mixing::X_in_diffs on task  0)
          |   Maximum:       39.800 MB (DFPT_pulay_mixing::initialize_pulay_mixing::X_in_diffs on task  0)
          |   Average:       39.800 MB
          Note:  These values currently only include a subset of arrays which are explicitly tracked.
          The "true" memory usage will be greater.

          Have a nice day.
------------------------------------------------------------
