------------------------------------------------------------
          Invoking FHI-aims ...

          When using FHI-aims, please cite the following reference:

            Volker Blum, Ralf Gehrke, Felix Hanke, Paula Havu,
            Ville Havu, Xinguo Ren, Karsten Reuter, and Matthias Scheffler,
            'Ab Initio Molecular Simulations with Numeric Atom-Centered Orbitals',
            Computer Physics Communications 180, 2175-2196 (2009)

          In addition, many other developments in FHI-aims are likely important for
          your particular application. A partial list of references is given at the end of
          this file. Thank you for giving credit to the authors of these developments.

          For any questions about FHI-aims, please visit our slack channel at

            https://fhi-aims.slack.com

          and our main development and support site at

            https://aims-git.rz-berlin.mpg.de .

          The latter site, in particular, has a wiki to collect information, as well
          as an issue tracker to log discussions, suggest improvements, and report issues
          or bugs. https://aims-git.rz-berlin.mpg.de is also the main development site
          of the project and all new and updated code versions can be obtained there.
          Please send an email to aims-coordinators@fhi-berlin.mpg.de and we will add
          you to these sites. They are for you and everyone is welcome there.

------------------------------------------------------------



  Date     :  20230221, Time     :  140702.873
  Time zero on CPU 1             :   0.374043000000000E+00  s.
  Internal wall clock time zero  :           446220422.873  s.

  FHI-aims created a unique identifier for this run for later identification
  aims_uuid : 01A068F0-F958-49CD-A7B0-5CC96184A7F5

  Build configuration of the current instance of FHI-aims
  -------------------------------------------------------
  FHI-aims version      : 221103
  Commit number         : 42523251a
  CMake host system     : Linux-5.3.18-150300.59.68-default
  CMake version         : 3.17.0
  Fortran compiler      : /mpcdf/soft/SLE_15/packages/x86_64/intel_oneapi/2021.3/mpi/2021.3.0/bin/mpiifort (Intel) version 20.2.3.20210609
  Fortran compiler flags: -O3 -ip -fp-model precise
  C compiler            : /mpcdf/soft/SLE_15/packages/x86_64/intel/2021.3.0/bin/icc (Intel) version 20.2.3.20210609
  C compiler flags      : -O3 -ip -fp-model precise -std=gnu99
  CUDA compiler         : /mpcdf/soft/SLE_15/packages/x86_64/cuda/11.6.2/bin/nvcc
  CUDA compiler flags   : -O3 -DAdd_ -lcublas
  HIP compiler          :
  HIP compiler flags    :
  HIP GPU arch          :
  ELPA2 kernel          : AVX512
  Using MPI
  Using ScaLAPACK
  Using LibXC
  Using CUDA
  Using i-PI
  Using RLSY
  Linking against: /mpcdf/soft/SLE_15/packages/x86_64/cuda/11.6.2/lib64/libcublas.so
                   /mpcdf/soft/SLE_15/packages/x86_64/cuda/11.6.2/lib64/libcudart.so
                   /mpcdf/soft/SLE_15/packages/x86_64/intel_oneapi/2021.3/mkl/latest/lib/intel64/libmkl_intel_lp64.so
                   /mpcdf/soft/SLE_15/packages/x86_64/intel_oneapi/2021.3/mkl/latest/lib/intel64/libmkl_sequential.so
                   /mpcdf/soft/SLE_15/packages/x86_64/intel_oneapi/2021.3/mkl/latest/lib/intel64/libmkl_core.so
                   /mpcdf/soft/SLE_15/packages/x86_64/intel_oneapi/2021.3/mkl/latest/lib/intel64/libmkl_blacs_intelmpi_lp64.so
                   /mpcdf/soft/SLE_15/packages/x86_64/intel_oneapi/2021.3/mkl/latest/lib/intel64/libmkl_scalapack_lp64.so

  Using       18 parallel tasks.
  Task        0 on host adag037 reporting.
  Task        1 on host adag037 reporting.
  Task        2 on host adag037 reporting.
  Task        3 on host adag037 reporting.
  Task        4 on host adag037 reporting.
  Task        5 on host adag037 reporting.
  Task        6 on host adag037 reporting.
  Task        7 on host adag037 reporting.
  Task        8 on host adag037 reporting.
  Task        9 on host adag037 reporting.
  Task       10 on host adag037 reporting.
  Task       11 on host adag037 reporting.
  Task       12 on host adag037 reporting.
  Task       13 on host adag037 reporting.
  Task       14 on host adag037 reporting.
  Task       15 on host adag037 reporting.
  Task       16 on host adag037 reporting.
  Task       17 on host adag037 reporting.

  Obtaining array dimensions for all initial allocations:
  
  -----------------------------------------------------------------------
  Parsing control.in (first pass over file, find array dimensions only).
  The contents of control.in will be repeated verbatim below
  unless switched off by setting 'verbatim_writeout .false.' .
  in the first line of control.in .
  -----------------------------------------------------------------------
  
  #########################################################################################
  #
  #  Volker Blum, 2017 : Test run input file control.in for simple H2O
  #
  #########################################################################################
  #
  #  Physical model
  #
    xc                 pw-lda
    spin               none
    relativistic       none
    charge             0.
  
    use_gpu
  
    DFPT dielectric
    ri_density_restart write
    ri_rho1 write
  #  ri_density_restart read 0
  #  ri_rho1 read
    ri_full_output .true.
    sc_accuracy_rho    1d-6
  #  use_calculate_fock_matrix_old .false.
  #  wave_threshold 1e-8
    k_grid 1 1 1
  #  output cube eigenstate 160
  #  output cube eigenstate 161
    wave_threshold 1e-8
    default_prodbas_acc 1e-6
    default_max_l_prodbas 6
  #
  #  Relaxation
  #
  #  relax_geometry   bfgs 1.e-2
  #
  
  ################################################################################
  
  
  ################################################################################
  #
  #  FHI-aims code project
  #  VB, Fritz-Haber Institut, 2009
  #
  #  Suggested "light" defaults for H atom (to be pasted into control.in file)
  #  Be sure to double-check any results obtained with these settings for post-processing,
  #  e.g., with the "tight" defaults and larger basis sets.
  #
  ################################################################################
    species        H
  #     global species definitions
      nucleus             1
      mass                1.00794
  #
      l_hartree           4
  #
      cut_pot             3.5  1.5  1.0
      basis_dep_cutoff    1e-4
  #
      radial_base         24 5.0
      radial_multiplier   1
      angular_grids       specified
        division   0.2421   50
        division   0.3822  110
        division   0.4799  194
        division   0.5341  302
  #      division   0.5626  434
  #      division   0.5922  590
  #      division   0.6542  770
  #      division   0.6868 1202
  #      outer_grid  770
        outer_grid  302
  ################################################################################
  #
  #  Definition of "minimal" basis
  #
  ################################################################################
  #     valence basis states
      valence      1  s   1.
  #     ion occupancy
      ion_occ      1  s   0.5
  ################################################################################
  #
  #  Suggested additional basis functions. For production calculations,
  #  uncomment them one after another (the most important basis functions are
  #  listed first).
  #
  #  Basis constructed for dimers: 0.5 A, 0.7 A, 1.0 A, 1.5 A, 2.5 A
  #
  ################################################################################
  #  "First tier" - improvements: -1014.90 meV to -62.69 meV
       hydro 2 s 2.1
       hydro 2 p 3.5
  #  "Second tier" - improvements: -12.89 meV to -1.83 meV
  #     hydro 1 s 0.85
  #     hydro 2 p 3.7
  #     hydro 2 s 1.2
  #     hydro 3 d 7
  #  "Third tier" - improvements: -0.25 meV to -0.12 meV
  #     hydro 4 f 11.2
  #     hydro 3 p 4.8
  #     hydro 4 d 9
  #     hydro 3 s 3.2
  ################################################################################
  #
  #  FHI-aims code project
  #  VB, Fritz-Haber Institut, 2009
  #
  #  Suggested "light" defaults for O atom (to be pasted into control.in file)
  #  Be sure to double-check any results obtained with these settings for post-processing,
  #  e.g., with the "tight" defaults and larger basis sets.
  #
  ################################################################################
    species        O
  #     global species definitions
      nucleus             8
      mass                15.9994
  #
      l_hartree           4
  #
      cut_pot             3.5  1.5  1.0
      basis_dep_cutoff    1e-4
  #
      radial_base         36 5.0
      radial_multiplier   1
       angular_grids specified
        division   0.2659   50
        division   0.4451  110
        division   0.6052  194
        division   0.7543  302
  #      division   0.8014  434
  #      division   0.8507  590
  #      division   0.8762  770
  #      division   0.9023  974
  #      division   1.2339 1202
  #      outer_grid 974
        outer_grid 302
  ################################################################################
  #
  #  Definition of "minimal" basis
  #
  ################################################################################
  #     valence basis states
      valence      2  s   2.
      valence      2  p   4.
  #     ion occupancy
      ion_occ      2  s   1.
      ion_occ      2  p   3.
  ################################################################################
  #
  #  Suggested additional basis functions. For production calculations,
  #  uncomment them one after another (the most important basis functions are
  #  listed first).
  #
  #  Constructed for dimers: 1.0 A, 1.208 A, 1.5 A, 2.0 A, 3.0 A
  #
  ################################################################################
  #  "First tier" - improvements: -699.05 meV to -159.38 meV
       hydro 2 p 1.8
       hydro 3 d 7.6
       hydro 3 s 6.4
  #  "Second tier" - improvements: -49.91 meV to -5.39 meV
  #     hydro 4 f 11.6
  #     hydro 3 p 6.2
  #     hydro 3 d 5.6
  #     hydro 5 g 17.6
  #     hydro 1 s 0.75
  #  "Third tier" - improvements: -2.83 meV to -0.50 meV
  #     ionic 2 p auto
  #     hydro 4 f 10.8
  #     hydro 4 d 4.7
  #     hydro 2 s 6.8
  #  "Fourth tier" - improvements: -0.40 meV to -0.12 meV
  #     hydro 3 p 5
  #     hydro 3 s 3.3
  #     hydro 5 g 15.6
  #     hydro 4 f 17.6
  #     hydro 4 d 14
  # Further basis functions - -0.08 meV and below
  #     hydro 3 s 2.1
  #     hydro 4 d 11.6
  #     hydro 3 p 16
  #     hydro 2 s 17.2
  
  -----------------------------------------------------------------------
  Completed first pass over input file control.in .
  -----------------------------------------------------------------------
  
  
  -----------------------------------------------------------------------
  Parsing geometry.in (first pass over file, find array dimensions only).
  The contents of geometry.in will be repeated verbatim below
  unless switched off by setting 'verbatim_writeout .false.' .
  in the first line of geometry.in .
  -----------------------------------------------------------------------
  
  #=======================================================
  # FHI-aims file: /ada/ptmp/mpsd/alewis/bulk_water/qmdata/data/geoms/436.in
  # Created using the Atomic Simulation Environment (ASE)
  # Tue Feb 21 11:23:37 2023
  #=======================================================
  lattice_vector 9.8001600000000000 0.0000000000000000 0.0000000000000000
  lattice_vector 0.0000000000000000 9.8001600000000000 0.0000000000000000
  lattice_vector 0.0000000000000000 0.0000000000000000 9.8001600000000000
  atom -0.1767700000000000 29.2413999999999987 2.8592900000000001 O
  atom 0.5425900000000000 28.9021000000000008 2.3222299999999998 H
  atom -0.4887490000000000 29.9548999999999985 2.1979899999999999 H
  atom 12.0847999999999995 32.8825999999999965 -9.7504299999999997 O
  atom 11.9196000000000009 32.4528000000000034 -10.7040000000000006 H
  atom 12.0860000000000003 32.1813000000000002 -9.1240600000000001 H
  atom 16.2234000000000016 -16.1401000000000003 -2.0879400000000001 O
  atom 15.9097000000000008 -16.8741999999999983 -2.4767600000000001 H
  atom 17.0960999999999999 -16.0211000000000006 -2.4558000000000000 H
  atom 1.5148299999999999 9.5313800000000004 8.3590499999999999 O
  atom 1.6074299999999999 9.2707800000000002 9.2211999999999996 H
  atom 0.8872380000000000 8.9939099999999996 7.8132700000000002 H
  atom -30.7106999999999992 16.1563000000000017 25.0095999999999989 O
  atom -30.6496999999999993 15.1742000000000008 25.2840999999999987 H
  atom -30.3725999999999985 16.7856999999999985 25.7289999999999992 H
  atom 7.1014999999999997 -3.6597400000000002 -1.1300699999999999 O
  atom 6.5861700000000001 -3.0152299999999999 -1.3317399999999999 H
  atom 6.6995500000000003 -4.3281200000000002 -1.5658000000000001 H
  atom -5.1818099999999996 9.9610900000000004 -6.3892199999999999 O
  atom -5.5160700000000000 9.0726399999999998 -6.0063800000000001 H
  atom -4.6267399999999999 10.3066999999999993 -5.7738399999999999 H
  atom 11.8483000000000001 9.0507000000000009 -8.7306200000000000 O
  atom 12.2962000000000007 9.6943999999999999 -8.3286300000000004 H
  atom 12.2888000000000002 8.1145999999999994 -8.6786999999999992 H
  atom 18.6407999999999987 11.4517000000000007 1.1071899999999999 O
  atom 18.5900999999999996 12.2540999999999993 0.6894370000000000 H
  atom 17.7891000000000012 11.5886999999999993 1.5591999999999999 H
  atom -14.0497999999999994 25.6241999999999983 5.8891299999999998 O
  atom -14.2117000000000004 24.7975999999999992 5.9616100000000003 H
  atom -13.1271000000000004 25.7799000000000014 5.9505499999999998 H
  atom -10.3455999999999992 6.6654000000000000 -8.5644799999999996 O
  atom -9.5130900000000000 6.8994900000000001 -8.9717699999999994 H
  atom -10.9544999999999995 6.9184299999999999 -9.2849100000000000 H
  atom 17.0825999999999993 -20.9358000000000004 3.5814300000000001 O
  atom 17.3549000000000007 -21.4950000000000010 4.3014700000000001 H
  atom 17.8917999999999999 -20.2953000000000010 3.1300800000000000 H
  atom -7.7000000000000002 -7.0452199999999996 6.8336699999999997 O
  atom -7.2046299999999999 -7.7222799999999996 7.2789700000000002 H
  atom -7.0599900000000000 -6.7476200000000004 6.0103700000000000 H
  atom 5.7893699999999999 -9.0085499999999996 -3.7961600000000000 O
  atom 5.0826300000000000 -9.3375000000000004 -2.9422999999999999 H
  atom 6.5112199999999998 -9.5445300000000000 -3.7404600000000001 H
  atom -26.1949000000000005 -4.8024300000000002 12.5479000000000003 O
  atom -26.6677000000000000 -4.5752899999999999 11.6372000000000000 H
  atom -25.8200000000000003 -3.8130500000000001 12.8757999999999999 H
  atom -4.5750400000000004 -16.8205999999999989 0.5193440000000000 O
  atom -4.1402299999999999 -16.1886000000000010 -0.1199280000000000 H
  atom -5.4210000000000003 -16.3436999999999983 0.7916110000000000 H
  atom 15.8712999999999997 -2.9569700000000001 21.0549999999999997 O
  atom 16.4661000000000008 -2.5513599999999999 21.9287999999999990 H
  atom 16.3388999999999989 -3.3867300000000000 20.3902999999999999 H
  atom -5.7934299999999999 1.0188600000000001 8.3586100000000005 O
  atom -5.5182200000000003 1.2748200000000001 9.2006300000000003 H
  atom -6.5271499999999998 0.5193350000000000 8.6980799999999991 H
  atom -7.5241100000000003 25.7795999999999985 10.1016999999999992 O
  atom -7.7011599999999998 26.1494000000000000 9.1060099999999995 H
  atom -7.3231200000000003 24.9273999999999987 9.9558999999999997 H
  atom 2.5827000000000000 -17.6356000000000002 2.6179299999999999 O
  atom 2.0574800000000000 -17.0869999999999997 3.0979700000000001 H
  atom 3.3226800000000001 -17.6782000000000004 3.1474700000000002 H
  atom -9.0976900000000001 23.1645000000000003 3.7566400000000000 O
  atom -8.5092300000000005 24.1097999999999999 3.9662000000000002 H
  atom -9.8637999999999995 23.7425999999999995 3.5179800000000001 H
  atom 4.1992300000000000 -6.6097000000000001 14.8693000000000008 O
  atom 4.7352800000000004 -6.3349700000000002 14.1151999999999997 H
  atom 4.7006500000000004 -7.2743000000000002 15.2271999999999998 H
  atom -10.6065000000000005 43.0889999999999986 6.3879200000000003 O
  atom -10.9505999999999997 42.2513000000000005 5.8114100000000004 H
  atom -9.7672399999999993 43.1090999999999980 6.7708899999999996 H
  atom 39.2466999999999970 -38.0842000000000027 5.6233100000000000 O
  atom 38.9436999999999998 -38.4170999999999978 4.8127100000000000 H
  atom 39.9716999999999985 -37.4519000000000020 5.4615200000000002 H
  atom -2.0927799999999999 -10.5798000000000005 -10.2472999999999992 O
  atom -1.3879800000000000 -9.8289899999999992 -9.7268899999999991 H
  atom -2.9958499999999999 -10.3193000000000001 -9.8796599999999994 H
  atom 17.7352999999999987 4.8472099999999996 -6.6511500000000003 O
  atom 17.7572000000000010 5.4286199999999996 -5.9959600000000002 H
  atom 18.0560000000000009 5.4166999999999996 -7.4932999999999996 H
  atom 9.0679999999999996 8.4819499999999994 7.0971799999999998 O
  atom 8.5152599999999996 8.6280000000000001 7.8065699999999998 H
  atom 9.2983700000000002 9.3035399999999999 6.6778100000000000 H
  atom -0.6152350000000000 23.8342999999999989 -0.2049080000000000 O
  atom -1.1136100000000000 24.6401000000000003 -0.2192990000000000 H
  atom -0.0323420000000000 23.9137999999999984 0.5319860000000000 H
  atom 16.5501000000000005 -17.2279000000000018 22.4013999999999989 O
  atom 16.9653999999999989 -16.4368000000000016 22.2974999999999994 H
  atom 15.7446000000000002 -17.2310000000000016 21.6853000000000016 H
  atom 5.4319899999999999 19.1863999999999990 30.2624999999999993 O
  atom 4.9374399999999996 19.6137000000000015 31.0128999999999984 H
  atom 5.5844800000000001 18.3161999999999985 30.4286999999999992 H
  atom 4.3265200000000004 -2.6159200000000000 -6.2218200000000001 O
  atom 5.0868300000000000 -2.7499899999999999 -6.9280400000000002 H
  atom 4.7546999999999997 -3.0122599999999999 -5.4400100000000000 H
  atom 21.2427999999999990 16.1265000000000001 7.2887800000000000 O
  atom 20.6551000000000009 16.4288999999999987 6.7345100000000002 H
  atom 21.9144000000000005 15.6527999999999992 6.6633399999999998 H
  
  -----------------------------------------------------------------------
  Completed first pass over input file geometry.in .
  -----------------------------------------------------------------------
  

  Basic array size parameters:
  | Number of species                 :        2
  | Number of atoms                   :       96
  | Number of lattice vectors         :        3
  | Max. basis fn. angular momentum   :        2
  | Max. atomic/ionic basis occupied n:        2
  | Max. number of basis fn. types    :        2
  | Max. radial fns per species/type  :        3
  | Max. logarithmic grid size        :     1301
  | Max. radial integration grid size :       36
  | Max. angular integration grid size:      302
  | Max. angular grid division number :        8
  | Radial grid for Hartree potential :     1301
  | Number of spin channels           :        1

------------------------------------------------------------
          Reading file control.in.
------------------------------------------------------------
  XC: Using Perdew-Wang parametrisation of Ceperley-Alder LDA.
  Spin treatment: No spin polarisation.
  Non-relativistic treatment of kinetic energy.
  Charge =   0.000000E+00: Neutral system requested explicitly.
  DFPT calculation will begin after the DFT/HF calculation.
  Convergence accuracy of self-consistent charge density:  0.1000E-05
  Found k-point grid:         1         1         1
  Threshold value for wave function integration:  0.1000E-07
 
  Reading configuration options for species H                   .
  | Found nuclear charge :   1.0000
  | Found atomic mass :    1.00794000000000      amu
  | Found l_max for Hartree potential  :   4
  | Found cutoff potl. onset [A], width [A], scale factor :    3.50000    1.50000    1.00000
  | Threshold for basis-dependent cutoff potential is   0.100000E-03
  | Found data for basic radial integration grid :    24 points, outermost radius =    5.000 A
  | Found multiplier for basic radial grid :   1
  | Found angular grid specification: user-specified.
  | Specified grid contains     5 separate shells.
  | Check grid settings after all constraints further below.
  | Found free-atom valence shell :  1 s   1.000
  | No ionic wave fns used. Skipping ion_occ.
  | Found hydrogenic basis function :  2 s   2.100
  | Found hydrogenic basis function :  2 p   3.500
  Species H                   : Missing cutoff potential type.
  Defaulting to exp(1/x)/(1-x)^2 type cutoff potential.
  Species H : No 'logarithmic' tag. Using default grid for free atom:
  | Default logarithmic grid data [bohr] : 0.1000E-03 0.1000E+03 0.1012E+01
  Species H : On-site basis accuracy parameter (for Gram-Schmidt orthonormalisation) not specified.
  Using default value basis_acc =  0.1000000E-03.
  Species H                   : Using default innermost maximum threshold i_radial=  2 for radial functions.
  Species H                   : Default cutoff onset for free atom density etc. : 0.35000000E+01 AA.
  Species H                   : Basic radial grid will be enhanced according to radial_multiplier =   1, to contain    24 grid points.
 
  Reading configuration options for species O                   .
  | Found nuclear charge :   8.0000
  | Found atomic mass :    15.9994000000000      amu
  | Found l_max for Hartree potential  :   4
  | Found cutoff potl. onset [A], width [A], scale factor :    3.50000    1.50000    1.00000
  | Threshold for basis-dependent cutoff potential is   0.100000E-03
  | Found data for basic radial integration grid :    36 points, outermost radius =    5.000 A
  | Found multiplier for basic radial grid :   1
  | Found angular grid specification: user-specified.
  | Specified grid contains     5 separate shells.
  | Check grid settings after all constraints further below.
  | Found free-atom valence shell :  2 s   2.000
  | Found free-atom valence shell :  2 p   4.000
  | No ionic wave fns used. Skipping ion_occ.
  | No ionic wave fns used. Skipping ion_occ.
  | Found hydrogenic basis function :  2 p   1.800
  | Found hydrogenic basis function :  3 d   7.600
  | Found hydrogenic basis function :  3 s   6.400
  Species O                   : Missing cutoff potential type.
  Defaulting to exp(1/x)/(1-x)^2 type cutoff potential.
  Species O : No 'logarithmic' tag. Using default grid for free atom:
  | Default logarithmic grid data [bohr] : 0.1000E-03 0.1000E+03 0.1012E+01
  Species O : On-site basis accuracy parameter (for Gram-Schmidt orthonormalisation) not specified.
  Using default value basis_acc =  0.1000000E-03.
  Species O                   : Using default innermost maximum threshold i_radial=  2 for radial functions.
  Species O                   : Default cutoff onset for free atom density etc. : 0.35000000E+01 AA.
  Species O                   : Basic radial grid will be enhanced according to radial_multiplier =   1, to contain    36 grid points.
 
  Finished reading input file 'control.in'.
 
------------------------------------------------------------


------------------------------------------------------------
          Reading geometry description geometry.in.
------------------------------------------------------------
  | The smallest distance between any two atoms is         0.84541855 AA.
  | The first atom of this pair is atom number                     28 .
  | The second atom of this pair is atom number                    29 .
  | Wigner-Seitz cell of the first atom image           0     0     0 .
  | (The Wigner-Seitz cell of the second atom is 0 0 0  by definition.)

  Symmetry information by spglib:
  | Precision set to  0.1E-04
  | Number of Operations  : 1
  | Space group           : 1
  | International         : P1       Ff
  | Schoenflies           : C1^1
  Input structure read successfully.
  The structure contains       96 atoms,  and a total of        320.000 electrons.

  Input geometry:
  | Unit cell:
  |        9.80016000        0.00000000        0.00000000
  |        0.00000000        9.80016000        0.00000000
  |        0.00000000        0.00000000        9.80016000
  | Atomic structure:
  |       Atom                x [A]            y [A]            z [A]
  |    1: Species O            -0.17677000       29.24140000        2.85929000
  |    2: Species H             0.54259000       28.90210000        2.32223000
  |    3: Species H            -0.48874900       29.95490000        2.19799000
  |    4: Species O            12.08480000       32.88260000       -9.75043000
  |    5: Species H            11.91960000       32.45280000      -10.70400000
  |    6: Species H            12.08600000       32.18130000       -9.12406000
  |    7: Species O            16.22340000      -16.14010000       -2.08794000
  |    8: Species H            15.90970000      -16.87420000       -2.47676000
  |    9: Species H            17.09610000      -16.02110000       -2.45580000
  |   10: Species O             1.51483000        9.53138000        8.35905000
  |   11: Species H             1.60743000        9.27078000        9.22120000
  |   12: Species H             0.88723800        8.99391000        7.81327000
  |   13: Species O           -30.71070000       16.15630000       25.00960000
  |   14: Species H           -30.64970000       15.17420000       25.28410000
  |   15: Species H           -30.37260000       16.78570000       25.72900000
  |   16: Species O             7.10150000       -3.65974000       -1.13007000
  |   17: Species H             6.58617000       -3.01523000       -1.33174000
  |   18: Species H             6.69955000       -4.32812000       -1.56580000
  |   19: Species O            -5.18181000        9.96109000       -6.38922000
  |   20: Species H            -5.51607000        9.07264000       -6.00638000
  |   21: Species H            -4.62674000       10.30670000       -5.77384000
  |   22: Species O            11.84830000        9.05070000       -8.73062000
  |   23: Species H            12.29620000        9.69440000       -8.32863000
  |   24: Species H            12.28880000        8.11460000       -8.67870000
  |   25: Species O            18.64080000       11.45170000        1.10719000
  |   26: Species H            18.59010000       12.25410000        0.68943700
  |   27: Species H            17.78910000       11.58870000        1.55920000
  |   28: Species O           -14.04980000       25.62420000        5.88913000
  |   29: Species H           -14.21170000       24.79760000        5.96161000
  |   30: Species H           -13.12710000       25.77990000        5.95055000
  |   31: Species O           -10.34560000        6.66540000       -8.56448000
  |   32: Species H            -9.51309000        6.89949000       -8.97177000
  |   33: Species H           -10.95450000        6.91843000       -9.28491000
  |   34: Species O            17.08260000      -20.93580000        3.58143000
  |   35: Species H            17.35490000      -21.49500000        4.30147000
  |   36: Species H            17.89180000      -20.29530000        3.13008000
  |   37: Species O            -7.70000000       -7.04522000        6.83367000
  |   38: Species H            -7.20463000       -7.72228000        7.27897000
  |   39: Species H            -7.05999000       -6.74762000        6.01037000
  |   40: Species O             5.78937000       -9.00855000       -3.79616000
  |   41: Species H             5.08263000       -9.33750000       -2.94230000
  |   42: Species H             6.51122000       -9.54453000       -3.74046000
  |   43: Species O           -26.19490000       -4.80243000       12.54790000
  |   44: Species H           -26.66770000       -4.57529000       11.63720000
  |   45: Species H           -25.82000000       -3.81305000       12.87580000
  |   46: Species O            -4.57504000      -16.82060000        0.51934400
  |   47: Species H            -4.14023000      -16.18860000       -0.11992800
  |   48: Species H            -5.42100000      -16.34370000        0.79161100
  |   49: Species O            15.87130000       -2.95697000       21.05500000
  |   50: Species H            16.46610000       -2.55136000       21.92880000
  |   51: Species H            16.33890000       -3.38673000       20.39030000
  |   52: Species O            -5.79343000        1.01886000        8.35861000
  |   53: Species H            -5.51822000        1.27482000        9.20063000
  |   54: Species H            -6.52715000        0.51933500        8.69808000
  |   55: Species O            -7.52411000       25.77960000       10.10170000
  |   56: Species H            -7.70116000       26.14940000        9.10601000
  |   57: Species H            -7.32312000       24.92740000        9.95590000
  |   58: Species O             2.58270000      -17.63560000        2.61793000
  |   59: Species H             2.05748000      -17.08700000        3.09797000
  |   60: Species H             3.32268000      -17.67820000        3.14747000
  |   61: Species O            -9.09769000       23.16450000        3.75664000
  |   62: Species H            -8.50923000       24.10980000        3.96620000
  |   63: Species H            -9.86380000       23.74260000        3.51798000
  |   64: Species O             4.19923000       -6.60970000       14.86930000
  |   65: Species H             4.73528000       -6.33497000       14.11520000
  |   66: Species H             4.70065000       -7.27430000       15.22720000
  |   67: Species O           -10.60650000       43.08900000        6.38792000
  |   68: Species H           -10.95060000       42.25130000        5.81141000
  |   69: Species H            -9.76724000       43.10910000        6.77089000
  |   70: Species O            39.24670000      -38.08420000        5.62331000
  |   71: Species H            38.94370000      -38.41710000        4.81271000
  |   72: Species H            39.97170000      -37.45190000        5.46152000
  |   73: Species O            -2.09278000      -10.57980000      -10.24730000
  |   74: Species H            -1.38798000       -9.82899000       -9.72689000
  |   75: Species H            -2.99585000      -10.31930000       -9.87966000
  |   76: Species O            17.73530000        4.84721000       -6.65115000
  |   77: Species H            17.75720000        5.42862000       -5.99596000
  |   78: Species H            18.05600000        5.41670000       -7.49330000
  |   79: Species O             9.06800000        8.48195000        7.09718000
  |   80: Species H             8.51526000        8.62800000        7.80657000
  |   81: Species H             9.29837000        9.30354000        6.67781000
  |   82: Species O            -0.61523500       23.83430000       -0.20490800
  |   83: Species H            -1.11361000       24.64010000       -0.21929900
  |   84: Species H            -0.03234200       23.91380000        0.53198600
  |   85: Species O            16.55010000      -17.22790000       22.40140000
  |   86: Species H            16.96540000      -16.43680000       22.29750000
  |   87: Species H            15.74460000      -17.23100000       21.68530000
  |   88: Species O             5.43199000       19.18640000       30.26250000
  |   89: Species H             4.93744000       19.61370000       31.01290000
  |   90: Species H             5.58448000       18.31620000       30.42870000
  |   91: Species O             4.32652000       -2.61592000       -6.22182000
  |   92: Species H             5.08683000       -2.74999000       -6.92804000
  |   93: Species H             4.75470000       -3.01226000       -5.44001000
  |   94: Species O            21.24280000       16.12650000        7.28878000
  |   95: Species H            20.65510000       16.42890000        6.73451000
  |   96: Species H            21.91440000       15.65280000        6.66334000

  Lattice parameters for 3D lattice (in Angstroms) :     9.800160    9.800160    9.800160
  Angle(s) between unit vectors (in degrees)       :    90.000000   90.000000   90.000000


  Quantities derived from the lattice vectors (in Angstrom^-1):
  | Reciprocal lattice vector 1:  0.641131  0.000000  0.000000
  | Reciprocal lattice vector 2:  0.000000  0.641131  0.000000
  | Reciprocal lattice vector 3:  0.000000  0.000000  0.641131
  | Unit cell volume                               :   0.941238E+03  Angstrom^3

  Fractional coordinates:
                         L1                L2                L3
       atom_frac        -0.01803746        2.98376761        0.29175952  O
       atom_frac         0.05536542        2.94914573        0.23695838  H
       atom_frac        -0.04987153        3.05657255        0.22428103  H
       atom_frac         1.23312272        3.35531257       -0.99492559  O
       atom_frac         1.21626586        3.31145614       -1.09222707  H
       atom_frac         1.23324517        3.28375251       -0.93101133  H
       atom_frac         1.65542195       -1.64692209       -0.21305162  O
       atom_frac         1.62341227       -1.72182903       -0.25272649  H
       atom_frac         1.74447152       -1.63477943       -0.25058775  H
       atom_frac         0.15457197        0.97257392        0.85295036  O
       atom_frac         0.16402079        0.94598251        0.94092341  H
       atom_frac         0.09053301        0.91773094        0.79725943  H
       atom_frac        -3.13369374        1.64857513        2.55195834  O
       atom_frac        -3.12746935        1.54836248        2.57996808  H
       atom_frac        -3.09919430        1.71279857        2.62536530  H
       atom_frac         0.72463103       -0.37343676       -0.11531138  O
       atom_frac         0.67204719       -0.30767151       -0.13588962  H
       atom_frac         0.68361639       -0.44163769       -0.15977290  H
       atom_frac        -0.52874749        1.01642116       -0.65195058  O
       atom_frac        -0.56285510        0.92576448       -0.61288591  H
       atom_frac        -0.47210862        1.05168691       -0.58915773  H
       atom_frac         1.20899047        0.92352574       -0.89086505  O
       atom_frac         1.25469380        0.98920834       -0.84984633  H
       atom_frac         1.25393871        0.82800689       -0.88556717  H
       atom_frac         1.90209139        1.16852174        0.11297673  O
       atom_frac         1.89691801        1.25039795        0.07034957  H
       atom_frac         1.81518465        1.18250110        0.15909944  H
       atom_frac        -1.43362966        2.61467160        0.60092182  O
       atom_frac        -1.45014979        2.53032604        0.60831762  H
       atom_frac        -1.33947813        2.63055909        0.60718907  H
       atom_frac        -1.05565623        0.68013175       -0.87391226  O
       atom_frac        -0.97070762        0.70401810       -0.91547179  H
       atom_frac        -1.11778787        0.70595072       -0.94742433  H
       atom_frac         1.74309399       -2.13627124        0.36544607  O
       atom_frac         1.77087925       -2.19333154        0.43891834  H
       atom_frac         1.82566407       -2.07091517        0.31939070  H
       atom_frac        -0.78570146       -0.71888826        0.69730188  O
       atom_frac        -0.73515432       -0.78797489        0.74273991  H
       atom_frac        -0.72039538       -0.68852141        0.61329305  H
       atom_frac         0.59074240       -0.91922479       -0.38735694  O
       atom_frac         0.51862725       -0.95279057       -0.30022979  H
       atom_frac         0.66439936       -0.97391573       -0.38167336  H
       atom_frac        -2.67290534       -0.49003588        1.28037706  O
       atom_frac        -2.72114945       -0.46685870        1.18745000  H
       atom_frac        -2.63465086       -0.38908038        1.31383569  H
       atom_frac        -0.46683319       -1.71635973        0.05299342  O
       atom_frac        -0.42246555       -1.65187099       -0.01223735  H
       atom_frac        -0.55315423       -1.66769726        0.08077531  H
       atom_frac         1.61949397       -0.30172671        2.14843431  O
       atom_frac         1.68018685       -0.26033861        2.23759612  H
       atom_frac         1.66720747       -0.34557905        2.08060889  H
       atom_frac        -0.59115667        0.10396361        0.85290546  O
       atom_frac        -0.56307448        0.13008155        0.93882447  H
       atom_frac        -0.66602484        0.05299250        0.88754469  H
       atom_frac        -0.76775379        2.63052848        1.03076889  O
       atom_frac        -0.78581982        2.66826256        0.92916952  H
       atom_frac        -0.74724494        2.54357072        1.01589158  H
       atom_frac         0.26353651       -1.79952164        0.26713135  O
       atom_frac         0.20994351       -1.74354296        0.31611423  H
       atom_frac         0.33904344       -1.80386851        0.32116516  H
       atom_frac        -0.92832056        2.36368590        0.38332435  O
       atom_frac        -0.86827460        2.46014351        0.40470768  H
       atom_frac        -1.00649377        2.42267473        0.35897169  H
       atom_frac         0.42848586       -0.67444817        1.51725074  O
       atom_frac         0.48318395       -0.64641496        1.44030302  H
       atom_frac         0.47965033       -0.74226339        1.55377055  H
       atom_frac        -1.08227825        4.39676495        0.65181793  O
       atom_frac        -1.11738992        4.31128675        0.59299134  H
       atom_frac        -0.99664087        4.39881594        0.69089586  H
       atom_frac         4.00469992       -3.88607941        0.57379777  O
       atom_frac         3.97378206       -3.92004824        0.49108484  H
       atom_frac         4.07867831       -3.82156006        0.55728886  H
       atom_frac        -0.21354549       -1.07955380       -1.04562579  O
       atom_frac        -0.14162830       -1.00294179       -0.99252359  H
       atom_frac        -0.30569399       -1.05297260       -1.00811211  H
       atom_frac         1.80969494        0.49460519       -0.67867770  O
       atom_frac         1.81192960        0.55393177       -0.61182266  H
       atom_frac         1.84241890        0.55271547       -0.76460997  H
       atom_frac         0.92529102        0.86549097        0.72419022  O
       atom_frac         0.86888990        0.88039379        0.79657577  H
       atom_frac         0.94879777        0.94932532        0.68139806  H
       atom_frac        -0.06277806        2.43203172       -0.02090864  O
       atom_frac        -0.11363182        2.51425487       -0.02237708  H
       atom_frac        -0.00330015        2.44014383        0.05428340  H
       atom_frac         1.68875814       -1.75792028        2.28581982  O
       atom_frac         1.73113500       -1.67719711        2.27521796  H
       atom_frac         1.60656561       -1.75823660        2.21274959  H
       atom_frac         0.55427564        1.95776395        3.08795979  O
       atom_frac         0.50381218        2.00136528        3.16452997  H
       atom_frac         0.56983559        1.86896949        3.10491870  H
       atom_frac         0.44147442       -0.26692625       -0.63486923  O
       atom_frac         0.51905581       -0.28060664       -0.70693132  H
       atom_frac         0.48516555       -0.30736845       -0.55509400  H
       atom_frac         2.16759726        1.64553436        0.74374092  O
       atom_frac         2.10762886        1.67639100        0.68718368  H
       atom_frac         2.23612676        1.59719841        0.67992155  H

 
  Finished reading input file 'geometry.in'.
 

 
  Consistency checks for stacksize environment parameter are next.
 
  | Maximum stacksize for task 0: unlimited
  | Maximum stacksize for task 1: unlimited
  | Maximum stacksize for task 2: unlimited
  | Maximum stacksize for task 3: unlimited
  | Maximum stacksize for task 4: unlimited
  | Maximum stacksize for task 5: unlimited
  | Maximum stacksize for task 6: unlimited
  | Maximum stacksize for task 7: unlimited
  | Maximum stacksize for task 8: unlimited
  | Maximum stacksize for task 9: unlimited
  | Maximum stacksize for task 10: unlimited
  | Maximum stacksize for task 11: unlimited
  | Maximum stacksize for task 12: unlimited
  | Maximum stacksize for task 13: unlimited
  | Maximum stacksize for task 14: unlimited
  | Maximum stacksize for task 15: unlimited
  | Maximum stacksize for task 16: unlimited
  | Maximum stacksize for task 17: unlimited
  | Current stacksize for task 0: unlimited
  | Current stacksize for task 1: unlimited
  | Current stacksize for task 2: unlimited
  | Current stacksize for task 3: unlimited
  | Current stacksize for task 4: unlimited
  | Current stacksize for task 5: unlimited
  | Current stacksize for task 6: unlimited
  | Current stacksize for task 7: unlimited
  | Current stacksize for task 8: unlimited
  | Current stacksize for task 9: unlimited
  | Current stacksize for task 10: unlimited
  | Current stacksize for task 11: unlimited
  | Current stacksize for task 12: unlimited
  | Current stacksize for task 13: unlimited
  | Current stacksize for task 14: unlimited
  | Current stacksize for task 15: unlimited
  | Current stacksize for task 16: unlimited
  | Current stacksize for task 17: unlimited
 
  Consistency checks for the contents of control.in are next.
 
  MPI_IN_PLACE appears to work with this MPI implementation.
  | Keeping use_mpi_in_place .true. (see manual).
  Explicit treatment of the Coulomb operator is needed, but the RI method is not specified.
  Coulomb operator: Defaulting to 'LVL fast' resolution of identity - RI_type = LVL_fast
  Species H: Using default value for prodbas_acc =   1.000000E-06.
  Species H: Using default value max_l_prodbas =     6.
  Species O: Using default value for prodbas_acc =   1.000000E-06.
  Species O: Using default value max_l_prodbas =     6.
  Target number of points in a grid batch is not set.  Since GPU acceleration is enabled, defaulting to  200
  Method for grid partitioning is not set. Defaulting to parallel hash+maxmin partitioning.
  Batch size limit is not set. Defaulting to    200
  By default, will store active basis functions for each batch.
  If in need of memory, prune_basis_once .false. can be used to disable this option.
  communication_type for Hartree potential was not specified.
  Defaulting to calc_hartree .
  Defaulting to Pulay charge density mixer.
  Pulay mixer: Number of relevant iterations not set.
  Defaulting to    8 iterations.
  Pulay mixer: Number of initial linear mixing iterations not set.
  Defaulting to    0 iterations.
  Work space size for distributed Hartree potential not set.
  Defaulting to   0.200000E+03 MB.
  Mixing parameter for charge density mixing has not been set.
  Using default: charge_mix_param =     0.0500.
  The mixing parameter will be adjusted in iteration number     2 of the first full s.c.f. cycle only.
  Algorithm-dependent basis array size parameters:
  | n_max_pulay                         :        8
  Maximum number of self-consistency iterations not provided.
  Presetting  1000 iterations.
  Presetting      1001 iterations before the initial mixing cycle
  is restarted anyway using the sc_init_iter criterion / keyword.
  Presetting a factor      1.000 between actual scf density residual
  and density convergence criterion sc_accuracy_rho below which sc_init_iter
  takes no effect.
  Calculation of forces was not defined in control.in. No forces will be calculated.
  Geometry relaxation not requested: no relaxation will be performed.
  No accuracy limit for integral partition fn. given. Defaulting to  0.1000E-14.
  No occupation type (smearing scheme) given. Defaulting to Gaussian broadening, width =  0.1000E-01 eV.
  The width will be adjusted in iteration number     2 of the first full s.c.f. cycle only.
  S.C.F. convergence parameters will be adjusted in iteration number     2 of the first full s.c.f. cycle only.
  No accuracy for occupation numbers given. Defaulting to  0.1000E-12.
  No threshold value for occupation numbers given. Defaulting to  0.0000E+00.
  No accuracy for fermi level given. Defaulting to  0.1000E-19.
  Maximum # of iterations to find E_F not set. Defaulting to  200.
  Preferred method for the eigenvalue solver ('KS_method') not specified in 'control.in'.
  Calling BLACS routine to test compilation state
  Since ScaLAPACK support is enabled, defaulting to ELPA (via ELSI).
  Will not use alltoall communication since running on < 1024 CPUs.
  Threshold for basis singularities not set.
  Default threshold for basis singularities:  0.1000E-04
  partition_type (choice of integration weights) for integrals was not specified.
  | Using a version of the partition function of Stratmann and coworkers ('stratmann_sparse').
  | At each grid point, the set of atoms used to build the partition table is smoothly restricted to
  | only those atoms whose free-atom density would be non-zero at that grid point.
  Partitioning for Hartree potential was not defined. Using partition_type for integrals.
  | Adjusted default value of keyword multip_moments_threshold to:       0.10000000E-11
  | This value may affect high angular momentum components of the Hartree potential in periodic systems.
  Angular momentum expansion for Kerker preconditioner not set explicitly.
  | Using default value of   0
  No explicit requirement for turning off preconditioner.
  | By default, it will be turned off when the charge convergence reaches
  | sc_accuracy_rho  =   0.100000E-05
  No special mixing parameter while Kerker preconditioner is on.
  Using default: charge_mix_param =     0.0500.
  Threshold for auxiliary basis singularities not set.
  Default threshold for auxiliary basis singularities:  0.1000E-04
  No q(lm)/r^(l+1) cutoff set for long-range Hartree potential.
  | Using default value of  0.100000E-09 .
  | Verify using the multipole_threshold keyword.
  Defaulting to new monopole extrapolation.
  Density update method: automatic selection selected.
  Using density matrix based charge density update.
  Using density matrix based charge density update.
  Using packed matrix style: index .
  Defaulting to use time-reversal symmetry for k-point grid.
  Charge integration errors on the 3D integration grid will be compensated
  by explicit normalization and distribution of residual charges.
  Use the "compensate_multipole_errors" flag to change this behaviour.
  Default to 1D ("use_logsbt") integrations for auxiliary 2-center integrals.
  Default onset of logarithmic r-grid for SBT is -38.000000000000
  Default onset of logarithmic k-grid for SBT is -25.000000000000
  Default range of logarithmic r- and k-grid for SBT is  45.000000000000
  Default number of logarithmic r- and k-grid for SBT is   4096
  Default of use_2d_corr is to use the efficient 2D distribution where possible
 
  Consistency checks for the contents of geometry.in are next.
 

  Range separation radius for Ewald summation (hartree_convergence_parameter):      2.95212711 bohr.
  Number of empty states per atom not set in control.in .
  | Since you are using a method that relies on the unoccupied spectrum
  | (MP2,GW,RPA et al.), will use the full Hamiltonian size (see below)
  | as the max. possible number of states (occupied plus empty).

  Structure-dependent array size parameters: 
  | Maximum number of distinct radial functions  :        9
  | Maximum number of basis functions            :      768
  | Number of Kohn-Sham states (occupied + empty):      768
------------------------------------------------------------

  Performing system and environment tests:
  | Environment variable OMP_NUM_THREADS correctly set to 1.
  | Checking for ScaLAPACK...
  | Testing pdtran()...
  | All pdtran() tests passed.
CUDA runtime version: 11060
CUDA driver version: 11060
  Initializing GPUs...

  Number of GPUs available to MPI task         0 :   1
  Number of GPUs available to MPI task         1 :   1
  Number of GPUs available to MPI task         2 :   1
  Number of GPUs available to MPI task         3 :   1
  Number of GPUs available to MPI task         4 :   1
  Number of GPUs available to MPI task         5 :   1
  Number of GPUs available to MPI task         6 :   1
  Number of GPUs available to MPI task         7 :   1
  Number of GPUs available to MPI task         8 :   1
  Number of GPUs available to MPI task         9 :   1
  Number of GPUs available to MPI task        10 :   1
  Number of GPUs available to MPI task        11 :   1
  Number of GPUs available to MPI task        12 :   1
  Number of GPUs available to MPI task        13 :   1
  Number of GPUs available to MPI task        14 :   1
  Number of GPUs available to MPI task        15 :   1
  Number of GPUs available to MPI task        16 :   1
  Number of GPUs available to MPI task        17 :   1

  | MPI task         0, GPU activated = T, Device Name = NVIDIA A100-SXM4-80GB
  | MPI task         1, GPU activated = T, Device Name = NVIDIA A100-SXM4-80GB
  | MPI task         2, GPU activated = T, Device Name = NVIDIA A100-SXM4-80GB
  | MPI task         3, GPU activated = T, Device Name = NVIDIA A100-SXM4-80GB
  | MPI task         4, GPU activated = T, Device Name = NVIDIA A100-SXM4-80GB
  | MPI task         5, GPU activated = T, Device Name = NVIDIA A100-SXM4-80GB
  | MPI task         6, GPU activated = T, Device Name = NVIDIA A100-SXM4-80GB
  | MPI task         7, GPU activated = T, Device Name = NVIDIA A100-SXM4-80GB
  | MPI task         8, GPU activated = T, Device Name = NVIDIA A100-SXM4-80GB
  | MPI task         9, GPU activated = T, Device Name = NVIDIA A100-SXM4-80GB
  | MPI task        10, GPU activated = T, Device Name = NVIDIA A100-SXM4-80GB
  | MPI task        11, GPU activated = T, Device Name = NVIDIA A100-SXM4-80GB
  | MPI task        12, GPU activated = T, Device Name = NVIDIA A100-SXM4-80GB
  | MPI task        13, GPU activated = T, Device Name = NVIDIA A100-SXM4-80GB
  | MPI task        14, GPU activated = T, Device Name = NVIDIA A100-SXM4-80GB
  | MPI task        15, GPU activated = T, Device Name = NVIDIA A100-SXM4-80GB
  | MPI task        16, GPU activated = T, Device Name = NVIDIA A100-SXM4-80GB
  | MPI task        17, GPU activated = T, Device Name = NVIDIA A100-SXM4-80GB

------------------------------------------------------------
          Preparing all fixed parts of the calculation.
------------------------------------------------------------
  Determining machine precision:
    2.225073858507201E-308
  Setting up grids for atomic and cluster calculations.

  Creating wave function, potential, and density for free atoms.
  Runtime choices for atomic solver:
  | atomic solver xc        : PW-LDA
  | compute density gradient: 0
  | compute kinetic density : F

  Species: H

  List of occupied orbitals and eigenvalues:
    n    l              occ      energy [Ha]    energy [eV]
    1    0           1.0000        -0.232375        -6.3233


  Species: O

  List of occupied orbitals and eigenvalues:
    n    l              occ      energy [Ha]    energy [eV]
    1    0           2.0000       -18.757744      -510.4242
    2    0           2.0000        -0.870917       -23.6989
    2    1           4.0000        -0.337950        -9.1961


  Adding cutoff potential to free-atom effective potential.
  Creating fixed part of basis set: Ionic, confined, hydrogenic.
 
  H                    hydrogenic:
 
  List of hydrogenic basis orbitals: 
    n    l      effective z      eigenvalue [eV]  inner max. [A]     outer max. [A]     outer radius [A]   
    2    0         2.100000       -14.9728           0.193243           1.317208           4.696947
    2    1         3.500000       -41.6669           0.602369           0.602369           3.862494
 
 
  O                    hydrogenic:
 
  List of hydrogenic basis orbitals: 
    n    l      effective z      eigenvalue [eV]  inner max. [A]     outer max. [A]     outer radius [A]   
    2    1         1.800000       -10.9749           1.164242           1.164242           4.691341
    3    2         7.600000       -87.3180           0.624125           0.624125           3.413946
    3    0         6.400000       -61.9207           0.061167           1.081902           4.151495
 
  Creating atomic-like basis functions for current effective potential.

  Species H                   :

  List of atomic basis orbitals and eigenvalues:
    n    l      energy [Ha]    energy [eV]    outer radius [A]
    1    0        -0.232375        -6.3233       4.696947


  Species O                   :

  List of atomic basis orbitals and eigenvalues:
    n    l      energy [Ha]    energy [eV]    outer radius [A]
    1    0       -18.757744      -510.4242       1.830144
    2    0        -0.870917       -23.6989       4.578029
    2    1        -0.337950        -9.1961       4.634338

  Assembling full basis from fixed parts.
  | Species H :   atomic orbital   1 s accepted.
  | Species H :    hydro orbital   2 s accepted.
  | Species H :    hydro orbital   2 p accepted.
  | Species O :   atomic orbital   1 s accepted.
  | Species O :    hydro orbital   3 s accepted.
  | Species O :   atomic orbital   2 s accepted.
  | Species O :   atomic orbital   2 p accepted.
  | Species O :    hydro orbital   2 p accepted.
  | Species O :    hydro orbital   3 d accepted.
 
  Basis size parameters after reduction:
  | Total number of radial functions:        9
  | Total number of basis functions :      768
 
  Per-task memory consumption for arrays in subroutine allocate_ext:
  |           2.268304MB.
  Testing on-site integration grid accuracy.
  |  Species  Function  <phi|h_atom|phi> (log., in eV)  <phi|h_atom|phi> (rad., in eV)
           1        1                 -6.3245358373                 -6.3232436907
           1        2                 14.1326137532                 14.1384481100
           1        3                 25.3627025200                 25.3628451197
           2        4               -510.4241781764               -510.4240769407
           2        5                 14.9072942213                 14.9072945271
           2        6                -21.2004736474                -21.2005650551
           2        7                 -9.1962086505                 -9.1963509834
           2        8                  8.1896755006                  8.1702200081
           2        9                 45.7920584937                 45.7920228520

  Preparing densities etc. for the partition functions (integrals / Hartree potential).

  Preparations completed.
  max(cpu_time)          :      0.070 s.
  Wall clock time (cpu1) :      0.065 s.
------------------------------------------------------------

  Initializing index lists of integration centers etc. from given atomic structure:
  Mapping all atomic coordinates to central unit cell.

  Initializing the k-points
  Using symmetry for reducing the k-points
  | k-points reduced from:        1 to        1
  | Number of k-points                             :         1
  | Consuming          0 KiB for k_phase_exx.
  The eigenvectors in the calculations are REAL.
  | Number of basis functions in the Hamiltonian integrals :      4380
  | Number of basis functions in a single unit cell        :       768
  | Number of centers in hartree potential         :      2590
  | Number of centers in hartree multipole         :      1922
  | Number of centers in electron density summation:      1496
  | Number of centers in basis integrals           :      1614
  | Number of centers in integrals                 :       703
  | Number of centers in hamiltonian               :      1497
  | Consuming          0 KiB for k_phase.
  | Number of super-cells (origin) [n_cells]                     :         125
  | Number of super-cells (after PM_index) [n_cells]             :          28
  | Number of super-cells in hamiltonian [n_cells_in_hamiltonian]:          28
  | Size of matrix packed + index [n_hamiltonian_matrix_size] :      806714
  | Size of matrix packed + index (no_symmetry):     1612659

------------------------------------------------------------
          Begin self-consistency loop: Initialization.

          Date     :  20230221, Time     :  140717.718
------------------------------------------------------------
  | Estimated reciprocal-space cutoff momentum G_max:         3.20383981 bohr^-1 .
  | Reciprocal lattice points for long-range Hartree potential:    3574
  Using simple linear distribution as default method for k-point parallelism.
  * Using 18 tasks for Scalapack Eigenvalue solver.
  Detailed listing of tasks and assigned k-points:
   Task     0 k-point     1 on adag037
   Task     1 k-point     1 on adag037
   Task     2 k-point     1 on adag037
   Task     3 k-point     1 on adag037
   Task     4 k-point     1 on adag037
   Task     5 k-point     1 on adag037
   Task     6 k-point     1 on adag037
   Task     7 k-point     1 on adag037
   Task     8 k-point     1 on adag037
   Task     9 k-point     1 on adag037
   Task    10 k-point     1 on adag037
   Task    11 k-point     1 on adag037
   Task    12 k-point     1 on adag037
   Task    13 k-point     1 on adag037
   Task    14 k-point     1 on adag037
   Task    15 k-point     1 on adag037
   Task    16 k-point     1 on adag037
   Task    17 k-point     1 on adag037
  K-point:     1 Tasks:    18 split into      6 X      3 BLACS grid
  Calculating block size based on n_basis =          768  max_nprow =            6  max_npcol =            3
  ScaLAPACK block size set to:           16
  Allocating        0.250 MB for ovlp
  Allocating        0.250 MB for ham
  Allocating        0.250 MB for eigenvec
  Required Scalapack workspace - INTEGER:            1  REAL:             1
  Partitioning the integration grid into batches with parallel hashing+maxmin method.
  | Number of batches:     3999
  | Maximal batch size:     200
  | Minimal batch size:      99
  | Average batch size:     127.424
  | Standard deviation of batch sizes:      23.700

  Integration load balanced across    18 MPI tasks.
  Work distribution over tasks is as follows:
  Task     0 has      28338 integration points.
  Task     1 has      28270 integration points.
  Task     2 has      28323 integration points.
  Task     3 has      28381 integration points.
  Task     4 has      28339 integration points.
  Task     5 has      28319 integration points.
  Task     6 has      28359 integration points.
  Task     7 has      28273 integration points.
  Task     8 has      28282 integration points.
  Task     9 has      28281 integration points.
  Task    10 has      28265 integration points.
  Task    11 has      28320 integration points.
  Task    12 has      28309 integration points.
  Task    13 has      28315 integration points.
  Task    14 has      28275 integration points.
  Task    15 has      28358 integration points.
  Task    16 has      28253 integration points.
  Task    17 has      28308 integration points.
  Initializing partition tables, free-atom densities, potentials, etc. across the integration grid (initialize_grid_storage).
  | initialize_grid_storage: Actual outermost partition radius vs. multipole_radius_free
  | (-- VB: in principle, multipole_radius_free should be larger, hence this output)
  | Species        1: Confinement radius =              4.999999999999999 AA, multipole_radius_free =              5.054417573612229 AA.
  | Species        1: outer_partition_radius set to              5.054417573612229 AA .
  | Species        2: Confinement radius =              4.999999999999999 AA, multipole_radius_free =              5.048384829883283 AA.
  | Species        2: outer_partition_radius set to              5.048384829883283 AA .
  | The sparse table of interatomic distances needs       5463.48 kbyte instead of     20839.97 kbyte of memory.
  | Net number of integration points:   509568
  | of which are non-zero points    :   405542
  | Numerical average free-atom electrostatic potential    :     -5.53669981 eV
  Renormalizing the initial density to the exact electron count on the 3D integration grid.
  | Initial density: Formal number of electrons (from input files) :     320.0000000000
  | Integrated number of electrons on 3D grid     :     320.0020320424
  | Charge integration error                      :       0.0020320424
  | Normalization factor for density and gradient :       0.9999936499
  Renormalizing the free-atom superposition density to the exact electron count on the 3D integration grid.
  | Formal number of electrons (from input files) :     320.0000000000
  | Integrated number of electrons on 3D grid     :     320.0020320424
  | Charge integration error                      :       0.0020320424
  | Normalization factor for density and gradient :       0.9999936499
  Obtaining max. number of non-zero basis functions in each batch (get_n_compute_maxes).
  | Maximal number of non-zero basis functions:      430 in task     0
  | Maximal number of non-zero basis functions:      423 in task     1
  | Maximal number of non-zero basis functions:      457 in task     2
  | Maximal number of non-zero basis functions:      427 in task     3
  | Maximal number of non-zero basis functions:      431 in task     4
  | Maximal number of non-zero basis functions:      439 in task     5
  | Maximal number of non-zero basis functions:      422 in task     6
  | Maximal number of non-zero basis functions:      447 in task     7
  | Maximal number of non-zero basis functions:      457 in task     8
  | Maximal number of non-zero basis functions:      425 in task     9
  | Maximal number of non-zero basis functions:      449 in task    10
  | Maximal number of non-zero basis functions:      443 in task    11
  | Maximal number of non-zero basis functions:      433 in task    12
  | Maximal number of non-zero basis functions:      420 in task    13
  | Maximal number of non-zero basis functions:      434 in task    14
  | Maximal number of non-zero basis functions:      434 in task    15
  | Maximal number of non-zero basis functions:      425 in task    16
  | Maximal number of non-zero basis functions:      432 in task    17
  Integrating Hamiltonian matrix: batch-based integration.
  GPU acceleration will be used when integrating the Hamiltonian matrix.
  Reporting GPU memory usage by myid 0.  Note that it is likely not the only MPI task binding to its GPU!
  Allocating        1.479 MB on GPU for hamiltonian_shell
  Allocating        0.688 MB on GPU for wave
  Allocating        0.002 MB on GPU for partition
  Allocating        0.688 MB on GPU for h_times_psi
  Time summed over all CPUs for integration: real work       13.208 s, elapsed       13.643 s
  Deallocating memory used on GPU for Hamiltonian integration.
  Integrating overlap matrix.
  Time summed over all CPUs for integration: real work       10.802 s, elapsed       10.995 s
  Deallocating overlap matrix.

  Updating Kohn-Sham eigenvalues and eigenvectors using ELSI and the ELPA eigensolver.
  Singularity check in k-point 1 (analysis for other k-points may follow below):
  Overlap matrix is not singular
  | Lowest and highest eigenvalues :  0.1949E-02,  0.7531E+01
  Finished singularity check of overlap matrix
  | Time :     3.229 s
  Starting ELPA eigensolver (GPU)
  Finished Cholesky decomposition
  | Time :     0.015 s
  Finished transformation to standard eigenproblem
  | Time :     0.569 s
  Finished solving standard eigenproblem
  | Time :     1.977 s
  Finished back-transformation of eigenvectors
  | Time :     0.029 s

  Obtaining occupation numbers and electronic chemical potential using ELSI.
  | Note that, for insulating systems, the printed 'chemical potential' value is not uniquely defined.
  | It can be anywhere in the energy gap, as long as it correctly separates occupied and unoccupied states.
  | In systems with a gap, the physically relevant chemical potential is the VBM or HOMO.

  | Chemical potential (Fermi level):    -7.08615192 eV
  Writing Kohn-Sham eigenvalues.

  State    Occupation    Eigenvalue [Ha]    Eigenvalue [eV]
      1       2.00000         -18.922557         -514.90898
      2       2.00000         -18.912158         -514.62599
      3       2.00000         -18.901693         -514.34123
      4       2.00000         -18.894951         -514.15779
      5       2.00000         -18.893094         -514.10723
      6       2.00000         -18.890928         -514.04830
      7       2.00000         -18.889696         -514.01479
      8       2.00000         -18.887867         -513.96501
      9       2.00000         -18.887816         -513.96362
     10       2.00000         -18.886679         -513.93267
     11       2.00000         -18.885180         -513.89190
     12       2.00000         -18.882721         -513.82498
     13       2.00000         -18.881786         -513.79953
     14       2.00000         -18.880321         -513.75967
     15       2.00000         -18.880287         -513.75876
     16       2.00000         -18.880011         -513.75123
     17       2.00000         -18.875726         -513.63463
     18       2.00000         -18.874049         -513.58901
     19       2.00000         -18.870855         -513.50209
     20       2.00000         -18.868544         -513.43921
     21       2.00000         -18.868099         -513.42710
     22       2.00000         -18.865633         -513.36000
     23       2.00000         -18.864067         -513.31739
     24       2.00000         -18.863254         -513.29527
     25       2.00000         -18.860993         -513.23372
     26       2.00000         -18.860814         -513.22885
     27       2.00000         -18.857134         -513.12871
     28       2.00000         -18.855657         -513.08852
     29       2.00000         -18.851991         -512.98878
     30       2.00000         -18.843760         -512.76480
     31       2.00000         -18.838498         -512.62160
     32       2.00000         -18.834155         -512.50344
     33       2.00000          -1.187172          -32.30459
     34       2.00000          -1.162222          -31.62566
     35       2.00000          -1.153880          -31.39868
     36       2.00000          -1.142846          -31.09841
     37       2.00000          -1.139301          -31.00196
     38       2.00000          -1.137818          -30.96159
     39       2.00000          -1.135146          -30.88890
     40       2.00000          -1.131856          -30.79936
     41       2.00000          -1.128971          -30.72086
     42       2.00000          -1.126912          -30.66484
     43       2.00000          -1.122948          -30.55697
     44       2.00000          -1.120840          -30.49962
     45       2.00000          -1.118463          -30.43493
     46       2.00000          -1.113593          -30.30242
     47       2.00000          -1.112589          -30.27510
     48       2.00000          -1.112081          -30.26125
     49       2.00000          -1.107762          -30.14375
     50       2.00000          -1.105508          -30.08240
     51       2.00000          -1.101003          -29.95982
     52       2.00000          -1.097325          -29.85974
     53       2.00000          -1.096921          -29.84874
     54       2.00000          -1.089597          -29.64943
     55       2.00000          -1.086275          -29.55906
     56       2.00000          -1.081934          -29.44093
     57       2.00000          -1.079945          -29.38679
     58       2.00000          -1.079753          -29.38158
     59       2.00000          -1.075730          -29.27212
     60       2.00000          -1.068485          -29.07497
     61       2.00000          -1.061428          -28.88293
     62       2.00000          -1.057845          -28.78544
     63       2.00000          -1.041843          -28.35000
     64       2.00000          -1.033746          -28.12965
     65       2.00000          -0.712686          -19.39318
     66       2.00000          -0.710758          -19.34070
     67       2.00000          -0.696023          -18.93975
     68       2.00000          -0.687488          -18.70749
     69       2.00000          -0.684435          -18.62441
     70       2.00000          -0.681424          -18.54248
     71       2.00000          -0.679617          -18.49331
     72       2.00000          -0.674141          -18.34430
     73       2.00000          -0.670553          -18.24667
     74       2.00000          -0.666359          -18.13255
     75       2.00000          -0.664187          -18.07344
     76       2.00000          -0.662468          -18.02668
     77       2.00000          -0.661342          -17.99603
     78       2.00000          -0.658113          -17.90816
     79       2.00000          -0.656680          -17.86916
     80       2.00000          -0.656167          -17.85521
     81       2.00000          -0.653571          -17.78457
     82       2.00000          -0.647586          -17.62172
     83       2.00000          -0.647064          -17.60752
     84       2.00000          -0.641226          -17.44864
     85       2.00000          -0.638339          -17.37008
     86       2.00000          -0.636009          -17.30669
     87       2.00000          -0.632537          -17.21220
     88       2.00000          -0.628656          -17.10659
     89       2.00000          -0.623129          -16.95620
     90       2.00000          -0.620244          -16.87768
     91       2.00000          -0.616018          -16.76270
     92       2.00000          -0.615774          -16.75607
     93       2.00000          -0.612646          -16.67095
     94       2.00000          -0.592467          -16.12185
     95       2.00000          -0.588318          -16.00894
     96       2.00000          -0.576771          -15.69475
     97       2.00000          -0.574214          -15.62516
     98       2.00000          -0.572844          -15.58788
     99       2.00000          -0.564533          -15.36173
    100       2.00000          -0.557145          -15.16070
    101       2.00000          -0.553529          -15.06228
    102       2.00000          -0.552298          -15.02880
    103       2.00000          -0.550320          -14.97497
    104       2.00000          -0.549762          -14.95979
    105       2.00000          -0.548340          -14.92109
    106       2.00000          -0.546267          -14.86467
    107       2.00000          -0.544781          -14.82426
    108       2.00000          -0.538523          -14.65395
    109       2.00000          -0.534171          -14.53553
    110       2.00000          -0.533121          -14.50696
    111       2.00000          -0.532731          -14.49635
    112       2.00000          -0.531878          -14.47315
    113       2.00000          -0.527475          -14.35333
    114       2.00000          -0.525568          -14.30144
    115       2.00000          -0.521758          -14.19775
    116       2.00000          -0.521001          -14.17716
    117       2.00000          -0.516792          -14.06261
    118       2.00000          -0.516075          -14.04312
    119       2.00000          -0.515182          -14.01881
    120       2.00000          -0.511224          -13.91112
    121       2.00000          -0.508779          -13.84458
    122       2.00000          -0.507253          -13.80306
    123       2.00000          -0.504688          -13.73326
    124       2.00000          -0.500063          -13.60742
    125       2.00000          -0.499657          -13.59635
    126       2.00000          -0.495336          -13.47877
    127       2.00000          -0.492563          -13.40333
    128       2.00000          -0.489857          -13.32967
    129       2.00000          -0.484822          -13.19267
    130       2.00000          -0.482859          -13.13926
    131       2.00000          -0.478566          -13.02246
    132       2.00000          -0.476226          -12.95876
    133       2.00000          -0.475217          -12.93132
    134       2.00000          -0.473465          -12.88364
    135       2.00000          -0.470494          -12.80280
    136       2.00000          -0.469999          -12.78931
    137       2.00000          -0.468546          -12.74979
    138       2.00000          -0.467826          -12.73019
    139       2.00000          -0.465955          -12.67928
    140       2.00000          -0.464926          -12.65129
    141       2.00000          -0.463856          -12.62217
    142       2.00000          -0.460503          -12.53092
    143       2.00000          -0.459212          -12.49579
    144       2.00000          -0.458548          -12.47772
    145       2.00000          -0.458436          -12.47467
    146       2.00000          -0.456843          -12.43134
    147       2.00000          -0.455683          -12.39978
    148       2.00000          -0.455604          -12.39763
    149       2.00000          -0.452076          -12.30160
    150       2.00000          -0.449730          -12.23778
    151       2.00000          -0.449437          -12.22980
    152       2.00000          -0.446427          -12.14789
    153       2.00000          -0.445404          -12.12005
    154       2.00000          -0.444572          -12.09742
    155       2.00000          -0.443628          -12.07173
    156       2.00000          -0.442440          -12.03941
    157       2.00000          -0.437457          -11.90381
    158       2.00000          -0.432178          -11.76017
    159       2.00000          -0.427745          -11.63953
    160       2.00000          -0.420880          -11.45273
    161       0.00000          -0.177487           -4.82968
    162       0.00000          -0.120973           -3.29185
    163       0.00000          -0.117831           -3.20635
    164       0.00000          -0.115919           -3.15431
    165       0.00000          -0.106773           -2.90543
    166       0.00000          -0.102686           -2.79423
    167       0.00000          -0.098261           -2.67381
    168       0.00000          -0.078553           -2.13753
    169       0.00000          -0.073720           -2.00603
    170       0.00000          -0.072176           -1.96402
    171       0.00000          -0.066696           -1.81488
    172       0.00000          -0.062454           -1.69945
    173       0.00000          -0.060314           -1.64122
    174       0.00000          -0.054723           -1.48908
    175       0.00000          -0.053216           -1.44807
    176       0.00000          -0.046879           -1.27565
    177       0.00000          -0.042473           -1.15575
    178       0.00000          -0.033399           -0.90885
    179       0.00000          -0.025070           -0.68219
    180       0.00000          -0.019304           -0.52529
    181       0.00000          -0.016462           -0.44795
    182       0.00000          -0.013921           -0.37882
    183       0.00000          -0.011848           -0.32241
    184       0.00000          -0.009790           -0.26639
    185       0.00000          -0.000942           -0.02564
    186       0.00000           0.006952            0.18917
    187       0.00000           0.015969            0.43454
    188       0.00000           0.018884            0.51386
    189       0.00000           0.024823            0.67547
    190       0.00000           0.029812            0.81122
    191       0.00000           0.033577            0.91368
    192       0.00000           0.035732            0.97232
    193       0.00000           0.036909            1.00436
    194       0.00000           0.037938            1.03235
    195       0.00000           0.042705            1.16207
    196       0.00000           0.046579            1.26747
    197       0.00000           0.051195            1.39310
    198       0.00000           0.052693            1.43386
    199       0.00000           0.054925            1.49458
    200       0.00000           0.058149            1.58231
    201       0.00000           0.062156            1.69136
    202       0.00000           0.066264            1.80314
    203       0.00000           0.068992            1.87737
    204       0.00000           0.071403            1.94298
    205       0.00000           0.073659            2.00436
    206       0.00000           0.075753            2.06136
    207       0.00000           0.080290            2.18479
    208       0.00000           0.082502            2.24500
    209       0.00000           0.084057            2.28731
    210       0.00000           0.086351            2.34972
    211       0.00000           0.088979            2.42125
    212       0.00000           0.091705            2.49542
    213       0.00000           0.094766            2.57871
    214       0.00000           0.097483            2.65264
    215       0.00000           0.100363            2.73102
    216       0.00000           0.101848            2.77143
    217       0.00000           0.108447            2.95098
    218       0.00000           0.111123            3.02382
    219       0.00000           0.115344            3.13866
    220       0.00000           0.119006            3.23831
    221       0.00000           0.126554            3.44371
    222       0.00000           0.129881            3.53425
    223       0.00000           0.134301            3.65453
    224       0.00000           0.143760            3.91191
    225       0.00000           0.148743            4.04750
    226       0.00000           0.158504            4.31311
    227       0.00000           0.167091            4.54677
    228       0.00000           0.170523            4.64016
    229       0.00000           0.171833            4.67580
    230       0.00000           0.177210            4.82214
    231       0.00000           0.184944            5.03258
    232       0.00000           0.187906            5.11318
    233       0.00000           0.193979            5.27844
    234       0.00000           0.200037            5.44330
    235       0.00000           0.207940            5.65833
    236       0.00000           0.214291            5.83116
    237       0.00000           0.219898            5.98373
    238       0.00000           0.222306            6.04925
    239       0.00000           0.230071            6.26055
    240       0.00000           0.232608            6.32957
    241       0.00000           0.239302            6.51174
    242       0.00000           0.244263            6.64673
    243       0.00000           0.248390            6.75904
    244       0.00000           0.257312            7.00182
    245       0.00000           0.265504            7.22474
    246       0.00000           0.272927            7.42671
    247       0.00000           0.280476            7.63214
    248       0.00000           0.284186            7.73310
    249       0.00000           0.289217            7.87000
    250       0.00000           0.291653            7.93628
    251       0.00000           0.301437            8.20252
    252       0.00000           0.305631            8.31663
    253       0.00000           0.311223            8.46880
    254       0.00000           0.319012            8.68075
    255       0.00000           0.327713            8.91752
    256       0.00000           0.339411            9.23584
    257       0.00000           0.341049            9.28042
    258       0.00000           0.346575            9.43078
    259       0.00000           0.358586            9.75762
[...]
  |    H      0     4.527807 A      4.527807 A        1.268855E-16 a.u.
  |    H      0     4.527807 A      4.583499 A       -4.900954E-17 a.u.
  |    H      0     4.527807 A      4.583499 A        4.713786E-16 a.u.
  |    H      2     3.678162 A  2.180220E+05 A            0.556529 a.u.
  |    H      1     3.958095 A  1.721251E+08 A            0.841931 a.u.
  |    H      0     4.527807 A  3.866455E+16 A            0.581436 a.u.
  |    O      0     2.043000 A      2.043000 A       -1.436841E-16 a.u.
  |    O      3     3.498446 A      3.498446 A        3.043453E-17 a.u.
  |    O      3     3.498446 A      3.498446 A        1.541443E-16 a.u.
  |    O      0     3.905335 A      3.905335 A        2.173090E-16 a.u.
  |    O      0     3.905335 A      3.905335 A        7.213445E-17 a.u.
  |    O      0     4.101052 A      4.101052 A        2.361718E-16 a.u.
  |    O      1     4.101052 A      4.101052 A        3.235185E-17 a.u.
  |    O      0     4.359549 A      4.359549 A       -5.329475E-17 a.u.
  |    O      1     4.413171 A      4.413171 A        3.261883E-17 a.u.
  |    O      1     4.522403 A      4.522403 A        6.417997E-16 a.u.
  |    O      1     4.522403 A      4.522403 A        4.224783E-16 a.u.
  |    O      2     4.522403 A      4.522403 A       -4.387647E-16 a.u.
  |    O      0     4.522403 A      4.578029 A        2.602039E-16 a.u.
  |    O      0     4.578029 A      4.578029 A        1.226235E-16 a.u.
  |    O      1     4.578029 A      4.578029 A       -6.107316E-16 a.u.
  |    O      1     4.578029 A      4.578029 A       -2.224438E-16 a.u.
  |    O      2     4.578029 A      4.578029 A       -7.020279E-16 a.u.
  |    O      2     4.522403 A      4.578029 A        1.323470E-15 a.u.
  |    O      2     4.578029 A      4.578029 A        7.923696E-16 a.u.
  |    O      2     4.522403 A      4.578029 A       -9.951815E-16 a.u.
  |    O      0     4.578029 A      4.634338 A       -8.813582E-18 a.u.
  |    O      1     4.578029 A      4.634338 A       -3.325386E-17 a.u.
  |    O      1     4.634338 A      4.634338 A        9.588032E-16 a.u.
  |    O      2     4.578029 A      4.634338 A        1.064715E-17 a.u.
  |    O      2     4.578029 A      4.634338 A       -3.770343E-15 a.u.
  |    O      4     3.251020 A  1.511584E+03 A            1.513372 a.u.
  |    O      3     3.541477 A  1.434166E+04 A            4.293220 a.u.
  |    O      2     4.634338 A  5.584435E+05 A            9.352428 a.u.
  |    O      1     4.634338 A  2.821283E+08 A            2.261940 a.u.
  |    O      0     4.578029 A  4.264100E+16 A            0.641234 a.u.

  | Shrink_full_auxil_basis : there are       38  radial auxiliary wave functions
                            accepted and       5 rejected.
  | Shrink_full_auxil_basis : there are totally                4544 partial auxiliary wave functions.
 
  | Maximal number of product basis functions per thread :   256   256
 
  | Minimal total memory requirement for three-center overlap :      10.450 Gbs
  | Number of local auxiliary basis functions on task:      0   256
  | Number of local auxiliary basis functions on task:      1   256
  | Number of local auxiliary basis functions on task:      2   256
  | Number of local auxiliary basis functions on task:      3   256
  | Number of local auxiliary basis functions on task:      4   256
  | Number of local auxiliary basis functions on task:      5   256
  | Number of local auxiliary basis functions on task:      6   256
  | Number of local auxiliary basis functions on task:      7   256
  | Number of local auxiliary basis functions on task:      8   256
  | Number of local auxiliary basis functions on task:      9   256
  | Number of local auxiliary basis functions on task:     10   256
  | Number of local auxiliary basis functions on task:     11   256
  | Number of local auxiliary basis functions on task:     12   256
  | Number of local auxiliary basis functions on task:     13   256
  | Number of local auxiliary basis functions on task:     14   240
  | Number of local auxiliary basis functions on task:     15   240
  | Number of local auxiliary basis functions on task:     16   240
  | Number of local auxiliary basis functions on task:     17   240
  | 2D aux task distribution:      3 X      6
  | 2D block size (nb_aux_2d):     64
 
  Basis pair condensation :    295296  -->     229656
 
 --------------------------------------------
  Constructing auxiliary basis (full product) ...
 
  Product basis:
  | charge radius: extent of product basis function
  | field radius: extent of its Coulomb potential
  | Species   l  charge radius    field radius  multipol momen
  |    H      1     3.910002 A      3.910002 A       -2.487223E-16 a.u.
  |    H      1     3.958095 A      3.958095 A       -2.441841E-16 a.u.
  |    H      0     4.527807 A      4.527807 A        1.268855E-16 a.u.
  |    H      0     4.527807 A      4.583499 A       -4.900954E-17 a.u.
  |    H      0     4.527807 A      4.583499 A        4.713786E-16 a.u.
  |    H      2     3.678162 A  2.180220E+05 A            0.556529 a.u.
  |    H      1     3.958095 A  1.721251E+08 A            0.841931 a.u.
  |    H      0     4.527807 A  3.866455E+16 A            0.581436 a.u.
  |    O      0     2.043000 A      2.043000 A       -1.436841E-16 a.u.
  |    O      3     3.498446 A      3.498446 A        3.043453E-17 a.u.
  |    O      3     3.498446 A      3.498446 A        1.541443E-16 a.u.
  |    O      0     3.905335 A      3.905335 A        2.173090E-16 a.u.
  |    O      0     3.905335 A      3.905335 A        7.213445E-17 a.u.
  |    O      0     4.101052 A      4.101052 A        2.361718E-16 a.u.
  |    O      1     4.101052 A      4.101052 A        3.235185E-17 a.u.
  |    O      0     4.359549 A      4.359549 A       -5.329475E-17 a.u.
  |    O      1     4.413171 A      4.413171 A        3.261883E-17 a.u.
  |    O      1     4.522403 A      4.522403 A        6.417997E-16 a.u.
  |    O      1     4.522403 A      4.522403 A        4.224783E-16 a.u.
  |    O      2     4.522403 A      4.522403 A       -4.387647E-16 a.u.
  |    O      0     4.522403 A      4.578029 A        2.602039E-16 a.u.
  |    O      0     4.578029 A      4.578029 A        1.226235E-16 a.u.
  |    O      1     4.578029 A      4.578029 A       -6.107316E-16 a.u.
  |    O      1     4.578029 A      4.578029 A       -2.224438E-16 a.u.
  |    O      2     4.578029 A      4.578029 A       -7.020279E-16 a.u.
  |    O      2     4.522403 A      4.578029 A        1.323470E-15 a.u.
  |    O      2     4.578029 A      4.578029 A        7.923696E-16 a.u.
  |    O      2     4.522403 A      4.578029 A       -9.951815E-16 a.u.
  |    O      0     4.578029 A      4.634338 A       -8.813582E-18 a.u.
  |    O      1     4.578029 A      4.634338 A       -3.325386E-17 a.u.
  |    O      1     4.634338 A      4.634338 A        9.588032E-16 a.u.
  |    O      2     4.578029 A      4.634338 A        1.064715E-17 a.u.
  |    O      2     4.578029 A      4.634338 A       -3.770343E-15 a.u.
  |    O      4     3.251020 A  1.511584E+03 A            1.513372 a.u.
  |    O      3     3.541477 A  1.434166E+04 A            4.293220 a.u.
  |    O      2     4.634338 A  5.584435E+05 A            9.352428 a.u.
  |    O      1     4.634338 A  2.821283E+08 A            2.261940 a.u.
  |    O      0     4.578029 A  4.264100E+16 A            0.641234 a.u.

  | Shrink_full_auxil_basis : there are       38  radial auxiliary wave functions
                            accepted and       5 rejected.
  | Shrink_full_auxil_basis : there are totally                4544 partial auxiliary wave functions.
 
  | Maximal number of product basis functions per thread :   256   256
 
  | Minimal total memory requirement for three-center overlap :      10.450 Gbs
  | Number of local auxiliary basis functions on task:      0   256
  | Number of local auxiliary basis functions on task:      1   256
  | Number of local auxiliary basis functions on task:      2   256
  | Number of local auxiliary basis functions on task:      3   256
  | Number of local auxiliary basis functions on task:      4   256
  | Number of local auxiliary basis functions on task:      5   256
  | Number of local auxiliary basis functions on task:      6   256
  | Number of local auxiliary basis functions on task:      7   256
  | Number of local auxiliary basis functions on task:      8   256
  | Number of local auxiliary basis functions on task:      9   256
  | Number of local auxiliary basis functions on task:     10   256
  | Number of local auxiliary basis functions on task:     11   256
  | Number of local auxiliary basis functions on task:     12   256
  | Number of local auxiliary basis functions on task:     13   256
  | Number of local auxiliary basis functions on task:     14   240
  | Number of local auxiliary basis functions on task:     15   240
  | Number of local auxiliary basis functions on task:     16   240
  | Number of local auxiliary basis functions on task:     17   240
  | 2D aux task distribution:      3 X      6
  | 2D block size (nb_aux_2d):     64
 
  Basis pair condensation :    295296  -->     229656
dP_dE (Bohr^3) at every cycle:--->
 (345.461866376421,0.000000000000000E+000) (7.60021928086189,0.000000000000000E+000) (-3.30474027631751,0.000000000000000E+000)
 (7.61046223746796,0.000000000000000E+000) (350.499845433470,0.000000000000000E+000) (6.85206182133012,0.000000000000000E+000)
 (-3.30373850847517,0.000000000000000E+000) (6.85961788464717,0.000000000000000E+000) (362.312758645384,0.000000000000000E+000)
DFPT polarizability (Bohr^3)        xx        yy        zz        xy        xz        yz
  | Polarizability:--->                       345.461866376                  350.499845433                  362.312758645                    7.600219281                   -3.304740276                    6.852061821

DFPT for dielectric_constant:--->  # PARSE DFPT_dielectric_tensor
               1.683461219571537             0.015036262014080            -0.006538093026910
               0.015056526663511             1.693428349508695             0.013556108458822
              -0.006536111130968             0.013571057362746             1.716798998649199

                                               :  max(cpu_time)    wall_clock(cpu1)
  | Time for  dielectric calculation            :        0.000 s           0.000 s
===========================================================================

------------------------------------------------------------------------------
  Final output of selected total energy values:

  The following output summarizes some interesting total energy values
  at the end of a run (AFTER all relaxation, molecular dynamics, etc.).

  | Total energy of the DFT / Hartree-Fock s.c.f. calculation      :         -66107.796164912 eV
  | Final zero-broadening corrected energy (caution - metals only) :         -66107.796164912 eV
  | For reference only, the value of 1 Hartree used in FHI-aims is :             27.211384500 eV
  | For reference only, the overall average (free atom contribution
  | + realspace contribution) of the electrostatic potential after
  | s.c.f. convergence is                                          :             -5.108556933 eV

  Before relying on these values, please be sure to understand exactly which
  total energy value is referred to by a given number. Different objects may
  all carry the same name 'total energy'. Definitions:

  Total energy of the DFT / Hartree-Fock s.c.f. calculation:
  | Note that this energy does not include ANY quantities calculated after the
  | s.c.f. cycle, in particular not ANY RPA, MP2, etc. many-body perturbation terms.

  Final zero-broadening corrected energy:
  | For metallic systems only, a broadening of the occupation numbers at the Fermi
  | level can be extrapolated back to zero broadening by an electron-gas inspired
  | formula. For all systems that are not real metals, this value can be
  | meaningless and should be avoided.

------------------------------------------------------------------------------
  Methods described in the following list of references were used in this FHI-aims run.
  If you publish the results, please make sure to cite these reference if they apply.
  FHI-aims is an academic code, and for our developers (often, Ph.D. students
  and postdocs), scientific credit in the community is essential.
  Thank you for helping us!

  For any use of FHI-aims, please cite:

    Volker Blum, Ralf Gehrke, Felix Hanke, Paula Havu, Ville Havu,
    Xinguo Ren, Karsten Reuter, and Matthias Scheffler
    'Ab initio molecular simulations with numeric atom-centered orbitals'
    Computer Physics Communications 180, 2175-2196 (2009)
    http://doi.org/10.1016/j.cpc.2009.06.022


  For Hartree-Fock, hybrid functionals, or many-body perturbation theory used in your run, please cite:

    Xinguo Ren, Patrick Rinke, Volker Blum, Juergen Wieferink, Alex Tkatchenko,
    Andrea Sanfilippo, Karsten Reuter, and Matthias Scheffler,
    'Resolution-of-identity approach to Hartree-Fock, hybrid density functionals,
    RPA, MP2, and GW with numeric atom-centered orbital basis functions'
    New Journal of Physics 14, 053020 (2012).
    http://doi.org/10.1088/1367-2630/14/5/053020


  The provided symmetry information was generated with SPGlib:

    Atsushi Togo, Yusuke Seto, Dimitar Pashov
    SPGlib 1.7.3 obtained from http://spglib.sourceforge.net
    Copyright (C) 2008 Atsushi Togo


  The DFPT (perturbation by an electric field) part of the code was used.
  Here is the corresponding reference:

    Honghui Shang, Nathaniel Raimbault, Mariana Rossi,
    Christian Carbogno, Patrick Rinke and Matthias Scheffler,
    'All-Electron, Real-Space Perturbation Theory for Homogeneous
    Electric Fields: Theory, Implementation, and Application within dft'
    New Journal of Physics, 20(7):073040, 2018


  The ELSI infrastructure was used in your run to solve the Kohn-Sham electronic structure.
  Please check out http://elsi-interchange.org to learn more.
  If scalability is important for your project, please acknowledge ELSI by citing:

    V. W-z. Yu, F. Corsetti, A. Garcia, W. P. Huhn, M. Jacquelin, W. Jia,
    B. Lange, L. Lin, J. Lu, W. Mi, A. Seifitokaldani, A. Vazquez-Mayagoitia,
    C. Yang, H. Yang, and V. Blum
    'ELSI: A unified software interface for Kohn-Sham electronic structure solvers'
    Computer Physics Communications 222, 267-285 (2018).
    http://doi.org/10.1016/j.cpc.2017.09.007


  For the real-space grid partitioning and parallelization used in this calculation, please cite:

    Ville Havu, Volker Blum, Paula Havu, and Matthias Scheffler,
    'Efficient O(N) integration for all-electron electronic structure calculation'
    'using numerically tabulated basis functions'
    Journal of Computational Physics 228, 8367-8379 (2009).
    http://doi.org/10.1016/j.jcp.2009.08.008


  The high-level electronic structure method used in your calculation
  employed our efficient localized resolution of identity for the Coulomb operator.
  Some calculations, especially large-scale hybrid density functional theory,
  are only possible thanks to this development. For this feature, please cite:

    Arvid Ihrig, Juergen Wieferink, Igor Ying Zhang, Matti Ropo, Xinguo Ren,
    Patrick Rinke, Matthias Scheffler, and Volker Blum,
    'Accurate localized resolution of identity approach for linear-scaling
    hybrid density functionals and for many-body perturbation theory'
    New Journal of Physics 117, 093020 (2015).
    http://doi.org/10.1088/1367-2630/17/9/093020

  Of course, there are many other important community references, e.g., those cited in the
  above references. Our list is limited to references that describe implementations in the
  FHI-aims code. The reason is purely practical (length of this list) - please credit others as well.

------------------------------------------------------------
          Leaving FHI-aims.
          Date     :  20230221, Time     :  141606.074

          Computational steps:
          | Number of self-consistency cycles          :           45
          | Number of SCF (re)initializations          :            1
          | Number of coupled perturbed self-consistency cycles          :            0
          | Number of CPSCF (re)initializations          :            0

          Detailed time accounting                     :  max(cpu_time)    wall_clock(cpu1)
          | Total time                                  :      517.565 s         543.201 s
          | GPU initialization                          :        2.660 s          13.451 s
          | Preparation time                            :        0.070 s           0.065 s
          | Boundary condition initalization            :        1.275 s           1.275 s
          | Grid partitioning                           :        0.412 s           0.412 s
          | Preloading free-atom quantities on grid     :        2.511 s           2.510 s
          | Free-atom superposition energy              :        0.323 s           0.322 s
          | Total time for integrations                 :       13.260 s          13.771 s
          | Product basis setup: Total time             :        0.000 s           0.000 s
          | Product basis: | 2-center integrations     :(       0.000 s)  (       0.000 s)
          | Product basis: | LVL 3-center & coefficient:(       0.000 s)  (       0.000 s)
          | Total time for solution of K.-S. equations  :        5.168 s          17.594 s
          | Total time for density update               :       10.021 s          11.007 s
          | Total time for mixing & preconditioning     :        8.452 s           8.454 s
          | Total time for Hartree multipole update     :        0.111 s           0.112 s
          | Total time for Hartree multipole sum        :       36.749 s          36.762 s
          | Total time for total energy evaluation      :        0.010 s           0.008 s
          | Total time for DFPT                         :      436.084 s         436.253 s
          | Total time first_order_DM                   :        0.304 s           0.303 s
          | Total time first_order_density              :       89.297 s          89.311 s
          | Total time first_order_potential            :       51.900 s          51.919 s
          | Total time first_order_H                    :      178.210 s         178.274 s
          | Total time solving of Sternheimer equations :        0.194 s           0.194 s
          | Total time for dielectric constant          :        0.000 s           0.000 s
          | Total time momentum matrix                  :        0.000 s           0.000 s

          GPU acceleration has been used for charge density update.
          GPU acceleration has been used for real-space Hamiltonian integration.
          Due to GPU usage, wall_clock(cpu1) will give a more reliable estimate for timings.

          Partial memory accounting:
          | Residual value for overall tracked memory usage across tasks:     0.000000 MB (should be 0.000000 MB)
          | Peak values for overall tracked memory usage:
          |   Minimum:      120.769 MB (on task  0 after allocating DFPT_pulay_mixing::pulay_mix::alphas)
          |   Maximum:      120.769 MB (on task  0 after allocating DFPT_pulay_mixing::pulay_mix::alphas)
          |   Average:      120.769 MB
          | Largest tracked array allocation:
          |   Minimum:       43.083 MB (DFPT_pulay_mixing::initialize_pulay_mixing::X_in_diffs on task  0)
          |   Maximum:       43.083 MB (DFPT_pulay_mixing::initialize_pulay_mixing::X_in_diffs on task  0)
          |   Average:       43.083 MB
          Note:  These values currently only include a subset of arrays which are explicitly tracked.
          The "true" memory usage will be greater.

          Have a nice day.
------------------------------------------------------------
