------------------------------------------------------------
          Invoking FHI-aims ...

          When using FHI-aims, please cite the following reference:

            Volker Blum, Ralf Gehrke, Felix Hanke, Paula Havu,
            Ville Havu, Xinguo Ren, Karsten Reuter, and Matthias Scheffler,
            'Ab Initio Molecular Simulations with Numeric Atom-Centered Orbitals',
            Computer Physics Communications 180, 2175-2196 (2009)

          In addition, many other developments in FHI-aims are likely important for
          your particular application. A partial list of references is given at the end of
          this file. Thank you for giving credit to the authors of these developments.

          For any questions about FHI-aims, please visit our slack channel at

            https://fhi-aims.slack.com

          and our main development and support site at

            https://aims-git.rz-berlin.mpg.de .

          The latter site, in particular, has a wiki to collect information, as well
          as an issue tracker to log discussions, suggest improvements, and report issues
          or bugs. https://aims-git.rz-berlin.mpg.de is also the main development site
          of the project and all new and updated code versions can be obtained there.
          Please send an email to aims-coordinators@fhi-berlin.mpg.de and we will add
          you to these sites. They are for you and everyone is welcome there.

------------------------------------------------------------



  Date     :  20230221, Time     :  145824.437
  Time zero on CPU 1             :   0.366563000000000E+00  s.
  Internal wall clock time zero  :           446223504.437  s.

  FHI-aims created a unique identifier for this run for later identification
  aims_uuid : B070671F-5C30-4D98-A574-880996D43A65

  Build configuration of the current instance of FHI-aims
  -------------------------------------------------------
  FHI-aims version      : 221103
  Commit number         : 42523251a
  CMake host system     : Linux-5.3.18-150300.59.68-default
  CMake version         : 3.17.0
  Fortran compiler      : /mpcdf/soft/SLE_15/packages/x86_64/intel_oneapi/2021.3/mpi/2021.3.0/bin/mpiifort (Intel) version 20.2.3.20210609
  Fortran compiler flags: -O3 -ip -fp-model precise
  C compiler            : /mpcdf/soft/SLE_15/packages/x86_64/intel/2021.3.0/bin/icc (Intel) version 20.2.3.20210609
  C compiler flags      : -O3 -ip -fp-model precise -std=gnu99
  CUDA compiler         : /mpcdf/soft/SLE_15/packages/x86_64/cuda/11.6.2/bin/nvcc
  CUDA compiler flags   : -O3 -DAdd_ -lcublas
  HIP compiler          :
  HIP compiler flags    :
  HIP GPU arch          :
  ELPA2 kernel          : AVX512
  Using MPI
  Using ScaLAPACK
  Using LibXC
  Using CUDA
  Using i-PI
  Using RLSY
  Linking against: /mpcdf/soft/SLE_15/packages/x86_64/cuda/11.6.2/lib64/libcublas.so
                   /mpcdf/soft/SLE_15/packages/x86_64/cuda/11.6.2/lib64/libcudart.so
                   /mpcdf/soft/SLE_15/packages/x86_64/intel_oneapi/2021.3/mkl/latest/lib/intel64/libmkl_intel_lp64.so
                   /mpcdf/soft/SLE_15/packages/x86_64/intel_oneapi/2021.3/mkl/latest/lib/intel64/libmkl_sequential.so
                   /mpcdf/soft/SLE_15/packages/x86_64/intel_oneapi/2021.3/mkl/latest/lib/intel64/libmkl_core.so
                   /mpcdf/soft/SLE_15/packages/x86_64/intel_oneapi/2021.3/mkl/latest/lib/intel64/libmkl_blacs_intelmpi_lp64.so
                   /mpcdf/soft/SLE_15/packages/x86_64/intel_oneapi/2021.3/mkl/latest/lib/intel64/libmkl_scalapack_lp64.so

  Using       18 parallel tasks.
  Task        0 on host adag037 reporting.
  Task        1 on host adag037 reporting.
  Task        2 on host adag037 reporting.
  Task        3 on host adag037 reporting.
  Task        4 on host adag037 reporting.
  Task        5 on host adag037 reporting.
  Task        6 on host adag037 reporting.
  Task        7 on host adag037 reporting.
  Task        8 on host adag037 reporting.
  Task        9 on host adag037 reporting.
  Task       10 on host adag037 reporting.
  Task       11 on host adag037 reporting.
  Task       12 on host adag037 reporting.
  Task       13 on host adag037 reporting.
  Task       14 on host adag037 reporting.
  Task       15 on host adag037 reporting.
  Task       16 on host adag037 reporting.
  Task       17 on host adag037 reporting.

  Obtaining array dimensions for all initial allocations:
  
  -----------------------------------------------------------------------
  Parsing control.in (first pass over file, find array dimensions only).
  The contents of control.in will be repeated verbatim below
  unless switched off by setting 'verbatim_writeout .false.' .
  in the first line of control.in .
  -----------------------------------------------------------------------
  
  #########################################################################################
  #
  #  Volker Blum, 2017 : Test run input file control.in for simple H2O
  #
  #########################################################################################
  #
  #  Physical model
  #
    xc                 pw-lda
    spin               none
    relativistic       none
    charge             0.
  
    use_gpu
  
    DFPT dielectric
    ri_density_restart write
    ri_rho1 write
  #  ri_density_restart read 0
  #  ri_rho1 read
    ri_full_output .true.
    sc_accuracy_rho    1d-6
  #  use_calculate_fock_matrix_old .false.
  #  wave_threshold 1e-8
    k_grid 1 1 1
  #  output cube eigenstate 160
  #  output cube eigenstate 161
    wave_threshold 1e-8
    default_prodbas_acc 1e-6
    default_max_l_prodbas 6
  #
  #  Relaxation
  #
  #  relax_geometry   bfgs 1.e-2
  #
  
  ################################################################################
  
  
  ################################################################################
  #
  #  FHI-aims code project
  #  VB, Fritz-Haber Institut, 2009
  #
  #  Suggested "light" defaults for H atom (to be pasted into control.in file)
  #  Be sure to double-check any results obtained with these settings for post-processing,
  #  e.g., with the "tight" defaults and larger basis sets.
  #
  ################################################################################
    species        H
  #     global species definitions
      nucleus             1
      mass                1.00794
  #
      l_hartree           4
  #
      cut_pot             3.5  1.5  1.0
      basis_dep_cutoff    1e-4
  #
      radial_base         24 5.0
      radial_multiplier   1
      angular_grids       specified
        division   0.2421   50
        division   0.3822  110
        division   0.4799  194
        division   0.5341  302
  #      division   0.5626  434
  #      division   0.5922  590
  #      division   0.6542  770
  #      division   0.6868 1202
  #      outer_grid  770
        outer_grid  302
  ################################################################################
  #
  #  Definition of "minimal" basis
  #
  ################################################################################
  #     valence basis states
      valence      1  s   1.
  #     ion occupancy
      ion_occ      1  s   0.5
  ################################################################################
  #
  #  Suggested additional basis functions. For production calculations,
  #  uncomment them one after another (the most important basis functions are
  #  listed first).
  #
  #  Basis constructed for dimers: 0.5 A, 0.7 A, 1.0 A, 1.5 A, 2.5 A
  #
  ################################################################################
  #  "First tier" - improvements: -1014.90 meV to -62.69 meV
       hydro 2 s 2.1
       hydro 2 p 3.5
  #  "Second tier" - improvements: -12.89 meV to -1.83 meV
  #     hydro 1 s 0.85
  #     hydro 2 p 3.7
  #     hydro 2 s 1.2
  #     hydro 3 d 7
  #  "Third tier" - improvements: -0.25 meV to -0.12 meV
  #     hydro 4 f 11.2
  #     hydro 3 p 4.8
  #     hydro 4 d 9
  #     hydro 3 s 3.2
  ################################################################################
  #
  #  FHI-aims code project
  #  VB, Fritz-Haber Institut, 2009
  #
  #  Suggested "light" defaults for O atom (to be pasted into control.in file)
  #  Be sure to double-check any results obtained with these settings for post-processing,
  #  e.g., with the "tight" defaults and larger basis sets.
  #
  ################################################################################
    species        O
  #     global species definitions
      nucleus             8
      mass                15.9994
  #
      l_hartree           4
  #
      cut_pot             3.5  1.5  1.0
      basis_dep_cutoff    1e-4
  #
      radial_base         36 5.0
      radial_multiplier   1
       angular_grids specified
        division   0.2659   50
        division   0.4451  110
        division   0.6052  194
        division   0.7543  302
  #      division   0.8014  434
  #      division   0.8507  590
  #      division   0.8762  770
  #      division   0.9023  974
  #      division   1.2339 1202
  #      outer_grid 974
        outer_grid 302
  ################################################################################
  #
  #  Definition of "minimal" basis
  #
  ################################################################################
  #     valence basis states
      valence      2  s   2.
      valence      2  p   4.
  #     ion occupancy
      ion_occ      2  s   1.
      ion_occ      2  p   3.
  ################################################################################
  #
  #  Suggested additional basis functions. For production calculations,
  #  uncomment them one after another (the most important basis functions are
  #  listed first).
  #
  #  Constructed for dimers: 1.0 A, 1.208 A, 1.5 A, 2.0 A, 3.0 A
  #
  ################################################################################
  #  "First tier" - improvements: -699.05 meV to -159.38 meV
       hydro 2 p 1.8
       hydro 3 d 7.6
       hydro 3 s 6.4
  #  "Second tier" - improvements: -49.91 meV to -5.39 meV
  #     hydro 4 f 11.6
  #     hydro 3 p 6.2
  #     hydro 3 d 5.6
  #     hydro 5 g 17.6
  #     hydro 1 s 0.75
  #  "Third tier" - improvements: -2.83 meV to -0.50 meV
  #     ionic 2 p auto
  #     hydro 4 f 10.8
  #     hydro 4 d 4.7
  #     hydro 2 s 6.8
  #  "Fourth tier" - improvements: -0.40 meV to -0.12 meV
  #     hydro 3 p 5
  #     hydro 3 s 3.3
  #     hydro 5 g 15.6
  #     hydro 4 f 17.6
  #     hydro 4 d 14
  # Further basis functions - -0.08 meV and below
  #     hydro 3 s 2.1
  #     hydro 4 d 11.6
  #     hydro 3 p 16
  #     hydro 2 s 17.2
  
  -----------------------------------------------------------------------
  Completed first pass over input file control.in .
  -----------------------------------------------------------------------
  
  
  -----------------------------------------------------------------------
  Parsing geometry.in (first pass over file, find array dimensions only).
  The contents of geometry.in will be repeated verbatim below
  unless switched off by setting 'verbatim_writeout .false.' .
  in the first line of geometry.in .
  -----------------------------------------------------------------------
  
  #=======================================================
  # FHI-aims file: /ada/ptmp/mpsd/alewis/bulk_water/qmdata/data/geoms/43.in
  # Created using the Atomic Simulation Environment (ASE)
  # Tue Feb 21 11:23:37 2023
  #=======================================================
  lattice_vector 9.9238000000000000 0.0000000000000000 0.0000000000000000
  lattice_vector 0.0000000000000000 9.9238000000000000 0.0000000000000000
  lattice_vector 0.0000000000000000 0.0000000000000000 9.9238000000000000
  atom -2.6262400000000001 5.5708399999999996 -5.3267600000000002 O
  atom -3.1490000000000000 6.2036800000000003 -5.1612600000000004 H
  atom -1.9562700000000000 5.6529400000000001 -4.5341699999999996 H
  atom 10.5530000000000008 6.4812200000000004 -9.6779600000000006 O
  atom 10.8823000000000008 6.4029499999999997 -10.4445999999999994 H
  atom 11.2751999999999999 6.8949600000000002 -9.2939200000000000 H
  atom 6.1714200000000003 1.3145800000000001 1.8301700000000001 O
  atom 6.6238099999999998 0.5814470000000000 1.7935200000000000 H
  atom 6.4792600000000000 1.8451400000000000 2.6650900000000002 H
  atom 0.2578090000000000 3.1325300000000000 -3.6416599999999999 O
  atom 1.0794100000000000 3.1259800000000002 -2.9041199999999998 H
  atom -0.3743320000000000 3.5876500000000000 -3.1444100000000001 H
  atom -13.0165000000000006 0.4014670000000000 14.9497000000000000 O
  atom -12.5701000000000001 -0.0092780000000000 13.9785000000000004 H
  atom -13.5239999999999991 -0.4036490000000000 15.2065000000000001 H
  atom -6.9710000000000001 -2.4200400000000002 21.0635000000000012 O
  atom -6.8493800000000000 -2.6986900000000000 22.0978999999999992 H
  atom -6.3670999999999998 -3.0241400000000001 20.6265000000000001 H
  atom 6.3903200000000000 3.0085600000000001 3.8690899999999999 O
  atom 6.5074199999999998 2.5314500000000000 4.7443099999999996 H
  atom 6.8534600000000001 3.8372299999999999 4.1002200000000002 H
  atom -0.3063960000000000 10.9097000000000008 -8.5600199999999997 O
  atom -0.3055690000000000 10.7593999999999994 -9.5024999999999995 H
  atom -0.2612960000000000 11.7994000000000003 -8.6026000000000007 H
  atom 9.2817799999999995 6.7521599999999999 -3.5389699999999999 O
  atom 10.0888000000000009 6.2674500000000002 -3.3398800000000000 H
  atom 8.7887599999999999 7.3525099999999997 -3.0201500000000001 H
  atom 1.6256900000000001 2.9389699999999999 13.7886000000000006 O
  atom 1.8107100000000000 2.0680399999999999 14.1258999999999997 H
  atom 1.0926400000000001 3.2263400000000000 14.6488999999999994 H
  atom 2.5318700000000001 13.3724000000000007 -2.0532699999999999 O
  atom 3.3513899999999999 12.8771000000000004 -2.4209200000000002 H
  atom 2.6401200000000000 13.5000999999999998 -1.0982700000000001 H
  atom -3.3134399999999999 -4.7909499999999996 11.2832000000000008 O
  atom -2.9747599999999998 -4.0011299999999999 11.2996999999999996 H
  atom -3.5252400000000002 -5.0503900000000002 12.2471999999999994 H
  atom 1.8119900000000000 -3.5900200000000000 -2.5896499999999998 O
  atom 2.4039199999999998 -3.0796700000000001 -2.8742700000000001 H
  atom 2.0428700000000002 -4.6163299999999996 -2.9561600000000001 H
  atom 9.8165999999999993 0.8893540000000000 -1.5519600000000000 O
  atom 9.5180500000000006 1.5150900000000000 -2.4530799999999999 H
  atom 10.7643000000000004 0.8844210000000000 -1.8611000000000000 H
  atom -7.3844200000000004 3.4859000000000000 10.5170999999999992 O
  atom -7.8229899999999999 3.9459800000000000 11.2880000000000003 H
  atom -7.4122399999999997 2.6889099999999999 10.9519000000000002 H
  atom -6.6988799999999999 -1.0159300000000000 7.0435999999999996 O
  atom -5.8808900000000000 -0.9517420000000000 7.3422799999999997 H
  atom -6.7653100000000004 -0.5259100000000000 6.2249299999999996 H
  atom 3.5212100000000000 11.0777000000000001 11.9291999999999998 O
  atom 4.5058900000000000 10.9550999999999998 11.9007000000000005 H
  atom 3.2143500000000000 10.5571999999999999 11.1562999999999999 H
  atom -5.6302099999999999 5.3808499999999997 19.5123999999999995 O
  atom -6.0684600000000000 4.6286500000000004 19.7959999999999994 H
  atom -5.0872500000000000 5.4668000000000001 20.1871000000000009 H
  atom 5.6276599999999997 -0.1024010000000000 -1.5363100000000001 O
  atom 5.6523899999999996 -0.1728400000000000 -0.6382540000000000 H
  atom 6.5474800000000002 -0.2092080000000000 -2.2224400000000002 H
  atom 2.6274999999999999 -0.0560970000000000 -0.4023340000000000 O
  atom 2.9852200000000000 -0.9791760000000000 0.0810610000000000 H
  atom 2.9078200000000001 -0.3058960000000000 -1.3075000000000001 H
  atom 7.9663399999999998 -0.9116680000000000 -2.7067999999999999 O
  atom 7.6624200000000000 -0.4676130000000000 -3.5645899999999999 H
  atom 8.8240999999999996 -0.2655430000000000 -2.2917500000000000 H
  atom 0.6120460000000000 8.8388899999999992 14.5914999999999999 O
  atom -0.2212110000000000 8.2977900000000009 14.8938000000000006 H
  atom 0.0696410000000000 9.2883700000000005 13.7086000000000006 H
  atom 7.8628600000000004 13.8000000000000007 7.9051200000000001 O
  atom 6.8562399999999997 13.7213999999999992 7.8890500000000001 H
  atom 8.2327700000000004 13.7083999999999993 8.7730499999999996 H
  atom 8.8596599999999999 4.2137399999999996 10.4095999999999993 O
  atom 8.0510400000000004 4.3172199999999998 10.8119999999999994 H
  atom 9.5810899999999997 4.8826299999999998 10.5297000000000001 H
  atom 8.1654300000000006 7.5599699999999999 0.5892530000000000 O
  atom 7.7602799999999998 7.6685200000000000 -0.2756050000000000 H
  atom 9.1946100000000008 7.7756400000000001 0.4216560000000000 H
  atom 5.7157999999999998 -2.2146400000000002 5.3978700000000002 O
  atom 5.8237800000000002 -2.6146900000000000 6.3426400000000003 H
  atom 4.7070900000000000 -2.2448600000000001 5.2231899999999998 H
  atom 3.1589900000000002 17.0234999999999985 14.0246999999999993 O
  atom 3.1779500000000001 16.1300999999999988 14.3629999999999995 H
  atom 2.2289400000000001 17.2875000000000014 14.4550000000000001 H
  atom 16.3539999999999992 6.3173500000000002 7.9691900000000002 O
  atom 15.4480000000000004 6.0782800000000003 8.3676999999999992 H
  atom 16.9863000000000000 5.6550399999999996 8.0651299999999999 H
  atom 5.0951800000000000 2.6039200000000000 7.2521199999999997 O
  atom 5.2080399999999996 2.3588499999999999 6.3430700000000000 H
  atom 5.1134199999999996 1.6972799999999999 7.6983600000000001 H
  atom 2.7472400000000001 10.5275999999999996 4.6928200000000002 O
  atom 2.8886300000000000 10.5322999999999993 3.8263300000000000 H
  atom 1.9088300000000000 10.0656999999999996 4.7248700000000001 H
  atom 4.0517099999999999 4.4591900000000004 4.3381999999999996 O
  atom 4.8040099999999999 3.8925299999999998 3.9810400000000001 H
  atom 3.2757399999999999 3.9381100000000000 4.3044300000000000 H
  atom 8.0684699999999996 9.1956299999999995 -7.1652800000000001 O
  atom 7.9006900000000000 8.4948099999999993 -7.8708999999999998 H
  atom 8.3520500000000002 9.8318600000000007 -7.7872800000000000 H
  
  -----------------------------------------------------------------------
  Completed first pass over input file geometry.in .
  -----------------------------------------------------------------------
  

  Basic array size parameters:
  | Number of species                 :        2
  | Number of atoms                   :       96
  | Number of lattice vectors         :        3
  | Max. basis fn. angular momentum   :        2
  | Max. atomic/ionic basis occupied n:        2
  | Max. number of basis fn. types    :        2
  | Max. radial fns per species/type  :        3
  | Max. logarithmic grid size        :     1301
  | Max. radial integration grid size :       36
  | Max. angular integration grid size:      302
  | Max. angular grid division number :        8
  | Radial grid for Hartree potential :     1301
  | Number of spin channels           :        1

------------------------------------------------------------
          Reading file control.in.
------------------------------------------------------------
  XC: Using Perdew-Wang parametrisation of Ceperley-Alder LDA.
  Spin treatment: No spin polarisation.
  Non-relativistic treatment of kinetic energy.
  Charge =   0.000000E+00: Neutral system requested explicitly.
  DFPT calculation will begin after the DFT/HF calculation.
  Convergence accuracy of self-consistent charge density:  0.1000E-05
  Found k-point grid:         1         1         1
  Threshold value for wave function integration:  0.1000E-07
 
  Reading configuration options for species H                   .
  | Found nuclear charge :   1.0000
  | Found atomic mass :    1.00794000000000      amu
  | Found l_max for Hartree potential  :   4
  | Found cutoff potl. onset [A], width [A], scale factor :    3.50000    1.50000    1.00000
  | Threshold for basis-dependent cutoff potential is   0.100000E-03
  | Found data for basic radial integration grid :    24 points, outermost radius =    5.000 A
  | Found multiplier for basic radial grid :   1
  | Found angular grid specification: user-specified.
  | Specified grid contains     5 separate shells.
  | Check grid settings after all constraints further below.
  | Found free-atom valence shell :  1 s   1.000
  | No ionic wave fns used. Skipping ion_occ.
  | Found hydrogenic basis function :  2 s   2.100
  | Found hydrogenic basis function :  2 p   3.500
  Species H                   : Missing cutoff potential type.
  Defaulting to exp(1/x)/(1-x)^2 type cutoff potential.
  Species H : No 'logarithmic' tag. Using default grid for free atom:
  | Default logarithmic grid data [bohr] : 0.1000E-03 0.1000E+03 0.1012E+01
  Species H : On-site basis accuracy parameter (for Gram-Schmidt orthonormalisation) not specified.
  Using default value basis_acc =  0.1000000E-03.
  Species H                   : Using default innermost maximum threshold i_radial=  2 for radial functions.
  Species H                   : Default cutoff onset for free atom density etc. : 0.35000000E+01 AA.
  Species H                   : Basic radial grid will be enhanced according to radial_multiplier =   1, to contain    24 grid points.
 
  Reading configuration options for species O                   .
  | Found nuclear charge :   8.0000
  | Found atomic mass :    15.9994000000000      amu
  | Found l_max for Hartree potential  :   4
  | Found cutoff potl. onset [A], width [A], scale factor :    3.50000    1.50000    1.00000
  | Threshold for basis-dependent cutoff potential is   0.100000E-03
  | Found data for basic radial integration grid :    36 points, outermost radius =    5.000 A
  | Found multiplier for basic radial grid :   1
  | Found angular grid specification: user-specified.
  | Specified grid contains     5 separate shells.
  | Check grid settings after all constraints further below.
  | Found free-atom valence shell :  2 s   2.000
  | Found free-atom valence shell :  2 p   4.000
  | No ionic wave fns used. Skipping ion_occ.
  | No ionic wave fns used. Skipping ion_occ.
  | Found hydrogenic basis function :  2 p   1.800
  | Found hydrogenic basis function :  3 d   7.600
  | Found hydrogenic basis function :  3 s   6.400
  Species O                   : Missing cutoff potential type.
  Defaulting to exp(1/x)/(1-x)^2 type cutoff potential.
  Species O : No 'logarithmic' tag. Using default grid for free atom:
  | Default logarithmic grid data [bohr] : 0.1000E-03 0.1000E+03 0.1012E+01
  Species O : On-site basis accuracy parameter (for Gram-Schmidt orthonormalisation) not specified.
  Using default value basis_acc =  0.1000000E-03.
  Species O                   : Using default innermost maximum threshold i_radial=  2 for radial functions.
  Species O                   : Default cutoff onset for free atom density etc. : 0.35000000E+01 AA.
  Species O                   : Basic radial grid will be enhanced according to radial_multiplier =   1, to contain    36 grid points.
 
  Finished reading input file 'control.in'.
 
------------------------------------------------------------


------------------------------------------------------------
          Reading geometry description geometry.in.
------------------------------------------------------------
  | The smallest distance between any two atoms is         0.83177328 AA.
  | The first atom of this pair is atom number                     37 .
  | The second atom of this pair is atom number                    38 .
  | Wigner-Seitz cell of the first atom image           0     0     0 .
  | (The Wigner-Seitz cell of the second atom is 0 0 0  by definition.)

  Symmetry information by spglib:
  | Precision set to  0.1E-04
  | Number of Operations  : 1
  | Space group           : 1
  | International         : P1 2L
  | Schoenflies           : C1^1
  Input structure read successfully.
  The structure contains       96 atoms,  and a total of        320.000 electrons.

  Input geometry:
  | Unit cell:
  |        9.92380000        0.00000000        0.00000000
  |        0.00000000        9.92380000        0.00000000
  |        0.00000000        0.00000000        9.92380000
  | Atomic structure:
  |       Atom                x [A]            y [A]            z [A]
  |    1: Species O            -2.62624000        5.57084000       -5.32676000
  |    2: Species H            -3.14900000        6.20368000       -5.16126000
  |    3: Species H            -1.95627000        5.65294000       -4.53417000
  |    4: Species O            10.55300000        6.48122000       -9.67796000
  |    5: Species H            10.88230000        6.40295000      -10.44460000
  |    6: Species H            11.27520000        6.89496000       -9.29392000
  |    7: Species O             6.17142000        1.31458000        1.83017000
  |    8: Species H             6.62381000        0.58144700        1.79352000
  |    9: Species H             6.47926000        1.84514000        2.66509000
  |   10: Species O             0.25780900        3.13253000       -3.64166000
  |   11: Species H             1.07941000        3.12598000       -2.90412000
  |   12: Species H            -0.37433200        3.58765000       -3.14441000
  |   13: Species O           -13.01650000        0.40146700       14.94970000
  |   14: Species H           -12.57010000       -0.00927800       13.97850000
  |   15: Species H           -13.52400000       -0.40364900       15.20650000
  |   16: Species O            -6.97100000       -2.42004000       21.06350000
  |   17: Species H            -6.84938000       -2.69869000       22.09790000
  |   18: Species H            -6.36710000       -3.02414000       20.62650000
  |   19: Species O             6.39032000        3.00856000        3.86909000
  |   20: Species H             6.50742000        2.53145000        4.74431000
  |   21: Species H             6.85346000        3.83723000        4.10022000
  |   22: Species O            -0.30639600       10.90970000       -8.56002000
  |   23: Species H            -0.30556900       10.75940000       -9.50250000
  |   24: Species H            -0.26129600       11.79940000       -8.60260000
  |   25: Species O             9.28178000        6.75216000       -3.53897000
  |   26: Species H            10.08880000        6.26745000       -3.33988000
  |   27: Species H             8.78876000        7.35251000       -3.02015000
  |   28: Species O             1.62569000        2.93897000       13.78860000
  |   29: Species H             1.81071000        2.06804000       14.12590000
  |   30: Species H             1.09264000        3.22634000       14.64890000
  |   31: Species O             2.53187000       13.37240000       -2.05327000
  |   32: Species H             3.35139000       12.87710000       -2.42092000
  |   33: Species H             2.64012000       13.50010000       -1.09827000
  |   34: Species O            -3.31344000       -4.79095000       11.28320000
  |   35: Species H            -2.97476000       -4.00113000       11.29970000
  |   36: Species H            -3.52524000       -5.05039000       12.24720000
  |   37: Species O             1.81199000       -3.59002000       -2.58965000
  |   38: Species H             2.40392000       -3.07967000       -2.87427000
  |   39: Species H             2.04287000       -4.61633000       -2.95616000
  |   40: Species O             9.81660000        0.88935400       -1.55196000
  |   41: Species H             9.51805000        1.51509000       -2.45308000
  |   42: Species H            10.76430000        0.88442100       -1.86110000
  |   43: Species O            -7.38442000        3.48590000       10.51710000
  |   44: Species H            -7.82299000        3.94598000       11.28800000
  |   45: Species H            -7.41224000        2.68891000       10.95190000
  |   46: Species O            -6.69888000       -1.01593000        7.04360000
  |   47: Species H            -5.88089000       -0.95174200        7.34228000
  |   48: Species H            -6.76531000       -0.52591000        6.22493000
  |   49: Species O             3.52121000       11.07770000       11.92920000
  |   50: Species H             4.50589000       10.95510000       11.90070000
  |   51: Species H             3.21435000       10.55720000       11.15630000
  |   52: Species O            -5.63021000        5.38085000       19.51240000
  |   53: Species H            -6.06846000        4.62865000       19.79600000
  |   54: Species H            -5.08725000        5.46680000       20.18710000
  |   55: Species O             5.62766000       -0.10240100       -1.53631000
  |   56: Species H             5.65239000       -0.17284000       -0.63825400
  |   57: Species H             6.54748000       -0.20920800       -2.22244000
  |   58: Species O             2.62750000       -0.05609700       -0.40233400
  |   59: Species H             2.98522000       -0.97917600        0.08106100
  |   60: Species H             2.90782000       -0.30589600       -1.30750000
  |   61: Species O             7.96634000       -0.91166800       -2.70680000
  |   62: Species H             7.66242000       -0.46761300       -3.56459000
  |   63: Species H             8.82410000       -0.26554300       -2.29175000
  |   64: Species O             0.61204600        8.83889000       14.59150000
  |   65: Species H            -0.22121100        8.29779000       14.89380000
  |   66: Species H             0.06964100        9.28837000       13.70860000
  |   67: Species O             7.86286000       13.80000000        7.90512000
  |   68: Species H             6.85624000       13.72140000        7.88905000
  |   69: Species H             8.23277000       13.70840000        8.77305000
  |   70: Species O             8.85966000        4.21374000       10.40960000
  |   71: Species H             8.05104000        4.31722000       10.81200000
  |   72: Species H             9.58109000        4.88263000       10.52970000
  |   73: Species O             8.16543000        7.55997000        0.58925300
  |   74: Species H             7.76028000        7.66852000       -0.27560500
  |   75: Species H             9.19461000        7.77564000        0.42165600
  |   76: Species O             5.71580000       -2.21464000        5.39787000
  |   77: Species H             5.82378000       -2.61469000        6.34264000
  |   78: Species H             4.70709000       -2.24486000        5.22319000
  |   79: Species O             3.15899000       17.02350000       14.02470000
  |   80: Species H             3.17795000       16.13010000       14.36300000
  |   81: Species H             2.22894000       17.28750000       14.45500000
  |   82: Species O            16.35400000        6.31735000        7.96919000
  |   83: Species H            15.44800000        6.07828000        8.36770000
  |   84: Species H            16.98630000        5.65504000        8.06513000
  |   85: Species O             5.09518000        2.60392000        7.25212000
  |   86: Species H             5.20804000        2.35885000        6.34307000
  |   87: Species H             5.11342000        1.69728000        7.69836000
  |   88: Species O             2.74724000       10.52760000        4.69282000
  |   89: Species H             2.88863000       10.53230000        3.82633000
  |   90: Species H             1.90883000       10.06570000        4.72487000
  |   91: Species O             4.05171000        4.45919000        4.33820000
  |   92: Species H             4.80401000        3.89253000        3.98104000
  |   93: Species H             3.27574000        3.93811000        4.30443000
  |   94: Species O             8.06847000        9.19563000       -7.16528000
  |   95: Species H             7.90069000        8.49481000       -7.87090000
  |   96: Species H             8.35205000        9.83186000       -7.78728000

  Lattice parameters for 3D lattice (in Angstroms) :     9.923800    9.923800    9.923800
  Angle(s) between unit vectors (in degrees)       :    90.000000   90.000000   90.000000


  Quantities derived from the lattice vectors (in Angstrom^-1):
  | Reciprocal lattice vector 1:  0.633143  0.000000  0.000000
  | Reciprocal lattice vector 2:  0.000000  0.633143  0.000000
  | Reciprocal lattice vector 3:  0.000000  0.000000  0.633143
  | Unit cell volume                               :   0.977314E+03  Angstrom^3

  Fractional coordinates:
                         L1                L2                L3
       atom_frac        -0.26464056        0.56136158       -0.53676616  O
       atom_frac        -0.31731796        0.62513150       -0.52008908  H
       atom_frac        -0.19712912        0.56963462       -0.45689857  H
       atom_frac         1.06340313        0.65309861       -0.97522723  O
       atom_frac         1.09658599        0.64521151       -1.05247990  H
       atom_frac         1.13617767        0.69479030       -0.93652835  H
       atom_frac         0.62188073        0.13246740        0.18442230  O
       atom_frac         0.66746710        0.05859116        0.18072916  H
       atom_frac         0.65290111        0.18593079        0.26855539  H
       atom_frac         0.02597886        0.31565832       -0.36696225  O
       atom_frac         0.10876983        0.31499829       -0.29264193  H
       atom_frac        -0.03772063        0.36151978       -0.31685544  H
       atom_frac        -1.31164473        0.04045497        1.50644914  O
       atom_frac        -1.26666196       -0.00093492        1.40858341  H
       atom_frac        -1.36278442       -0.04067484        1.53232633  H
       atom_frac        -0.70245269       -0.24386223        2.12252363  O
       atom_frac        -0.69019730       -0.27194119        2.22675790  H
       atom_frac        -0.64159898       -0.30473609        2.07848808  H
       atom_frac         0.64393881        0.30316613        0.38987988  O
       atom_frac         0.65573873        0.25508878        0.47807392  H
       atom_frac         0.69060844        0.38666942        0.41317036  H
       atom_frac        -0.03087487        1.09934702       -0.86257482  O
       atom_frac        -0.03079153        1.08420162       -0.95754650  H
       atom_frac        -0.02633024        1.18900018       -0.86686552  H
       atom_frac         0.93530502        0.68040065       -0.35661440  O
       atom_frac         1.01662670        0.63155747       -0.33655253  H
       atom_frac         0.88562446        0.74089663       -0.30433403  H
       atom_frac         0.16381729        0.29615369        1.38944759  O
       atom_frac         0.18246136        0.20839195        1.42343659  H
       atom_frac         0.11010298        0.32511135        1.47613817  H
       atom_frac         0.25513110        1.34750801       -0.20690361  O
       atom_frac         0.33771237        1.29759769       -0.24395091  H
       atom_frac         0.26603922        1.36037607       -0.11067031  H
       atom_frac        -0.33388823       -0.48277374        1.13698382  O
       atom_frac        -0.29976017       -0.40318527        1.13864649  H
       atom_frac        -0.35523086       -0.50891695        1.23412403  H
       atom_frac         0.18259034       -0.36175860       -0.26095347  O
       atom_frac         0.24223785       -0.31033173       -0.28963401  H
       atom_frac         0.20585562       -0.46517765       -0.29788589  H
       atom_frac         0.98919769        0.08961829       -0.15638767  O
       atom_frac         0.95911344        0.15267236       -0.24719160  H
       atom_frac         1.08469538        0.08912120       -0.18753905  H
       atom_frac        -0.74411213        0.35126665        1.05978557  O
       atom_frac        -0.78830589        0.39762792        1.13746750  H
       atom_frac        -0.74691550        0.27095568        1.10359943  H
       atom_frac        -0.67503174       -0.10237308        0.70976844  O
       atom_frac        -0.59260465       -0.09590500        0.73986578  H
       atom_frac        -0.68172575       -0.05299482        0.62727282  H
       atom_frac         0.35482476        1.11627602        1.20207985  O
       atom_frac         0.45404885        1.10392188        1.19920796  H
       atom_frac         0.32390314        1.06382636        1.12419638  H
       atom_frac        -0.56734416        0.54221669        1.96622262  O
       atom_frac        -0.61150567        0.46641911        1.99480038  H
       atom_frac        -0.51263125        0.55087769        2.03421069  H
       atom_frac         0.56708720       -0.01031873       -0.15481066  O
       atom_frac         0.56957919       -0.01741672       -0.06431548  H
       atom_frac         0.65977549       -0.02108144       -0.22395050  H
       atom_frac         0.26476753       -0.00565277       -0.04054233  O
       atom_frac         0.30081420       -0.09866946        0.00816834  H
       atom_frac         0.29301477       -0.03082448       -0.13175397  H
       atom_frac         0.80275096       -0.09186683       -0.27275842  O
       atom_frac         0.77212560       -0.04712036       -0.35919607  H
       atom_frac         0.88918559       -0.02675820       -0.23093472  H
       atom_frac         0.06167456        0.89067595        1.47035410  O
       atom_frac        -0.02229096        0.83615047        1.50081622  H
       atom_frac         0.00701757        0.93596908        1.38138616  H
       atom_frac         0.79232351        1.39059634        0.79658195  O
       atom_frac         0.69088857        1.38267599        0.79496262  H
       atom_frac         0.82959854        1.38136601        0.88404140  H
       atom_frac         0.89276890        0.42460952        1.04895302  O
       atom_frac         0.81128600        0.43503698        1.08950201  H
       atom_frac         0.96546585        0.49201213        1.06105524  H
       atom_frac         0.82281283        0.76180193        0.05937776  O
       atom_frac         0.78198674        0.77274028       -0.02777212  H
       atom_frac         0.92652109        0.78353453        0.04248937  H
       atom_frac         0.57596888       -0.22316451        0.54393176  O
       atom_frac         0.58684980       -0.26347669        0.63913420  H
       atom_frac         0.47432334       -0.22620972        0.52632963  H
       atom_frac         0.31832463        1.71542151        1.41323888  O
       atom_frac         0.32023519        1.62539551        1.44732864  H
       atom_frac         0.22460549        1.74202422        1.45659929  H
       atom_frac         1.64795744        0.63658578        0.80303815  O
       atom_frac         1.55666176        0.61249521        0.84319515  H
       atom_frac         1.71167295        0.56984623        0.81270582  H
       atom_frac         0.51343034        0.26239142        0.73078055  O
       atom_frac         0.52480300        0.23769625        0.63917753  H
       atom_frac         0.51526834        0.17103126        0.77574719  H
       atom_frac         0.27683347        1.06084363        0.47288539  O
       atom_frac         0.29108104        1.06131724        0.38557105  H
       atom_frac         0.19234870        1.01429896        0.47611500  H
       atom_frac         0.40828211        0.44934299        0.43715109  O
       atom_frac         0.48408976        0.39224188        0.40116085  H
       atom_frac         0.33008928        0.39683488        0.43374816  H
       atom_frac         0.81304238        0.92662387       -0.72202987  O
       atom_frac         0.79613555        0.85600375       -0.79313368  H
       atom_frac         0.84161813        0.99073540       -0.78470747  H

 
  Finished reading input file 'geometry.in'.
 

 
  Consistency checks for stacksize environment parameter are next.
 
  | Maximum stacksize for task 0: unlimited
  | Maximum stacksize for task 1: unlimited
  | Maximum stacksize for task 2: unlimited
  | Maximum stacksize for task 3: unlimited
  | Maximum stacksize for task 4: unlimited
  | Maximum stacksize for task 5: unlimited
  | Maximum stacksize for task 6: unlimited
  | Maximum stacksize for task 7: unlimited
  | Maximum stacksize for task 8: unlimited
  | Maximum stacksize for task 9: unlimited
  | Maximum stacksize for task 10: unlimited
  | Maximum stacksize for task 11: unlimited
  | Maximum stacksize for task 12: unlimited
  | Maximum stacksize for task 13: unlimited
  | Maximum stacksize for task 14: unlimited
  | Maximum stacksize for task 15: unlimited
  | Maximum stacksize for task 16: unlimited
  | Maximum stacksize for task 17: unlimited
  | Current stacksize for task 0: unlimited
  | Current stacksize for task 1: unlimited
  | Current stacksize for task 2: unlimited
  | Current stacksize for task 3: unlimited
  | Current stacksize for task 4: unlimited
  | Current stacksize for task 5: unlimited
  | Current stacksize for task 6: unlimited
  | Current stacksize for task 7: unlimited
  | Current stacksize for task 8: unlimited
  | Current stacksize for task 9: unlimited
  | Current stacksize for task 10: unlimited
  | Current stacksize for task 11: unlimited
  | Current stacksize for task 12: unlimited
  | Current stacksize for task 13: unlimited
  | Current stacksize for task 14: unlimited
  | Current stacksize for task 15: unlimited
  | Current stacksize for task 16: unlimited
  | Current stacksize for task 17: unlimited
 
  Consistency checks for the contents of control.in are next.
 
  MPI_IN_PLACE appears to work with this MPI implementation.
  | Keeping use_mpi_in_place .true. (see manual).
  Explicit treatment of the Coulomb operator is needed, but the RI method is not specified.
  Coulomb operator: Defaulting to 'LVL fast' resolution of identity - RI_type = LVL_fast
  Species H: Using default value for prodbas_acc =   1.000000E-06.
  Species H: Using default value max_l_prodbas =     6.
  Species O: Using default value for prodbas_acc =   1.000000E-06.
  Species O: Using default value max_l_prodbas =     6.
  Target number of points in a grid batch is not set.  Since GPU acceleration is enabled, defaulting to  200
  Method for grid partitioning is not set. Defaulting to parallel hash+maxmin partitioning.
  Batch size limit is not set. Defaulting to    200
  By default, will store active basis functions for each batch.
  If in need of memory, prune_basis_once .false. can be used to disable this option.
  communication_type for Hartree potential was not specified.
  Defaulting to calc_hartree .
  Defaulting to Pulay charge density mixer.
  Pulay mixer: Number of relevant iterations not set.
  Defaulting to    8 iterations.
  Pulay mixer: Number of initial linear mixing iterations not set.
  Defaulting to    0 iterations.
  Work space size for distributed Hartree potential not set.
  Defaulting to   0.200000E+03 MB.
  Mixing parameter for charge density mixing has not been set.
  Using default: charge_mix_param =     0.0500.
  The mixing parameter will be adjusted in iteration number     2 of the first full s.c.f. cycle only.
  Algorithm-dependent basis array size parameters:
  | n_max_pulay                         :        8
  Maximum number of self-consistency iterations not provided.
  Presetting  1000 iterations.
  Presetting      1001 iterations before the initial mixing cycle
  is restarted anyway using the sc_init_iter criterion / keyword.
  Presetting a factor      1.000 between actual scf density residual
  and density convergence criterion sc_accuracy_rho below which sc_init_iter
  takes no effect.
  Calculation of forces was not defined in control.in. No forces will be calculated.
  Geometry relaxation not requested: no relaxation will be performed.
  No accuracy limit for integral partition fn. given. Defaulting to  0.1000E-14.
  No occupation type (smearing scheme) given. Defaulting to Gaussian broadening, width =  0.1000E-01 eV.
  The width will be adjusted in iteration number     2 of the first full s.c.f. cycle only.
  S.C.F. convergence parameters will be adjusted in iteration number     2 of the first full s.c.f. cycle only.
  No accuracy for occupation numbers given. Defaulting to  0.1000E-12.
  No threshold value for occupation numbers given. Defaulting to  0.0000E+00.
  No accuracy for fermi level given. Defaulting to  0.1000E-19.
  Maximum # of iterations to find E_F not set. Defaulting to  200.
  Preferred method for the eigenvalue solver ('KS_method') not specified in 'control.in'.
  Calling BLACS routine to test compilation state
  Since ScaLAPACK support is enabled, defaulting to ELPA (via ELSI).
  Will not use alltoall communication since running on < 1024 CPUs.
  Threshold for basis singularities not set.
  Default threshold for basis singularities:  0.1000E-04
  partition_type (choice of integration weights) for integrals was not specified.
  | Using a version of the partition function of Stratmann and coworkers ('stratmann_sparse').
  | At each grid point, the set of atoms used to build the partition table is smoothly restricted to
  | only those atoms whose free-atom density would be non-zero at that grid point.
  Partitioning for Hartree potential was not defined. Using partition_type for integrals.
  | Adjusted default value of keyword multip_moments_threshold to:       0.10000000E-11
  | This value may affect high angular momentum components of the Hartree potential in periodic systems.
  Angular momentum expansion for Kerker preconditioner not set explicitly.
  | Using default value of   0
  No explicit requirement for turning off preconditioner.
  | By default, it will be turned off when the charge convergence reaches
  | sc_accuracy_rho  =   0.100000E-05
  No special mixing parameter while Kerker preconditioner is on.
  Using default: charge_mix_param =     0.0500.
  Threshold for auxiliary basis singularities not set.
  Default threshold for auxiliary basis singularities:  0.1000E-04
  No q(lm)/r^(l+1) cutoff set for long-range Hartree potential.
  | Using default value of  0.100000E-09 .
  | Verify using the multipole_threshold keyword.
  Defaulting to new monopole extrapolation.
  Density update method: automatic selection selected.
  Using density matrix based charge density update.
  Using density matrix based charge density update.
  Using packed matrix style: index .
  Defaulting to use time-reversal symmetry for k-point grid.
  Charge integration errors on the 3D integration grid will be compensated
  by explicit normalization and distribution of residual charges.
  Use the "compensate_multipole_errors" flag to change this behaviour.
  Default to 1D ("use_logsbt") integrations for auxiliary 2-center integrals.
  Default onset of logarithmic r-grid for SBT is -38.000000000000
  Default onset of logarithmic k-grid for SBT is -25.000000000000
  Default range of logarithmic r- and k-grid for SBT is  45.000000000000
  Default number of logarithmic r- and k-grid for SBT is   4096
  Default of use_2d_corr is to use the efficient 2D distribution where possible
 
  Consistency checks for the contents of geometry.in are next.
 

  Range separation radius for Ewald summation (hartree_convergence_parameter):      2.99795116 bohr.
  Number of empty states per atom not set in control.in .
  | Since you are using a method that relies on the unoccupied spectrum
  | (MP2,GW,RPA et al.), will use the full Hamiltonian size (see below)
  | as the max. possible number of states (occupied plus empty).

  Structure-dependent array size parameters: 
  | Maximum number of distinct radial functions  :        9
  | Maximum number of basis functions            :      768
  | Number of Kohn-Sham states (occupied + empty):      768
------------------------------------------------------------

  Performing system and environment tests:
  | Environment variable OMP_NUM_THREADS correctly set to 1.
  | Checking for ScaLAPACK...
  | Testing pdtran()...
  | All pdtran() tests passed.
CUDA runtime version: 11060
CUDA driver version: 11060
  Initializing GPUs...

  Number of GPUs available to MPI task         0 :   1
  Number of GPUs available to MPI task         1 :   1
  Number of GPUs available to MPI task         2 :   1
  Number of GPUs available to MPI task         3 :   1
  Number of GPUs available to MPI task         4 :   1
  Number of GPUs available to MPI task         5 :   1
  Number of GPUs available to MPI task         6 :   1
  Number of GPUs available to MPI task         7 :   1
  Number of GPUs available to MPI task         8 :   1
  Number of GPUs available to MPI task         9 :   1
  Number of GPUs available to MPI task        10 :   1
  Number of GPUs available to MPI task        11 :   1
  Number of GPUs available to MPI task        12 :   1
  Number of GPUs available to MPI task        13 :   1
  Number of GPUs available to MPI task        14 :   1
  Number of GPUs available to MPI task        15 :   1
  Number of GPUs available to MPI task        16 :   1
  Number of GPUs available to MPI task        17 :   1

  | MPI task         0, GPU activated = T, Device Name = NVIDIA A100-SXM4-80GB
  | MPI task         1, GPU activated = T, Device Name = NVIDIA A100-SXM4-80GB
  | MPI task         2, GPU activated = T, Device Name = NVIDIA A100-SXM4-80GB
  | MPI task         3, GPU activated = T, Device Name = NVIDIA A100-SXM4-80GB
  | MPI task         4, GPU activated = T, Device Name = NVIDIA A100-SXM4-80GB
  | MPI task         5, GPU activated = T, Device Name = NVIDIA A100-SXM4-80GB
  | MPI task         6, GPU activated = T, Device Name = NVIDIA A100-SXM4-80GB
  | MPI task         7, GPU activated = T, Device Name = NVIDIA A100-SXM4-80GB
  | MPI task         8, GPU activated = T, Device Name = NVIDIA A100-SXM4-80GB
  | MPI task         9, GPU activated = T, Device Name = NVIDIA A100-SXM4-80GB
  | MPI task        10, GPU activated = T, Device Name = NVIDIA A100-SXM4-80GB
  | MPI task        11, GPU activated = T, Device Name = NVIDIA A100-SXM4-80GB
  | MPI task        12, GPU activated = T, Device Name = NVIDIA A100-SXM4-80GB
  | MPI task        13, GPU activated = T, Device Name = NVIDIA A100-SXM4-80GB
  | MPI task        14, GPU activated = T, Device Name = NVIDIA A100-SXM4-80GB
  | MPI task        15, GPU activated = T, Device Name = NVIDIA A100-SXM4-80GB
  | MPI task        16, GPU activated = T, Device Name = NVIDIA A100-SXM4-80GB
  | MPI task        17, GPU activated = T, Device Name = NVIDIA A100-SXM4-80GB

------------------------------------------------------------
          Preparing all fixed parts of the calculation.
------------------------------------------------------------
  Determining machine precision:
    2.225073858507201E-308
  Setting up grids for atomic and cluster calculations.

  Creating wave function, potential, and density for free atoms.
  Runtime choices for atomic solver:
  | atomic solver xc        : PW-LDA
  | compute density gradient: 0
  | compute kinetic density : F

  Species: H

  List of occupied orbitals and eigenvalues:
    n    l              occ      energy [Ha]    energy [eV]
    1    0           1.0000        -0.232375        -6.3233


  Species: O

  List of occupied orbitals and eigenvalues:
    n    l              occ      energy [Ha]    energy [eV]
    1    0           2.0000       -18.757744      -510.4242
    2    0           2.0000        -0.870917       -23.6989
    2    1           4.0000        -0.337950        -9.1961


  Adding cutoff potential to free-atom effective potential.
  Creating fixed part of basis set: Ionic, confined, hydrogenic.
 
  H                    hydrogenic:
 
  List of hydrogenic basis orbitals: 
    n    l      effective z      eigenvalue [eV]  inner max. [A]     outer max. [A]     outer radius [A]   
    2    0         2.100000       -14.9728           0.193243           1.317208           4.696947
    2    1         3.500000       -41.6669           0.602369           0.602369           3.862494
 
 
  O                    hydrogenic:
 
  List of hydrogenic basis orbitals: 
    n    l      effective z      eigenvalue [eV]  inner max. [A]     outer max. [A]     outer radius [A]   
    2    1         1.800000       -10.9749           1.164242           1.164242           4.691341
    3    2         7.600000       -87.3180           0.624125           0.624125           3.413946
    3    0         6.400000       -61.9207           0.061167           1.081902           4.151495
 
  Creating atomic-like basis functions for current effective potential.

  Species H                   :

  List of atomic basis orbitals and eigenvalues:
    n    l      energy [Ha]    energy [eV]    outer radius [A]
    1    0        -0.232375        -6.3233       4.696947


  Species O                   :

  List of atomic basis orbitals and eigenvalues:
    n    l      energy [Ha]    energy [eV]    outer radius [A]
    1    0       -18.757744      -510.4242       1.830144
    2    0        -0.870917       -23.6989       4.578029
    2    1        -0.337950        -9.1961       4.634338

  Assembling full basis from fixed parts.
  | Species H :   atomic orbital   1 s accepted.
  | Species H :    hydro orbital   2 s accepted.
  | Species H :    hydro orbital   2 p accepted.
  | Species O :   atomic orbital   1 s accepted.
  | Species O :    hydro orbital   3 s accepted.
  | Species O :   atomic orbital   2 s accepted.
  | Species O :   atomic orbital   2 p accepted.
  | Species O :    hydro orbital   2 p accepted.
  | Species O :    hydro orbital   3 d accepted.
 
  Basis size parameters after reduction:
  | Total number of radial functions:        9
  | Total number of basis functions :      768
 
  Per-task memory consumption for arrays in subroutine allocate_ext:
  |           2.268304MB.
  Testing on-site integration grid accuracy.
  |  Species  Function  <phi|h_atom|phi> (log., in eV)  <phi|h_atom|phi> (rad., in eV)
           1        1                 -6.3245358373                 -6.3232436907
           1        2                 14.1326137532                 14.1384481100
           1        3                 25.3627025200                 25.3628451197
           2        4               -510.4241781764               -510.4240769407
           2        5                 14.9072942213                 14.9072945271
           2        6                -21.2004736474                -21.2005650551
           2        7                 -9.1962086505                 -9.1963509834
           2        8                  8.1896755006                  8.1702200081
           2        9                 45.7920584937                 45.7920228520

  Preparing densities etc. for the partition functions (integrals / Hartree potential).

  Preparations completed.
  max(cpu_time)          :      0.074 s.
  Wall clock time (cpu1) :      0.066 s.
------------------------------------------------------------

  Initializing index lists of integration centers etc. from given atomic structure:
  Mapping all atomic coordinates to central unit cell.

  Initializing the k-points
  Using symmetry for reducing the k-points
  | k-points reduced from:        1 to        1
  | Number of k-points                             :         1
  | Consuming          0 KiB for k_phase_exx.
  The eigenvectors in the calculations are REAL.
  | Number of basis functions in the Hamiltonian integrals :      4382
  | Number of basis functions in a single unit cell        :       768
  | Number of centers in hartree potential         :      2552
  | Number of centers in hartree multipole         :      1885
  | Number of centers in electron density summation:      1457
  | Number of centers in basis integrals           :      1532
  | Number of centers in integrals                 :       698
  | Number of centers in hamiltonian               :      1458
  | Consuming          0 KiB for k_phase.
  | Number of super-cells (origin) [n_cells]                     :         125
  | Number of super-cells (after PM_index) [n_cells]             :          28
  | Number of super-cells in hamiltonian [n_cells_in_hamiltonian]:          28
  | Size of matrix packed + index [n_hamiltonian_matrix_size] :      777343
  | Size of matrix packed + index (no_symmetry):     1553917

------------------------------------------------------------
          Begin self-consistency loop: Initialization.

          Date     :  20230221, Time     :  145838.457
------------------------------------------------------------
  | Estimated reciprocal-space cutoff momentum G_max:         3.15259323 bohr^-1 .
  | Reciprocal lattice points for long-range Hartree potential:    3430
  Using simple linear distribution as default method for k-point parallelism.
  * Using 18 tasks for Scalapack Eigenvalue solver.
  Detailed listing of tasks and assigned k-points:
   Task     0 k-point     1 on adag037
   Task     1 k-point     1 on adag037
   Task     2 k-point     1 on adag037
   Task     3 k-point     1 on adag037
   Task     4 k-point     1 on adag037
   Task     5 k-point     1 on adag037
   Task     6 k-point     1 on adag037
   Task     7 k-point     1 on adag037
   Task     8 k-point     1 on adag037
   Task     9 k-point     1 on adag037
   Task    10 k-point     1 on adag037
   Task    11 k-point     1 on adag037
   Task    12 k-point     1 on adag037
   Task    13 k-point     1 on adag037
   Task    14 k-point     1 on adag037
   Task    15 k-point     1 on adag037
   Task    16 k-point     1 on adag037
   Task    17 k-point     1 on adag037
  K-point:     1 Tasks:    18 split into      6 X      3 BLACS grid
  Calculating block size based on n_basis =          768  max_nprow =            6  max_npcol =            3
  ScaLAPACK block size set to:           16
  Allocating        0.250 MB for ovlp
  Allocating        0.250 MB for ham
  Allocating        0.250 MB for eigenvec
  Required Scalapack workspace - INTEGER:            1  REAL:             1
  Partitioning the integration grid into batches with parallel hashing+maxmin method.
  | Number of batches:     4180
  | Maximal batch size:     200
  | Minimal batch size:      99
  | Average batch size:     121.906
  | Standard deviation of batch sizes:      23.297

  Integration load balanced across    18 MPI tasks.
  Work distribution over tasks is as follows:
  Task     0 has      28272 integration points.
  Task     1 has      28320 integration points.
  Task     2 has      28276 integration points.
  Task     3 has      28350 integration points.
  Task     4 has      28324 integration points.
  Task     5 has      28306 integration points.
  Task     6 has      28349 integration points.
  Task     7 has      28259 integration points.
  Task     8 has      28325 integration points.
  Task     9 has      28309 integration points.
  Task    10 has      28290 integration points.
  Task    11 has      28312 integration points.
  Task    12 has      28317 integration points.
  Task    13 has      28299 integration points.
  Task    14 has      28370 integration points.
  Task    15 has      28305 integration points.
  Task    16 has      28298 integration points.
  Task    17 has      28287 integration points.
  Initializing partition tables, free-atom densities, potentials, etc. across the integration grid (initialize_grid_storage).
  | initialize_grid_storage: Actual outermost partition radius vs. multipole_radius_free
  | (-- VB: in principle, multipole_radius_free should be larger, hence this output)
  | Species        1: Confinement radius =              4.999999999999999 AA, multipole_radius_free =              5.054417573612229 AA.
  | Species        1: outer_partition_radius set to              5.054417573612229 AA .
  | Species        2: Confinement radius =              4.999999999999999 AA, multipole_radius_free =              5.048384829883283 AA.
  | Species        2: outer_partition_radius set to              5.048384829883283 AA .
  | The sparse table of interatomic distances needs       4973.51 kbyte instead of     18776.19 kbyte of memory.
  | Net number of integration points:   509568
  | of which are non-zero points    :   407485
  | Numerical average free-atom electrostatic potential    :     -5.33227450 eV
  Renormalizing the initial density to the exact electron count on the 3D integration grid.
  | Initial density: Formal number of electrons (from input files) :     320.0000000000
  | Integrated number of electrons on 3D grid     :     319.9991318333
  | Charge integration error                      :      -0.0008681667
  | Normalization factor for density and gradient :       1.0000027130
  Renormalizing the free-atom superposition density to the exact electron count on the 3D integration grid.
  | Formal number of electrons (from input files) :     320.0000000000
  | Integrated number of electrons on 3D grid     :     319.9991318333
  | Charge integration error                      :      -0.0008681667
  | Normalization factor for density and gradient :       1.0000027130
  Obtaining max. number of non-zero basis functions in each batch (get_n_compute_maxes).
  | Maximal number of non-zero basis functions:      424 in task     0
  | Maximal number of non-zero basis functions:      421 in task     1
  | Maximal number of non-zero basis functions:      421 in task     2
  | Maximal number of non-zero basis functions:      408 in task     3
  | Maximal number of non-zero basis functions:      420 in task     4
  | Maximal number of non-zero basis functions:      429 in task     5
  | Maximal number of non-zero basis functions:      430 in task     6
  | Maximal number of non-zero basis functions:      449 in task     7
  | Maximal number of non-zero basis functions:      433 in task     8
  | Maximal number of non-zero basis functions:      413 in task     9
  | Maximal number of non-zero basis functions:      436 in task    10
  | Maximal number of non-zero basis functions:      416 in task    11
  | Maximal number of non-zero basis functions:      408 in task    12
  | Maximal number of non-zero basis functions:      395 in task    13
  | Maximal number of non-zero basis functions:      418 in task    14
  | Maximal number of non-zero basis functions:      428 in task    15
  | Maximal number of non-zero basis functions:      429 in task    16
  | Maximal number of non-zero basis functions:      416 in task    17
  Integrating Hamiltonian matrix: batch-based integration.
  GPU acceleration will be used when integrating the Hamiltonian matrix.
  Reporting GPU memory usage by myid 0.  Note that it is likely not the only MPI task binding to its GPU!
  Allocating        1.438 MB on GPU for hamiltonian_shell
  Allocating        0.678 MB on GPU for wave
  Allocating        0.002 MB on GPU for partition
  Allocating        0.678 MB on GPU for h_times_psi
  Time summed over all CPUs for integration: real work       11.857 s, elapsed       12.091 s
  Deallocating memory used on GPU for Hamiltonian integration.
  Integrating overlap matrix.
  Time summed over all CPUs for integration: real work       10.030 s, elapsed       10.185 s
  Deallocating overlap matrix.

  Updating Kohn-Sham eigenvalues and eigenvectors using ELSI and the ELPA eigensolver.
  Singularity check in k-point 1 (analysis for other k-points may follow below):
  Overlap matrix is not singular
  | Lowest and highest eigenvalues :  0.2465E-02,  0.7101E+01
  Finished singularity check of overlap matrix
  | Time :     0.174 s
  Starting ELPA eigensolver (GPU)
  Finished Cholesky decomposition
  | Time :     0.007 s
  Finished transformation to standard eigenproblem
  | Time :     0.026 s
  Finished solving standard eigenproblem
  | Time :     0.185 s
  Finished back-transformation of eigenvectors
  | Time :     0.016 s

  Obtaining occupation numbers and electronic chemical potential using ELSI.
  | Note that, for insulating systems, the printed 'chemical potential' value is not uniquely defined.
  | It can be anywhere in the energy gap, as long as it correctly separates occupied and unoccupied states.
  | In systems with a gap, the physically relevant chemical potential is the VBM or HOMO.

  | Chemical potential (Fermi level):    -7.62507714 eV
  Writing Kohn-Sham eigenvalues.

  State    Occupation    Eigenvalue [Ha]    Eigenvalue [eV]
      1       2.00000         -18.921854         -514.88985
      2       2.00000         -18.911145         -514.59843
      3       2.00000         -18.901097         -514.32502
      4       2.00000         -18.899747         -514.28828
      5       2.00000         -18.895381         -514.16947
      6       2.00000         -18.894397         -514.14270
      7       2.00000         -18.893751         -514.12513
      8       2.00000         -18.889782         -514.01712
      9       2.00000         -18.888188         -513.97375
     10       2.00000         -18.885003         -513.88706
     11       2.00000         -18.882807         -513.82733
     12       2.00000         -18.881715         -513.79760
     13       2.00000         -18.876395         -513.65284
     14       2.00000         -18.873671         -513.57873
     15       2.00000         -18.871849         -513.52913
     16       2.00000         -18.870150         -513.48292
     17       2.00000         -18.869740         -513.47174
     18       2.00000         -18.869387         -513.46214
     19       2.00000         -18.865538         -513.35741
     20       2.00000         -18.864481         -513.32864
     21       2.00000         -18.862737         -513.28119
     22       2.00000         -18.861519         -513.24805
     23       2.00000         -18.861127         -513.23738
     24       2.00000         -18.860744         -513.22695
     25       2.00000         -18.859382         -513.18991
     26       2.00000         -18.859118         -513.18271
     27       2.00000         -18.852124         -512.99240
     28       2.00000         -18.848950         -512.90602
     29       2.00000         -18.844761         -512.79205
     30       2.00000         -18.844129         -512.77485
     31       2.00000         -18.842096         -512.71951
     32       2.00000         -18.836422         -512.56512
     33       2.00000          -1.189252          -32.36119
     34       2.00000          -1.172722          -31.91138
     35       2.00000          -1.155087          -31.43152
     36       2.00000          -1.147171          -31.21610
     37       2.00000          -1.144651          -31.14754
     38       2.00000          -1.144409          -31.14094
     39       2.00000          -1.139013          -30.99413
     40       2.00000          -1.132755          -30.82383
     41       2.00000          -1.130124          -30.75225
     42       2.00000          -1.129415          -30.73295
     43       2.00000          -1.115611          -30.35732
     44       2.00000          -1.110971          -30.23106
     45       2.00000          -1.105246          -30.07528
     46       2.00000          -1.104656          -30.05921
     47       2.00000          -1.102652          -30.00468
     48       2.00000          -1.101283          -29.96742
     49       2.00000          -1.096066          -29.82549
     50       2.00000          -1.093877          -29.76592
     51       2.00000          -1.090893          -29.68471
     52       2.00000          -1.089032          -29.63406
     53       2.00000          -1.087347          -29.58823
     54       2.00000          -1.085276          -29.53187
     55       2.00000          -1.080179          -29.39318
     56       2.00000          -1.079185          -29.36611
     57       2.00000          -1.078737          -29.35393
     58       2.00000          -1.077758          -29.32729
     59       2.00000          -1.068398          -29.07260
     60       2.00000          -1.064045          -28.95414
     61       2.00000          -1.061038          -28.87232
     62       2.00000          -1.056722          -28.75487
     63       2.00000          -1.043192          -28.38669
     64       2.00000          -1.040641          -28.31727
     65       2.00000          -0.703294          -19.13761
     66       2.00000          -0.700347          -19.05742
     67       2.00000          -0.699170          -19.02539
     68       2.00000          -0.697105          -18.96920
     69       2.00000          -0.689244          -18.75529
     70       2.00000          -0.677134          -18.42577
     71       2.00000          -0.675703          -18.38680
     72       2.00000          -0.673873          -18.33702
     73       2.00000          -0.665448          -18.10776
     74       2.00000          -0.662766          -18.03478
     75       2.00000          -0.659777          -17.95345
     76       2.00000          -0.654838          -17.81904
     77       2.00000          -0.653139          -17.77281
     78       2.00000          -0.651291          -17.72252
     79       2.00000          -0.647798          -17.62747
     80       2.00000          -0.645740          -17.57149
     81       2.00000          -0.642626          -17.48673
     82       2.00000          -0.638127          -17.36433
     83       2.00000          -0.632930          -17.22289
     84       2.00000          -0.629661          -17.13394
     85       2.00000          -0.626997          -17.06145
     86       2.00000          -0.624092          -16.98240
     87       2.00000          -0.623192          -16.95793
     88       2.00000          -0.618546          -16.83150
     89       2.00000          -0.614056          -16.70931
     90       2.00000          -0.608863          -16.56800
     91       2.00000          -0.606851          -16.51325
     92       2.00000          -0.606382          -16.50051
     93       2.00000          -0.599428          -16.31125
     94       2.00000          -0.593081          -16.13856
     95       2.00000          -0.579900          -15.77988
     96       2.00000          -0.576512          -15.68770
     97       2.00000          -0.573694          -15.61100
     98       2.00000          -0.569942          -15.50892
     99       2.00000          -0.565086          -15.37677
    100       2.00000          -0.563775          -15.34109
    101       2.00000          -0.558308          -15.19235
    102       2.00000          -0.554388          -15.08566
    103       2.00000          -0.551209          -14.99917
    104       2.00000          -0.549565          -14.95442
    105       2.00000          -0.548248          -14.91860
    106       2.00000          -0.544293          -14.81097
    107       2.00000          -0.540430          -14.70585
    108       2.00000          -0.537591          -14.62861
    109       2.00000          -0.535390          -14.56870
    110       2.00000          -0.532032          -14.47734
    111       2.00000          -0.531443          -14.46129
    112       2.00000          -0.527921          -14.36546
    113       2.00000          -0.525932          -14.31134
    114       2.00000          -0.525395          -14.29673
    115       2.00000          -0.521737          -14.19719
    116       2.00000          -0.521493          -14.19055
    117       2.00000          -0.518042          -14.09663
    118       2.00000          -0.515277          -14.02139
    119       2.00000          -0.515046          -14.01510
    120       2.00000          -0.511139          -13.90881
    121       2.00000          -0.509216          -13.85648
    122       2.00000          -0.505396          -13.75251
    123       2.00000          -0.505044          -13.74293
    124       2.00000          -0.500954          -13.63167
    125       2.00000          -0.497476          -13.53701
    126       2.00000          -0.495777          -13.49079
    127       2.00000          -0.494503          -13.45610
    128       2.00000          -0.490982          -13.36029
    129       2.00000          -0.489044          -13.30756
    130       2.00000          -0.483613          -13.15979
    131       2.00000          -0.479594          -13.05042
    132       2.00000          -0.476171          -12.95728
    133       2.00000          -0.474258          -12.90522
    134       2.00000          -0.473063          -12.87270
    135       2.00000          -0.472140          -12.84758
    136       2.00000          -0.470105          -12.79219
    137       2.00000          -0.468630          -12.75208
    138       2.00000          -0.466346          -12.68991
    139       2.00000          -0.465194          -12.65857
    140       2.00000          -0.461051          -12.54584
    141       2.00000          -0.460876          -12.54107
    142       2.00000          -0.459933          -12.51541
    143       2.00000          -0.459540          -12.50473
    144       2.00000          -0.457160          -12.43997
    145       2.00000          -0.454552          -12.36900
    146       2.00000          -0.452529          -12.31395
    147       2.00000          -0.451981          -12.29904
    148       2.00000          -0.450549          -12.26006
    149       2.00000          -0.449177          -12.22272
    150       2.00000          -0.448629          -12.20781
    151       2.00000          -0.446932          -12.16165
    152       2.00000          -0.446787          -12.15769
    153       2.00000          -0.445483          -12.12221
    154       2.00000          -0.444006          -12.08203
    155       2.00000          -0.442403          -12.03841
    156       2.00000          -0.440032          -11.97388
    157       2.00000          -0.436588          -11.88018
    158       2.00000          -0.435609          -11.85352
    159       2.00000          -0.433906          -11.80718
    160       2.00000          -0.427233          -11.62560
    161       0.00000          -0.175753           -4.78247
    162       0.00000          -0.118743           -3.23117
    163       0.00000          -0.115087           -3.13167
    164       0.00000          -0.114188           -3.10721
    165       0.00000          -0.110340           -3.00252
    166       0.00000          -0.104901           -2.85449
    167       0.00000          -0.102785           -2.79693
    168       0.00000          -0.077746           -2.11559
    169       0.00000          -0.072230           -1.96548
    170       0.00000          -0.068260           -1.85745
    171       0.00000          -0.063159           -1.71865
    172       0.00000          -0.057089           -1.55348
    173       0.00000          -0.055720           -1.51622
    174       0.00000          -0.053971           -1.46864
    175       0.00000          -0.048499           -1.31971
    176       0.00000          -0.046472           -1.26457
    177       0.00000          -0.037866           -1.03038
    178       0.00000          -0.032573           -0.88635
    179       0.00000          -0.028779           -0.78313
    180       0.00000          -0.018439           -0.50174
    181       0.00000          -0.015557           -0.42332
    182       0.00000          -0.009365           -0.25483
    183       0.00000          -0.008037           -0.21871
    184       0.00000          -0.004365           -0.11877
    185       0.00000          -0.002368           -0.06445
    186       0.00000           0.008061            0.21934
    187       0.00000           0.009667            0.26305
    188       0.00000           0.015194            0.41346
    189       0.00000           0.020059            0.54584
    190       0.00000           0.021293            0.57940
    191       0.00000           0.027865            0.75824
    192       0.00000           0.028610            0.77850
    193       0.00000           0.036370            0.98967
    194       0.00000           0.039627            1.07831
    195       0.00000           0.044222            1.20334
    196       0.00000           0.047821            1.30127
    197       0.00000           0.050400            1.37146
    198       0.00000           0.051744            1.40803
    199       0.00000           0.057781            1.57231
    200       0.00000           0.059274            1.61293
    201       0.00000           0.062392            1.69777
    202       0.00000           0.063068            1.71616
    203       0.00000           0.070991            1.93177
    204       0.00000           0.072577            1.97492
    205       0.00000           0.073750            2.00685
    206       0.00000           0.076339            2.07728
    207       0.00000           0.080290            2.18480
    208       0.00000           0.085492            2.32635
    209       0.00000           0.087236            2.37382
    210       0.00000           0.089308            2.43021
    211       0.00000           0.092207            2.50909
    212       0.00000           0.094411            2.56904
    213       0.00000           0.099604            2.71037
    214       0.00000           0.100366            2.73110
    215       0.00000           0.103716            2.82224
    216       0.00000           0.104989            2.85690
    217       0.00000           0.110959            3.01935
    218       0.00000           0.112706            3.06689
    219       0.00000           0.119079            3.24031
    220       0.00000           0.121350            3.30209
    221       0.00000           0.122625            3.33680
    222       0.00000           0.124346            3.38363
    223       0.00000           0.132374            3.60207
    224       0.00000           0.136008            3.70096
    225       0.00000           0.142824            3.88643
    226       0.00000           0.148105            4.03014
    227       0.00000           0.151952            4.13484
    228       0.00000           0.153741            4.18350
    229       0.00000           0.158406            4.31045
    230       0.00000           0.162998            4.43540
    231       0.00000           0.178302            4.85184
    232       0.00000           0.180191            4.90326
    233       0.00000           0.184905            5.03152
    234       0.00000           0.187568            5.10399
    235       0.00000           0.194156            5.28327
    236       0.00000           0.197351            5.37019
    237       0.00000           0.202291            5.50462
    238       0.00000           0.208585            5.67589
    239       0.00000           0.210769            5.73532
    240       0.00000           0.216042            5.87879
    241       0.00000           0.230489            6.27192
    242       0.00000           0.233711            6.35960
    243       0.00000           0.241223            6.56402
    244       0.00000           0.242353            6.59477
    245       0.00000           0.250678            6.82129
    246       0.00000           0.257087            6.99569
    247       0.00000           0.266648            7.25586
    248       0.00000           0.275317            7.49175
    249       0.00000           0.275541            7.49785
    250       0.00000           0.284281            7.73569
    251       0.00000           0.291189            7.92364
    252       0.00000           0.297351            8.09134
    253       0.00000           0.302002            8.21788
    254       0.00000           0.310224            8.44164
    255       0.00000           0.312395            8.50070
    256       0.00000           0.316214            8.60462
    257       0.00000           0.320836            8.73039
    258       0.00000           0.327740            8.91825
    259       0.00000           0.338008            9.19767
    260       0.00000           0.339565            9.24004
    261       0.00000           0.344201            9.36620
[...]
  |    H      0     4.527807 A      4.527807 A        1.268855E-16 a.u.
  |    H      0     4.527807 A      4.583499 A       -4.900954E-17 a.u.
  |    H      0     4.527807 A      4.583499 A        4.713786E-16 a.u.
  |    H      2     3.678162 A  2.180220E+05 A            0.556529 a.u.
  |    H      1     3.958095 A  1.721251E+08 A            0.841931 a.u.
  |    H      0     4.527807 A  3.866455E+16 A            0.581436 a.u.
  |    O      0     2.043000 A      2.043000 A       -1.436841E-16 a.u.
  |    O      3     3.498446 A      3.498446 A        3.043453E-17 a.u.
  |    O      3     3.498446 A      3.498446 A        1.541443E-16 a.u.
  |    O      0     3.905335 A      3.905335 A        2.173090E-16 a.u.
  |    O      0     3.905335 A      3.905335 A        7.213445E-17 a.u.
  |    O      0     4.101052 A      4.101052 A        2.361718E-16 a.u.
  |    O      1     4.101052 A      4.101052 A        3.235185E-17 a.u.
  |    O      0     4.359549 A      4.359549 A       -5.329475E-17 a.u.
  |    O      1     4.413171 A      4.413171 A        3.261883E-17 a.u.
  |    O      1     4.522403 A      4.522403 A        6.417997E-16 a.u.
  |    O      1     4.522403 A      4.522403 A        4.224783E-16 a.u.
  |    O      2     4.522403 A      4.522403 A       -4.387647E-16 a.u.
  |    O      0     4.522403 A      4.578029 A        2.602039E-16 a.u.
  |    O      0     4.578029 A      4.578029 A        1.226235E-16 a.u.
  |    O      1     4.578029 A      4.578029 A       -6.107316E-16 a.u.
  |    O      1     4.578029 A      4.578029 A       -2.224438E-16 a.u.
  |    O      2     4.578029 A      4.578029 A       -7.020279E-16 a.u.
  |    O      2     4.522403 A      4.578029 A        1.323470E-15 a.u.
  |    O      2     4.578029 A      4.578029 A        7.923696E-16 a.u.
  |    O      2     4.522403 A      4.578029 A       -9.951815E-16 a.u.
  |    O      0     4.578029 A      4.634338 A       -8.813582E-18 a.u.
  |    O      1     4.578029 A      4.634338 A       -3.325386E-17 a.u.
  |    O      1     4.634338 A      4.634338 A        9.588032E-16 a.u.
  |    O      2     4.578029 A      4.634338 A        1.064715E-17 a.u.
  |    O      2     4.578029 A      4.634338 A       -3.770343E-15 a.u.
  |    O      4     3.251020 A  1.511584E+03 A            1.513372 a.u.
  |    O      3     3.541477 A  1.434166E+04 A            4.293220 a.u.
  |    O      2     4.634338 A  5.584435E+05 A            9.352428 a.u.
  |    O      1     4.634338 A  2.821283E+08 A            2.261940 a.u.
  |    O      0     4.578029 A  4.264100E+16 A            0.641234 a.u.

  | Shrink_full_auxil_basis : there are       38  radial auxiliary wave functions
                            accepted and       5 rejected.
  | Shrink_full_auxil_basis : there are totally                4544 partial auxiliary wave functions.
 
  | Maximal number of product basis functions per thread :   256   256
 
  | Minimal total memory requirement for three-center overlap :      10.450 Gbs
  | Number of local auxiliary basis functions on task:      0   256
  | Number of local auxiliary basis functions on task:      1   256
  | Number of local auxiliary basis functions on task:      2   256
  | Number of local auxiliary basis functions on task:      3   256
  | Number of local auxiliary basis functions on task:      4   256
  | Number of local auxiliary basis functions on task:      5   256
  | Number of local auxiliary basis functions on task:      6   256
  | Number of local auxiliary basis functions on task:      7   256
  | Number of local auxiliary basis functions on task:      8   256
  | Number of local auxiliary basis functions on task:      9   256
  | Number of local auxiliary basis functions on task:     10   256
  | Number of local auxiliary basis functions on task:     11   256
  | Number of local auxiliary basis functions on task:     12   256
  | Number of local auxiliary basis functions on task:     13   256
  | Number of local auxiliary basis functions on task:     14   240
  | Number of local auxiliary basis functions on task:     15   240
  | Number of local auxiliary basis functions on task:     16   240
  | Number of local auxiliary basis functions on task:     17   240
  | 2D aux task distribution:      3 X      6
  | 2D block size (nb_aux_2d):     64
 
  Basis pair condensation :    295296  -->     222330
 
 --------------------------------------------
  Constructing auxiliary basis (full product) ...
 
  Product basis:
  | charge radius: extent of product basis function
  | field radius: extent of its Coulomb potential
  | Species   l  charge radius    field radius  multipol momen
  |    H      1     3.910002 A      3.910002 A       -2.487223E-16 a.u.
  |    H      1     3.958095 A      3.958095 A       -2.441841E-16 a.u.
  |    H      0     4.527807 A      4.527807 A        1.268855E-16 a.u.
  |    H      0     4.527807 A      4.583499 A       -4.900954E-17 a.u.
  |    H      0     4.527807 A      4.583499 A        4.713786E-16 a.u.
  |    H      2     3.678162 A  2.180220E+05 A            0.556529 a.u.
  |    H      1     3.958095 A  1.721251E+08 A            0.841931 a.u.
  |    H      0     4.527807 A  3.866455E+16 A            0.581436 a.u.
  |    O      0     2.043000 A      2.043000 A       -1.436841E-16 a.u.
  |    O      3     3.498446 A      3.498446 A        3.043453E-17 a.u.
  |    O      3     3.498446 A      3.498446 A        1.541443E-16 a.u.
  |    O      0     3.905335 A      3.905335 A        2.173090E-16 a.u.
  |    O      0     3.905335 A      3.905335 A        7.213445E-17 a.u.
  |    O      0     4.101052 A      4.101052 A        2.361718E-16 a.u.
  |    O      1     4.101052 A      4.101052 A        3.235185E-17 a.u.
  |    O      0     4.359549 A      4.359549 A       -5.329475E-17 a.u.
  |    O      1     4.413171 A      4.413171 A        3.261883E-17 a.u.
  |    O      1     4.522403 A      4.522403 A        6.417997E-16 a.u.
  |    O      1     4.522403 A      4.522403 A        4.224783E-16 a.u.
  |    O      2     4.522403 A      4.522403 A       -4.387647E-16 a.u.
  |    O      0     4.522403 A      4.578029 A        2.602039E-16 a.u.
  |    O      0     4.578029 A      4.578029 A        1.226235E-16 a.u.
  |    O      1     4.578029 A      4.578029 A       -6.107316E-16 a.u.
  |    O      1     4.578029 A      4.578029 A       -2.224438E-16 a.u.
  |    O      2     4.578029 A      4.578029 A       -7.020279E-16 a.u.
  |    O      2     4.522403 A      4.578029 A        1.323470E-15 a.u.
  |    O      2     4.578029 A      4.578029 A        7.923696E-16 a.u.
  |    O      2     4.522403 A      4.578029 A       -9.951815E-16 a.u.
  |    O      0     4.578029 A      4.634338 A       -8.813582E-18 a.u.
  |    O      1     4.578029 A      4.634338 A       -3.325386E-17 a.u.
  |    O      1     4.634338 A      4.634338 A        9.588032E-16 a.u.
  |    O      2     4.578029 A      4.634338 A        1.064715E-17 a.u.
  |    O      2     4.578029 A      4.634338 A       -3.770343E-15 a.u.
  |    O      4     3.251020 A  1.511584E+03 A            1.513372 a.u.
  |    O      3     3.541477 A  1.434166E+04 A            4.293220 a.u.
  |    O      2     4.634338 A  5.584435E+05 A            9.352428 a.u.
  |    O      1     4.634338 A  2.821283E+08 A            2.261940 a.u.
  |    O      0     4.578029 A  4.264100E+16 A            0.641234 a.u.

  | Shrink_full_auxil_basis : there are       38  radial auxiliary wave functions
                            accepted and       5 rejected.
  | Shrink_full_auxil_basis : there are totally                4544 partial auxiliary wave functions.
 
  | Maximal number of product basis functions per thread :   256   256
 
  | Minimal total memory requirement for three-center overlap :      10.450 Gbs
  | Number of local auxiliary basis functions on task:      0   256
  | Number of local auxiliary basis functions on task:      1   256
  | Number of local auxiliary basis functions on task:      2   256
  | Number of local auxiliary basis functions on task:      3   256
  | Number of local auxiliary basis functions on task:      4   256
  | Number of local auxiliary basis functions on task:      5   256
  | Number of local auxiliary basis functions on task:      6   256
  | Number of local auxiliary basis functions on task:      7   256
  | Number of local auxiliary basis functions on task:      8   256
  | Number of local auxiliary basis functions on task:      9   256
  | Number of local auxiliary basis functions on task:     10   256
  | Number of local auxiliary basis functions on task:     11   256
  | Number of local auxiliary basis functions on task:     12   256
  | Number of local auxiliary basis functions on task:     13   256
  | Number of local auxiliary basis functions on task:     14   240
  | Number of local auxiliary basis functions on task:     15   240
  | Number of local auxiliary basis functions on task:     16   240
  | Number of local auxiliary basis functions on task:     17   240
  | 2D aux task distribution:      3 X      6
  | 2D block size (nb_aux_2d):     64
 
  Basis pair condensation :    295296  -->     222330
dP_dE (Bohr^3) at every cycle:--->
 (361.897603285255,0.000000000000000E+000) (-7.63479297855217,0.000000000000000E+000) (2.02676479416172,0.000000000000000E+000)
 (-7.64224063000433,0.000000000000000E+000) (353.859316269551,0.000000000000000E+000) (-5.00194058885192,0.000000000000000E+000)
 (2.02752285277815,0.000000000000000E+000) (-5.00596300264583,0.000000000000000E+000) (364.681003977054,0.000000000000000E+000)
DFPT polarizability (Bohr^3)        xx        yy        zz        xy        xz        yz
  | Polarizability:--->                       361.897603285                  353.859316270                  364.681003977                   -7.634792979                    2.026764794                   -5.001940589

DFPT for dielectric_constant:--->  # PARSE DFPT_dielectric_tensor
               1.689548722668992            -0.014547103098810             0.003861736199074
              -0.014561293628117             1.674232814263387            -0.009530545968248
               0.003863180580982            -0.009538210153555             1.694852129970624

                                               :  max(cpu_time)    wall_clock(cpu1)
  | Time for  dielectric calculation            :        0.000 s           0.000 s
===========================================================================

------------------------------------------------------------------------------
  Final output of selected total energy values:

  The following output summarizes some interesting total energy values
  at the end of a run (AFTER all relaxation, molecular dynamics, etc.).

  | Total energy of the DFT / Hartree-Fock s.c.f. calculation      :         -66108.415250010 eV
  | Final zero-broadening corrected energy (caution - metals only) :         -66108.415250010 eV
  | For reference only, the value of 1 Hartree used in FHI-aims is :             27.211384500 eV
  | For reference only, the overall average (free atom contribution
  | + realspace contribution) of the electrostatic potential after
  | s.c.f. convergence is                                          :             -4.917596804 eV

  Before relying on these values, please be sure to understand exactly which
  total energy value is referred to by a given number. Different objects may
  all carry the same name 'total energy'. Definitions:

  Total energy of the DFT / Hartree-Fock s.c.f. calculation:
  | Note that this energy does not include ANY quantities calculated after the
  | s.c.f. cycle, in particular not ANY RPA, MP2, etc. many-body perturbation terms.

  Final zero-broadening corrected energy:
  | For metallic systems only, a broadening of the occupation numbers at the Fermi
  | level can be extrapolated back to zero broadening by an electron-gas inspired
  | formula. For all systems that are not real metals, this value can be
  | meaningless and should be avoided.

------------------------------------------------------------------------------
  Methods described in the following list of references were used in this FHI-aims run.
  If you publish the results, please make sure to cite these reference if they apply.
  FHI-aims is an academic code, and for our developers (often, Ph.D. students
  and postdocs), scientific credit in the community is essential.
  Thank you for helping us!

  For any use of FHI-aims, please cite:

    Volker Blum, Ralf Gehrke, Felix Hanke, Paula Havu, Ville Havu,
    Xinguo Ren, Karsten Reuter, and Matthias Scheffler
    'Ab initio molecular simulations with numeric atom-centered orbitals'
    Computer Physics Communications 180, 2175-2196 (2009)
    http://doi.org/10.1016/j.cpc.2009.06.022


  For Hartree-Fock, hybrid functionals, or many-body perturbation theory used in your run, please cite:

    Xinguo Ren, Patrick Rinke, Volker Blum, Juergen Wieferink, Alex Tkatchenko,
    Andrea Sanfilippo, Karsten Reuter, and Matthias Scheffler,
    'Resolution-of-identity approach to Hartree-Fock, hybrid density functionals,
    RPA, MP2, and GW with numeric atom-centered orbital basis functions'
    New Journal of Physics 14, 053020 (2012).
    http://doi.org/10.1088/1367-2630/14/5/053020


  The provided symmetry information was generated with SPGlib:

    Atsushi Togo, Yusuke Seto, Dimitar Pashov
    SPGlib 1.7.3 obtained from http://spglib.sourceforge.net
    Copyright (C) 2008 Atsushi Togo


  The DFPT (perturbation by an electric field) part of the code was used.
  Here is the corresponding reference:

    Honghui Shang, Nathaniel Raimbault, Mariana Rossi,
    Christian Carbogno, Patrick Rinke and Matthias Scheffler,
    'All-Electron, Real-Space Perturbation Theory for Homogeneous
    Electric Fields: Theory, Implementation, and Application within dft'
    New Journal of Physics, 20(7):073040, 2018


  The ELSI infrastructure was used in your run to solve the Kohn-Sham electronic structure.
  Please check out http://elsi-interchange.org to learn more.
  If scalability is important for your project, please acknowledge ELSI by citing:

    V. W-z. Yu, F. Corsetti, A. Garcia, W. P. Huhn, M. Jacquelin, W. Jia,
    B. Lange, L. Lin, J. Lu, W. Mi, A. Seifitokaldani, A. Vazquez-Mayagoitia,
    C. Yang, H. Yang, and V. Blum
    'ELSI: A unified software interface for Kohn-Sham electronic structure solvers'
    Computer Physics Communications 222, 267-285 (2018).
    http://doi.org/10.1016/j.cpc.2017.09.007


  For the real-space grid partitioning and parallelization used in this calculation, please cite:

    Ville Havu, Volker Blum, Paula Havu, and Matthias Scheffler,
    'Efficient O(N) integration for all-electron electronic structure calculation'
    'using numerically tabulated basis functions'
    Journal of Computational Physics 228, 8367-8379 (2009).
    http://doi.org/10.1016/j.jcp.2009.08.008


  The high-level electronic structure method used in your calculation
  employed our efficient localized resolution of identity for the Coulomb operator.
  Some calculations, especially large-scale hybrid density functional theory,
  are only possible thanks to this development. For this feature, please cite:

    Arvid Ihrig, Juergen Wieferink, Igor Ying Zhang, Matti Ropo, Xinguo Ren,
    Patrick Rinke, Matthias Scheffler, and Volker Blum,
    'Accurate localized resolution of identity approach for linear-scaling
    hybrid density functionals and for many-body perturbation theory'
    New Journal of Physics 117, 093020 (2015).
    http://doi.org/10.1088/1367-2630/17/9/093020

  Of course, there are many other important community references, e.g., those cited in the
  above references. Our list is limited to references that describe implementations in the
  FHI-aims code. The reason is purely practical (length of this list) - please credit others as well.

------------------------------------------------------------
          Leaving FHI-aims.
          Date     :  20230221, Time     :  150717.401

          Computational steps:
          | Number of self-consistency cycles          :           46
          | Number of SCF (re)initializations          :            1
          | Number of coupled perturbed self-consistency cycles          :            0
          | Number of CPSCF (re)initializations          :            0

          Detailed time accounting                     :  max(cpu_time)    wall_clock(cpu1)
          | Total time                                  :      512.420 s         532.964 s
          | GPU initialization                          :        2.068 s          12.610 s
          | Preparation time                            :        0.074 s           0.066 s
          | Boundary condition initalization            :        1.285 s           1.285 s
          | Grid partitioning                           :        0.426 s           0.426 s
          | Preloading free-atom quantities on grid     :        2.399 s           2.399 s
          | Free-atom superposition energy              :        0.309 s           0.309 s
          | Total time for integrations                 :       12.595 s          12.855 s
          | Product basis setup: Total time             :        0.000 s           0.000 s
          | Product basis: | 2-center integrations     :(       0.000 s)  (       0.000 s)
          | Product basis: | LVL 3-center & coefficient:(       0.000 s)  (       0.000 s)
          | Total time for solution of K.-S. equations  :        4.249 s          12.849 s
          | Total time for density update               :        8.946 s           9.635 s
          | Total time for mixing & preconditioning     :       16.615 s          16.620 s
          | Total time for Hartree multipole update     :        0.122 s           0.125 s
          | Total time for Hartree multipole sum        :       36.053 s          36.064 s
          | Total time for total energy evaluation      :        0.005 s           0.005 s
          | Total time for DFPT                         :      426.418 s         426.591 s
          | Total time first_order_DM                   :        0.301 s           0.305 s
          | Total time first_order_density              :       89.294 s          89.308 s
          | Total time first_order_potential            :       53.193 s          53.209 s
          | Total time first_order_H                    :      175.731 s         175.793 s
          | Total time solving of Sternheimer equations :        0.190 s           0.191 s
          | Total time for dielectric constant          :        0.000 s           0.000 s
          | Total time momentum matrix                  :        0.000 s           0.000 s

          GPU acceleration has been used for charge density update.
          GPU acceleration has been used for real-space Hamiltonian integration.
          Due to GPU usage, wall_clock(cpu1) will give a more reliable estimate for timings.

          Partial memory accounting:
          | Residual value for overall tracked memory usage across tasks:     0.000000 MB (should be 0.000000 MB)
          | Peak values for overall tracked memory usage:
          |   Minimum:      116.400 MB (on task  0 after allocating DFPT_pulay_mixing::pulay_mix::alphas)
          |   Maximum:      116.400 MB (on task  0 after allocating DFPT_pulay_mixing::pulay_mix::alphas)
          |   Average:      116.400 MB
          | Largest tracked array allocation:
          |   Minimum:       41.515 MB (DFPT_pulay_mixing::initialize_pulay_mixing::X_in_diffs on task  0)
          |   Maximum:       41.515 MB (DFPT_pulay_mixing::initialize_pulay_mixing::X_in_diffs on task  0)
          |   Average:       41.515 MB
          Note:  These values currently only include a subset of arrays which are explicitly tracked.
          The "true" memory usage will be greater.

          Have a nice day.
------------------------------------------------------------
