------------------------------------------------------------
          Invoking FHI-aims ...

          When using FHI-aims, please cite the following reference:

            Volker Blum, Ralf Gehrke, Felix Hanke, Paula Havu,
            Ville Havu, Xinguo Ren, Karsten Reuter, and Matthias Scheffler,
            'Ab Initio Molecular Simulations with Numeric Atom-Centered Orbitals',
            Computer Physics Communications 180, 2175-2196 (2009)

          In addition, many other developments in FHI-aims are likely important for
          your particular application. A partial list of references is given at the end of
          this file. Thank you for giving credit to the authors of these developments.

          For any questions about FHI-aims, please visit our slack channel at

            https://fhi-aims.slack.com

          and our main development and support site at

            https://aims-git.rz-berlin.mpg.de .

          The latter site, in particular, has a wiki to collect information, as well
          as an issue tracker to log discussions, suggest improvements, and report issues
          or bugs. https://aims-git.rz-berlin.mpg.de is also the main development site
          of the project and all new and updated code versions can be obtained there.
          Please send an email to aims-coordinators@fhi-berlin.mpg.de and we will add
          you to these sites. They are for you and everyone is welcome there.

------------------------------------------------------------



  Date     :  20230221, Time     :  153618.541
  Time zero on CPU 1             :   0.325103000000000E+00  s.
  Internal wall clock time zero  :           446225778.541  s.

  FHI-aims created a unique identifier for this run for later identification
  aims_uuid : 3914E0CD-E271-460A-AFEE-AB1CA66DF94B

  Build configuration of the current instance of FHI-aims
  -------------------------------------------------------
  FHI-aims version      : 221103
  Commit number         : 42523251a
  CMake host system     : Linux-5.3.18-150300.59.68-default
  CMake version         : 3.17.0
  Fortran compiler      : /mpcdf/soft/SLE_15/packages/x86_64/intel_oneapi/2021.3/mpi/2021.3.0/bin/mpiifort (Intel) version 20.2.3.20210609
  Fortran compiler flags: -O3 -ip -fp-model precise
  C compiler            : /mpcdf/soft/SLE_15/packages/x86_64/intel/2021.3.0/bin/icc (Intel) version 20.2.3.20210609
  C compiler flags      : -O3 -ip -fp-model precise -std=gnu99
  CUDA compiler         : /mpcdf/soft/SLE_15/packages/x86_64/cuda/11.6.2/bin/nvcc
  CUDA compiler flags   : -O3 -DAdd_ -lcublas
  HIP compiler          :
  HIP compiler flags    :
  HIP GPU arch          :
  ELPA2 kernel          : AVX512
  Using MPI
  Using ScaLAPACK
  Using LibXC
  Using CUDA
  Using i-PI
  Using RLSY
  Linking against: /mpcdf/soft/SLE_15/packages/x86_64/cuda/11.6.2/lib64/libcublas.so
                   /mpcdf/soft/SLE_15/packages/x86_64/cuda/11.6.2/lib64/libcudart.so
                   /mpcdf/soft/SLE_15/packages/x86_64/intel_oneapi/2021.3/mkl/latest/lib/intel64/libmkl_intel_lp64.so
                   /mpcdf/soft/SLE_15/packages/x86_64/intel_oneapi/2021.3/mkl/latest/lib/intel64/libmkl_sequential.so
                   /mpcdf/soft/SLE_15/packages/x86_64/intel_oneapi/2021.3/mkl/latest/lib/intel64/libmkl_core.so
                   /mpcdf/soft/SLE_15/packages/x86_64/intel_oneapi/2021.3/mkl/latest/lib/intel64/libmkl_blacs_intelmpi_lp64.so
                   /mpcdf/soft/SLE_15/packages/x86_64/intel_oneapi/2021.3/mkl/latest/lib/intel64/libmkl_scalapack_lp64.so

  Using       18 parallel tasks.
  Task        0 on host adag040 reporting.
  Task        1 on host adag040 reporting.
  Task        2 on host adag040 reporting.
  Task        3 on host adag040 reporting.
  Task        4 on host adag040 reporting.
  Task        5 on host adag040 reporting.
  Task        6 on host adag040 reporting.
  Task        7 on host adag040 reporting.
  Task        8 on host adag040 reporting.
  Task        9 on host adag040 reporting.
  Task       10 on host adag040 reporting.
  Task       11 on host adag040 reporting.
  Task       12 on host adag040 reporting.
  Task       13 on host adag040 reporting.
  Task       14 on host adag040 reporting.
  Task       15 on host adag040 reporting.
  Task       16 on host adag040 reporting.
  Task       17 on host adag040 reporting.

  Obtaining array dimensions for all initial allocations:
  
  -----------------------------------------------------------------------
  Parsing control.in (first pass over file, find array dimensions only).
  The contents of control.in will be repeated verbatim below
  unless switched off by setting 'verbatim_writeout .false.' .
  in the first line of control.in .
  -----------------------------------------------------------------------
  
  #########################################################################################
  #
  #  Volker Blum, 2017 : Test run input file control.in for simple H2O
  #
  #########################################################################################
  #
  #  Physical model
  #
    xc                 pw-lda
    spin               none
    relativistic       none
    charge             0.
  
    use_gpu
  
    DFPT dielectric
    ri_density_restart write
    ri_rho1 write
  #  ri_density_restart read 0
  #  ri_rho1 read
    ri_full_output .true.
    sc_accuracy_rho    1d-6
  #  use_calculate_fock_matrix_old .false.
  #  wave_threshold 1e-8
    k_grid 1 1 1
  #  output cube eigenstate 160
  #  output cube eigenstate 161
    wave_threshold 1e-8
    default_prodbas_acc 1e-6
    default_max_l_prodbas 6
  #
  #  Relaxation
  #
  #  relax_geometry   bfgs 1.e-2
  #
  
  ################################################################################
  
  
  ################################################################################
  #
  #  FHI-aims code project
  #  VB, Fritz-Haber Institut, 2009
  #
  #  Suggested "light" defaults for H atom (to be pasted into control.in file)
  #  Be sure to double-check any results obtained with these settings for post-processing,
  #  e.g., with the "tight" defaults and larger basis sets.
  #
  ################################################################################
    species        H
  #     global species definitions
      nucleus             1
      mass                1.00794
  #
      l_hartree           4
  #
      cut_pot             3.5  1.5  1.0
      basis_dep_cutoff    1e-4
  #
      radial_base         24 5.0
      radial_multiplier   1
      angular_grids       specified
        division   0.2421   50
        division   0.3822  110
        division   0.4799  194
        division   0.5341  302
  #      division   0.5626  434
  #      division   0.5922  590
  #      division   0.6542  770
  #      division   0.6868 1202
  #      outer_grid  770
        outer_grid  302
  ################################################################################
  #
  #  Definition of "minimal" basis
  #
  ################################################################################
  #     valence basis states
      valence      1  s   1.
  #     ion occupancy
      ion_occ      1  s   0.5
  ################################################################################
  #
  #  Suggested additional basis functions. For production calculations,
  #  uncomment them one after another (the most important basis functions are
  #  listed first).
  #
  #  Basis constructed for dimers: 0.5 A, 0.7 A, 1.0 A, 1.5 A, 2.5 A
  #
  ################################################################################
  #  "First tier" - improvements: -1014.90 meV to -62.69 meV
       hydro 2 s 2.1
       hydro 2 p 3.5
  #  "Second tier" - improvements: -12.89 meV to -1.83 meV
  #     hydro 1 s 0.85
  #     hydro 2 p 3.7
  #     hydro 2 s 1.2
  #     hydro 3 d 7
  #  "Third tier" - improvements: -0.25 meV to -0.12 meV
  #     hydro 4 f 11.2
  #     hydro 3 p 4.8
  #     hydro 4 d 9
  #     hydro 3 s 3.2
  ################################################################################
  #
  #  FHI-aims code project
  #  VB, Fritz-Haber Institut, 2009
  #
  #  Suggested "light" defaults for O atom (to be pasted into control.in file)
  #  Be sure to double-check any results obtained with these settings for post-processing,
  #  e.g., with the "tight" defaults and larger basis sets.
  #
  ################################################################################
    species        O
  #     global species definitions
      nucleus             8
      mass                15.9994
  #
      l_hartree           4
  #
      cut_pot             3.5  1.5  1.0
      basis_dep_cutoff    1e-4
  #
      radial_base         36 5.0
      radial_multiplier   1
       angular_grids specified
        division   0.2659   50
        division   0.4451  110
        division   0.6052  194
        division   0.7543  302
  #      division   0.8014  434
  #      division   0.8507  590
  #      division   0.8762  770
  #      division   0.9023  974
  #      division   1.2339 1202
  #      outer_grid 974
        outer_grid 302
  ################################################################################
  #
  #  Definition of "minimal" basis
  #
  ################################################################################
  #     valence basis states
      valence      2  s   2.
      valence      2  p   4.
  #     ion occupancy
      ion_occ      2  s   1.
      ion_occ      2  p   3.
  ################################################################################
  #
  #  Suggested additional basis functions. For production calculations,
  #  uncomment them one after another (the most important basis functions are
  #  listed first).
  #
  #  Constructed for dimers: 1.0 A, 1.208 A, 1.5 A, 2.0 A, 3.0 A
  #
  ################################################################################
  #  "First tier" - improvements: -699.05 meV to -159.38 meV
       hydro 2 p 1.8
       hydro 3 d 7.6
       hydro 3 s 6.4
  #  "Second tier" - improvements: -49.91 meV to -5.39 meV
  #     hydro 4 f 11.6
  #     hydro 3 p 6.2
  #     hydro 3 d 5.6
  #     hydro 5 g 17.6
  #     hydro 1 s 0.75
  #  "Third tier" - improvements: -2.83 meV to -0.50 meV
  #     ionic 2 p auto
  #     hydro 4 f 10.8
  #     hydro 4 d 4.7
  #     hydro 2 s 6.8
  #  "Fourth tier" - improvements: -0.40 meV to -0.12 meV
  #     hydro 3 p 5
  #     hydro 3 s 3.3
  #     hydro 5 g 15.6
  #     hydro 4 f 17.6
  #     hydro 4 d 14
  # Further basis functions - -0.08 meV and below
  #     hydro 3 s 2.1
  #     hydro 4 d 11.6
  #     hydro 3 p 16
  #     hydro 2 s 17.2
  
  -----------------------------------------------------------------------
  Completed first pass over input file control.in .
  -----------------------------------------------------------------------
  
  
  -----------------------------------------------------------------------
  Parsing geometry.in (first pass over file, find array dimensions only).
  The contents of geometry.in will be repeated verbatim below
  unless switched off by setting 'verbatim_writeout .false.' .
  in the first line of geometry.in .
  -----------------------------------------------------------------------
  
  #=======================================================
  # FHI-aims file: /ada/ptmp/mpsd/alewis/bulk_water/qmdata/data/geoms/444.in
  # Created using the Atomic Simulation Environment (ASE)
  # Tue Feb 21 11:23:37 2023
  #=======================================================
  lattice_vector 9.9931500000000000 0.0000000000000000 0.0000000000000000
  lattice_vector 0.0000000000000000 9.9931500000000000 0.0000000000000000
  lattice_vector 0.0000000000000000 0.0000000000000000 9.9931500000000000
  atom 9.5611999999999995 20.3125999999999998 -13.7881000000000000 O
  atom 9.0977999999999994 19.5098999999999982 -13.5216999999999992 H
  atom 9.7802600000000002 21.0050999999999988 -13.1417999999999999 H
  atom 18.2225999999999999 18.2282000000000011 7.1760200000000003 O
  atom 18.9283999999999999 18.5032999999999994 7.9241900000000003 H
  atom 18.6707999999999998 17.7447000000000017 6.5907600000000004 H
  atom -13.9404000000000003 -13.8414999999999999 14.0376999999999992 O
  atom -14.0122000000000000 -12.9295000000000009 14.1201000000000008 H
  atom -13.8793000000000006 -13.8362999999999996 13.0343000000000000 H
  atom 10.1403999999999996 12.3468000000000000 -11.7711000000000006 O
  atom 10.1478000000000002 12.7268000000000008 -11.0676000000000005 H
  atom 10.0172000000000008 12.9460999999999995 -12.5360999999999994 H
  atom 0.0125970000000000 -7.6123099999999999 21.1920000000000002 O
  atom 0.8058650000000001 -8.0808999999999997 21.0851000000000006 H
  atom 0.5070450000000000 -6.7831000000000001 21.1914000000000016 H
  atom 4.1334999999999997 -0.1387740000000000 10.9234000000000009 O
  atom 5.1109499999999999 0.2890060000000000 11.0115999999999996 H
  atom 4.2615800000000004 -1.1391700000000000 10.7407000000000004 H
  atom 9.4530300000000000 16.6694999999999993 2.5236800000000001 O
  atom 9.1413799999999998 16.4607999999999990 3.5615299999999999 H
  atom 9.8437900000000003 17.5980999999999987 2.3809100000000001 H
  atom -4.6862399999999997 -16.2076999999999991 -9.0012100000000004 O
  atom -4.0847899999999999 -15.5253999999999994 -8.8929299999999998 H
  atom -4.8294199999999998 -16.4423999999999992 -9.8879699999999993 H
  atom 1.9272400000000001 -29.3129999999999988 9.9469499999999993 O
  atom 2.2445200000000001 -28.8847999999999985 9.1111699999999995 H
  atom 2.9898600000000002 -29.5018999999999991 10.2431999999999999 H
  atom 15.2091999999999992 -26.3072000000000017 13.9560999999999993 O
  atom 15.1038999999999994 -26.0076000000000001 13.0593000000000004 H
  atom 15.7291000000000007 -25.4945999999999984 14.0549999999999997 H
  atom 2.8018200000000002 3.0654100000000000 -24.7220000000000013 O
  atom 3.8186499999999999 3.1781600000000001 -24.8534000000000006 H
  atom 3.0608100000000000 2.0577500000000000 -25.0652000000000008 H
  atom 15.1791000000000000 3.0357400000000001 8.3160299999999996 O
  atom 15.8673000000000002 2.5200000000000000 7.9307400000000001 H
  atom 14.5206000000000000 2.5222300000000000 8.0648099999999996 H
  atom 19.9238000000000000 2.8574099999999998 3.8254600000000001 O
  atom 19.7763999999999989 2.4965299999999999 2.8700899999999998 H
  atom 20.7623999999999995 3.2035700000000000 3.7727300000000001 H
  atom -19.6348999999999982 -31.4003000000000014 -1.0640900000000000 O
  atom -19.0959000000000003 -30.6073999999999984 -0.6808070000000001 H
  atom -19.0793999999999997 -32.1253999999999991 -1.4282100000000000 H
  atom 51.5848000000000013 24.6231000000000009 -9.3887999999999998 O
  atom 51.3314000000000021 25.0890999999999984 -8.6817399999999996 H
  atom 52.4393999999999991 24.3791000000000011 -9.0298999999999996 H
  atom -12.8946000000000005 12.1003000000000007 16.3831999999999987 O
  atom -12.8934999999999995 12.5191999999999997 15.4217999999999993 H
  atom -12.3406000000000002 11.4072999999999993 16.1728999999999985 H
  atom -42.4521999999999977 0.2530630000000000 -6.6148100000000003 O
  atom -42.8532000000000011 0.6970100000000000 -7.4402499999999998 H
  atom -41.8552000000000035 -0.2316590000000000 -6.8603500000000004 H
  atom -19.4363999999999990 9.4251000000000005 33.6760000000000019 O
  atom -19.8370999999999995 10.1950000000000003 34.3066000000000031 H
  atom -19.0320999999999998 8.6159700000000008 34.2034000000000020 H
  atom -4.8935800000000000 -0.7820140000000000 -15.3021999999999991 O
  atom -3.8747699999999998 -0.4057810000000000 -15.4492999999999991 H
  atom -5.7112200000000000 -0.2695830000000000 -15.8986000000000001 H
  atom 13.0391999999999992 1.4768900000000000 -2.3220999999999998 O
  atom 13.0212000000000003 0.4559680000000000 -2.6509299999999998 H
  atom 12.6564999999999994 1.8698900000000001 -3.2052900000000002 H
  atom -8.1939700000000002 6.2774000000000001 -11.6219000000000001 O
  atom -8.5524500000000003 5.7187799999999998 -10.9608000000000008 H
  atom -7.4359599999999997 5.8310000000000004 -11.7860999999999994 H
  atom 3.0288900000000001 20.5366000000000000 -16.3994000000000000 O
  atom 3.3227300000000000 20.3296999999999990 -17.2545999999999999 H
  atom 2.1315900000000001 20.0415999999999990 -16.5302000000000007 H
  atom 3.8158699999999999 16.9864999999999995 10.2447999999999997 O
  atom 3.0296300000000000 16.9293000000000013 9.4782899999999994 H
  atom 3.2683399999999998 16.8460000000000001 11.0745000000000005 H
  atom 1.9209300000000000 17.2956000000000003 35.3930000000000007 O
  atom 2.6326000000000001 17.8836000000000013 35.9386000000000010 H
  atom 1.6860200000000001 16.8841000000000001 36.2552999999999983 H
  atom 6.6771399999999996 1.0724199999999999 11.1889000000000003 O
  atom 6.4289300000000003 2.0659399999999999 11.1913000000000000 H
  atom 7.4179399999999998 0.9645270000000000 10.6646999999999998 H
  atom 16.9653999999999989 5.9719600000000002 1.3297099999999999 O
  atom 17.0506999999999991 6.0023299999999997 0.4031850000000000 H
  atom 17.8078000000000003 5.9485900000000003 1.7495300000000000 H
  atom 7.0599400000000001 16.3268999999999984 -1.1878899999999999 O
  atom 6.1016199999999996 16.4635999999999996 -1.3586000000000000 H
  atom 7.3803700000000001 17.0927000000000007 -1.7973699999999999 H
  atom 14.5779999999999994 35.6099000000000032 17.6381000000000014 O
  atom 14.7439999999999998 34.9230000000000018 18.1370000000000005 H
  atom 14.8153000000000006 35.4519000000000020 16.6488000000000014 H
  atom 3.6580699999999999 8.7978000000000005 16.9161999999999999 O
  atom 4.2769700000000004 8.9932200000000009 16.1576999999999984 H
  atom 3.9142000000000001 8.1162799999999997 17.4325000000000010 H
  atom 13.0207999999999995 16.4708000000000006 2.9669800000000000 O
  atom 13.7698999999999998 15.9772999999999996 3.2905099999999998 H
  atom 12.4618000000000002 16.4690000000000012 3.8641899999999998 H
  atom -10.9105000000000008 4.0228999999999999 26.2480000000000011 O
  atom -10.5326000000000004 3.4967400000000000 25.3773000000000017 H
  atom -11.7464999999999993 3.6044600000000000 26.6024999999999991 H
  atom -11.4338999999999995 -3.4410699999999999 5.2423999999999999 O
  atom -12.0420999999999996 -3.6511300000000002 4.6357400000000002 H
  atom -11.2021999999999995 -4.3086900000000004 5.7557999999999998 H
  
  -----------------------------------------------------------------------
  Completed first pass over input file geometry.in .
  -----------------------------------------------------------------------
  

  Basic array size parameters:
  | Number of species                 :        2
  | Number of atoms                   :       96
  | Number of lattice vectors         :        3
  | Max. basis fn. angular momentum   :        2
  | Max. atomic/ionic basis occupied n:        2
  | Max. number of basis fn. types    :        2
  | Max. radial fns per species/type  :        3
  | Max. logarithmic grid size        :     1301
  | Max. radial integration grid size :       36
  | Max. angular integration grid size:      302
  | Max. angular grid division number :        8
  | Radial grid for Hartree potential :     1301
  | Number of spin channels           :        1

------------------------------------------------------------
          Reading file control.in.
------------------------------------------------------------
  XC: Using Perdew-Wang parametrisation of Ceperley-Alder LDA.
  Spin treatment: No spin polarisation.
  Non-relativistic treatment of kinetic energy.
  Charge =   0.000000E+00: Neutral system requested explicitly.
  DFPT calculation will begin after the DFT/HF calculation.
  Convergence accuracy of self-consistent charge density:  0.1000E-05
  Found k-point grid:         1         1         1
  Threshold value for wave function integration:  0.1000E-07
 
  Reading configuration options for species H                   .
  | Found nuclear charge :   1.0000
  | Found atomic mass :    1.00794000000000      amu
  | Found l_max for Hartree potential  :   4
  | Found cutoff potl. onset [A], width [A], scale factor :    3.50000    1.50000    1.00000
  | Threshold for basis-dependent cutoff potential is   0.100000E-03
  | Found data for basic radial integration grid :    24 points, outermost radius =    5.000 A
  | Found multiplier for basic radial grid :   1
  | Found angular grid specification: user-specified.
  | Specified grid contains     5 separate shells.
  | Check grid settings after all constraints further below.
  | Found free-atom valence shell :  1 s   1.000
  | No ionic wave fns used. Skipping ion_occ.
  | Found hydrogenic basis function :  2 s   2.100
  | Found hydrogenic basis function :  2 p   3.500
  Species H                   : Missing cutoff potential type.
  Defaulting to exp(1/x)/(1-x)^2 type cutoff potential.
  Species H : No 'logarithmic' tag. Using default grid for free atom:
  | Default logarithmic grid data [bohr] : 0.1000E-03 0.1000E+03 0.1012E+01
  Species H : On-site basis accuracy parameter (for Gram-Schmidt orthonormalisation) not specified.
  Using default value basis_acc =  0.1000000E-03.
  Species H                   : Using default innermost maximum threshold i_radial=  2 for radial functions.
  Species H                   : Default cutoff onset for free atom density etc. : 0.35000000E+01 AA.
  Species H                   : Basic radial grid will be enhanced according to radial_multiplier =   1, to contain    24 grid points.
 
  Reading configuration options for species O                   .
  | Found nuclear charge :   8.0000
  | Found atomic mass :    15.9994000000000      amu
  | Found l_max for Hartree potential  :   4
  | Found cutoff potl. onset [A], width [A], scale factor :    3.50000    1.50000    1.00000
  | Threshold for basis-dependent cutoff potential is   0.100000E-03
  | Found data for basic radial integration grid :    36 points, outermost radius =    5.000 A
  | Found multiplier for basic radial grid :   1
  | Found angular grid specification: user-specified.
  | Specified grid contains     5 separate shells.
  | Check grid settings after all constraints further below.
  | Found free-atom valence shell :  2 s   2.000
  | Found free-atom valence shell :  2 p   4.000
  | No ionic wave fns used. Skipping ion_occ.
  | No ionic wave fns used. Skipping ion_occ.
  | Found hydrogenic basis function :  2 p   1.800
  | Found hydrogenic basis function :  3 d   7.600
  | Found hydrogenic basis function :  3 s   6.400
  Species O                   : Missing cutoff potential type.
  Defaulting to exp(1/x)/(1-x)^2 type cutoff potential.
  Species O : No 'logarithmic' tag. Using default grid for free atom:
  | Default logarithmic grid data [bohr] : 0.1000E-03 0.1000E+03 0.1012E+01
  Species O : On-site basis accuracy parameter (for Gram-Schmidt orthonormalisation) not specified.
  Using default value basis_acc =  0.1000000E-03.
  Species O                   : Using default innermost maximum threshold i_radial=  2 for radial functions.
  Species O                   : Default cutoff onset for free atom density etc. : 0.35000000E+01 AA.
  Species O                   : Basic radial grid will be enhanced according to radial_multiplier =   1, to contain    36 grid points.
 
  Finished reading input file 'control.in'.
 
------------------------------------------------------------


------------------------------------------------------------
          Reading geometry description geometry.in.
------------------------------------------------------------
  | The smallest distance between any two atoms is         0.79960428 AA.
  | The first atom of this pair is atom number                     10 .
  | The second atom of this pair is atom number                    11 .
  | Wigner-Seitz cell of the first atom image           0     0     0 .
  | (The Wigner-Seitz cell of the second atom is 0 0 0  by definition.)

  Symmetry information by spglib:
  | Precision set to  0.1E-04
  | Number of Operations  : 1
  | Space group           : 1
  | International         : P1
  | Schoenflies           : C1^1
  Input structure read successfully.
  The structure contains       96 atoms,  and a total of        320.000 electrons.

  Input geometry:
  | Unit cell:
  |        9.99315000        0.00000000        0.00000000
  |        0.00000000        9.99315000        0.00000000
  |        0.00000000        0.00000000        9.99315000
  | Atomic structure:
  |       Atom                x [A]            y [A]            z [A]
  |    1: Species O             9.56120000       20.31260000      -13.78810000
  |    2: Species H             9.09780000       19.50990000      -13.52170000
  |    3: Species H             9.78026000       21.00510000      -13.14180000
  |    4: Species O            18.22260000       18.22820000        7.17602000
  |    5: Species H            18.92840000       18.50330000        7.92419000
  |    6: Species H            18.67080000       17.74470000        6.59076000
  |    7: Species O           -13.94040000      -13.84150000       14.03770000
  |    8: Species H           -14.01220000      -12.92950000       14.12010000
  |    9: Species H           -13.87930000      -13.83630000       13.03430000
  |   10: Species O            10.14040000       12.34680000      -11.77110000
  |   11: Species H            10.14780000       12.72680000      -11.06760000
  |   12: Species H            10.01720000       12.94610000      -12.53610000
  |   13: Species O             0.01259700       -7.61231000       21.19200000
  |   14: Species H             0.80586500       -8.08090000       21.08510000
  |   15: Species H             0.50704500       -6.78310000       21.19140000
  |   16: Species O             4.13350000       -0.13877400       10.92340000
  |   17: Species H             5.11095000        0.28900600       11.01160000
  |   18: Species H             4.26158000       -1.13917000       10.74070000
  |   19: Species O             9.45303000       16.66950000        2.52368000
  |   20: Species H             9.14138000       16.46080000        3.56153000
  |   21: Species H             9.84379000       17.59810000        2.38091000
  |   22: Species O            -4.68624000      -16.20770000       -9.00121000
  |   23: Species H            -4.08479000      -15.52540000       -8.89293000
  |   24: Species H            -4.82942000      -16.44240000       -9.88797000
  |   25: Species O             1.92724000      -29.31300000        9.94695000
  |   26: Species H             2.24452000      -28.88480000        9.11117000
  |   27: Species H             2.98986000      -29.50190000       10.24320000
  |   28: Species O            15.20920000      -26.30720000       13.95610000
  |   29: Species H            15.10390000      -26.00760000       13.05930000
  |   30: Species H            15.72910000      -25.49460000       14.05500000
  |   31: Species O             2.80182000        3.06541000      -24.72200000
  |   32: Species H             3.81865000        3.17816000      -24.85340000
  |   33: Species H             3.06081000        2.05775000      -25.06520000
  |   34: Species O            15.17910000        3.03574000        8.31603000
  |   35: Species H            15.86730000        2.52000000        7.93074000
  |   36: Species H            14.52060000        2.52223000        8.06481000
  |   37: Species O            19.92380000        2.85741000        3.82546000
  |   38: Species H            19.77640000        2.49653000        2.87009000
  |   39: Species H            20.76240000        3.20357000        3.77273000
  |   40: Species O           -19.63490000      -31.40030000       -1.06409000
  |   41: Species H           -19.09590000      -30.60740000       -0.68080700
  |   42: Species H           -19.07940000      -32.12540000       -1.42821000
  |   43: Species O            51.58480000       24.62310000       -9.38880000
  |   44: Species H            51.33140000       25.08910000       -8.68174000
  |   45: Species H            52.43940000       24.37910000       -9.02990000
  |   46: Species O           -12.89460000       12.10030000       16.38320000
  |   47: Species H           -12.89350000       12.51920000       15.42180000
  |   48: Species H           -12.34060000       11.40730000       16.17290000
  |   49: Species O           -42.45220000        0.25306300       -6.61481000
  |   50: Species H           -42.85320000        0.69701000       -7.44025000
  |   51: Species H           -41.85520000       -0.23165900       -6.86035000
  |   52: Species O           -19.43640000        9.42510000       33.67600000
  |   53: Species H           -19.83710000       10.19500000       34.30660000
  |   54: Species H           -19.03210000        8.61597000       34.20340000
  |   55: Species O            -4.89358000       -0.78201400      -15.30220000
  |   56: Species H            -3.87477000       -0.40578100      -15.44930000
  |   57: Species H            -5.71122000       -0.26958300      -15.89860000
  |   58: Species O            13.03920000        1.47689000       -2.32210000
  |   59: Species H            13.02120000        0.45596800       -2.65093000
  |   60: Species H            12.65650000        1.86989000       -3.20529000
  |   61: Species O            -8.19397000        6.27740000      -11.62190000
  |   62: Species H            -8.55245000        5.71878000      -10.96080000
  |   63: Species H            -7.43596000        5.83100000      -11.78610000
  |   64: Species O             3.02889000       20.53660000      -16.39940000
  |   65: Species H             3.32273000       20.32970000      -17.25460000
  |   66: Species H             2.13159000       20.04160000      -16.53020000
  |   67: Species O             3.81587000       16.98650000       10.24480000
  |   68: Species H             3.02963000       16.92930000        9.47829000
  |   69: Species H             3.26834000       16.84600000       11.07450000
  |   70: Species O             1.92093000       17.29560000       35.39300000
  |   71: Species H             2.63260000       17.88360000       35.93860000
  |   72: Species H             1.68602000       16.88410000       36.25530000
  |   73: Species O             6.67714000        1.07242000       11.18890000
  |   74: Species H             6.42893000        2.06594000       11.19130000
  |   75: Species H             7.41794000        0.96452700       10.66470000
  |   76: Species O            16.96540000        5.97196000        1.32971000
  |   77: Species H            17.05070000        6.00233000        0.40318500
  |   78: Species H            17.80780000        5.94859000        1.74953000
  |   79: Species O             7.05994000       16.32690000       -1.18789000
  |   80: Species H             6.10162000       16.46360000       -1.35860000
  |   81: Species H             7.38037000       17.09270000       -1.79737000
  |   82: Species O            14.57800000       35.60990000       17.63810000
  |   83: Species H            14.74400000       34.92300000       18.13700000
  |   84: Species H            14.81530000       35.45190000       16.64880000
  |   85: Species O             3.65807000        8.79780000       16.91620000
  |   86: Species H             4.27697000        8.99322000       16.15770000
  |   87: Species H             3.91420000        8.11628000       17.43250000
  |   88: Species O            13.02080000       16.47080000        2.96698000
  |   89: Species H            13.76990000       15.97730000        3.29051000
  |   90: Species H            12.46180000       16.46900000        3.86419000
  |   91: Species O           -10.91050000        4.02290000       26.24800000
  |   92: Species H           -10.53260000        3.49674000       25.37730000
  |   93: Species H           -11.74650000        3.60446000       26.60250000
  |   94: Species O           -11.43390000       -3.44107000        5.24240000
  |   95: Species H           -12.04210000       -3.65113000        4.63574000
  |   96: Species H           -11.20220000       -4.30869000        5.75580000

  Lattice parameters for 3D lattice (in Angstroms) :     9.993150    9.993150    9.993150
  Angle(s) between unit vectors (in degrees)       :    90.000000   90.000000   90.000000


  Quantities derived from the lattice vectors (in Angstrom^-1):
  | Reciprocal lattice vector 1:  0.628749  0.000000  0.000000
  | Reciprocal lattice vector 2:  0.000000  0.628749  0.000000
  | Reciprocal lattice vector 3:  0.000000  0.000000  0.628749
  | Unit cell volume                               :   0.997946E+03  Angstrom^3

  Fractional coordinates:
                         L1                L2                L3
       atom_frac         0.95677539        2.03265237       -1.37975513  O
       atom_frac         0.91040363        1.95232734       -1.35309687  H
       atom_frac         0.97869641        2.10194984       -1.31508083  H
       atom_frac         1.82350910        1.82406949        0.71809389  O
       atom_frac         1.89413748        1.85159834        0.79296218  H
       atom_frac         1.86835983        1.77568635        0.65952778  H
       atom_frac        -1.39499557       -1.38509879        1.40473224  O
       atom_frac        -1.40218049       -1.29383628        1.41297789  H
       atom_frac        -1.38888138       -1.38457844        1.30432346  H
       atom_frac         1.01473509        1.23552634       -1.17791687  O
       atom_frac         1.01547560        1.27355238       -1.10751865  H
       atom_frac         1.00240665        1.29549742       -1.25446931  H
       atom_frac         0.00126056       -0.76175280        2.12065265  O
       atom_frac         0.08064174       -0.80864392        2.10995532  H
       atom_frac         0.05073926       -0.67877496        2.12059261  H
       atom_frac         0.41363334       -0.01388691        1.09308877  O
       atom_frac         0.51144534        0.02892041        1.10191481  H
       atom_frac         0.42645012       -0.11399509        1.07480624  H
       atom_frac         0.94595098        1.66809264        0.25254099  O
       atom_frac         0.91476461        1.64720834        0.35639713  H
       atom_frac         0.98505376        1.76101630        0.23825420  H
       atom_frac        -0.46894523       -1.62188099       -0.90073801  O
       atom_frac        -0.40875900       -1.55360422       -0.88990258  H
       atom_frac        -0.48327304       -1.64536708       -0.98947479  H
       atom_frac         0.19285611       -2.93330932        0.99537683  O
       atom_frac         0.22460586       -2.89045997        0.91174154  H
       atom_frac         0.29919095       -2.95221227        1.02502214  H
       atom_frac         1.52196254       -2.63252328        1.39656665  O
       atom_frac         1.51142533       -2.60254274        1.30682518  H
       atom_frac         1.57398818       -2.55120758        1.40646343  H
       atom_frac         0.28037406        0.30675112       -2.47389462  O
       atom_frac         0.38212676        0.31803385       -2.48704362  H
       atom_frac         0.30629081        0.20591605       -2.50823814  H
       atom_frac         1.51895048        0.30378209        0.83217304  O
       atom_frac         1.58781766        0.25217274        0.79361763  H
       atom_frac         1.45305534        0.25239589        0.80703382  H
       atom_frac         1.99374572        0.28593687        0.38280822  O
       atom_frac         1.97899561        0.24982413        0.28720574  H
       atom_frac         2.07766320        0.32057659        0.37753161  H
       atom_frac        -1.96483591       -3.14218239       -0.10648194  O
       atom_frac        -1.91089897       -3.06283804       -0.06812737  H
       atom_frac        -1.90924783       -3.21474210       -0.14291890  H
       atom_frac         5.16201598        2.46399784       -0.93952357  O
       atom_frac         5.13665861        2.51062978       -0.86876911  H
       atom_frac         5.24753456        2.43958111       -0.90360897  H
       atom_frac        -1.29034389        1.21085944        1.63944302  O
       atom_frac        -1.29023381        1.25277815        1.54323712  H
       atom_frac        -1.23490591        1.14151194        1.61839860  H
       atom_frac        -4.24812997        0.02532365       -0.66193443  O
       atom_frac        -4.28825746        0.06974878       -0.74453501  H
       atom_frac        -4.18838905       -0.02318178       -0.68650526  H
       atom_frac        -1.94497231        0.94315606        3.36990839  O
       atom_frac        -1.98506977        1.02019884        3.43301161  H
       atom_frac        -1.90451459        0.86218760        3.42268454  H
       atom_frac        -0.48969344       -0.07825500       -1.53126892  O
       atom_frac        -0.38774260       -0.04060592       -1.54598900  H
       atom_frac        -0.57151349       -0.02697678       -1.59094980  H
       atom_frac         1.30481380        0.14779024       -0.23236917  O
       atom_frac         1.30301256        0.04562806       -0.26527471  H
       atom_frac         1.26651756        0.18711718       -0.32074871  H
       atom_frac        -0.81995867        0.62817030       -1.16298665  O
       atom_frac        -0.85583124        0.57227000       -1.09683133  H
       atom_frac        -0.74410571        0.58349970       -1.17941790  H
       atom_frac         0.30309662        2.05506772       -1.64106413  O
       atom_frac         0.33250076        2.03436354       -1.72664275  H
       atom_frac         0.21330511        2.00553379       -1.65415309  H
       atom_frac         0.38184857        1.69981437        1.02518225  O
       atom_frac         0.30317067        1.69409045        0.94847871  H
       atom_frac         0.32705803        1.68575474        1.10820912  H
       atom_frac         0.19222467        1.73074556        3.54172608  O
       atom_frac         0.26344046        1.78958587        3.59632348  H
       atom_frac         0.16871757        1.68956735        3.62801519  H
       atom_frac         0.66817170        0.10731551        1.11965697  O
       atom_frac         0.64333368        0.20673561        1.11989713  H
       atom_frac         0.74230248        0.09651882        1.06720103  H
       atom_frac         1.69770293        0.59760536        0.13306215  O
       atom_frac         1.70623877        0.60064444        0.04034614  H
       atom_frac         1.78200067        0.59526676        0.17507292  H
       atom_frac         0.70647794        1.63380916       -0.11887043  O
       atom_frac         0.61058025        1.64748853       -0.13595313  H
       atom_frac         0.73854290        1.71044165       -0.17986020  H
       atom_frac         1.45879928        3.56343095        1.76501904  O
       atom_frac         1.47541066        3.49469387        1.81494324  H
       atom_frac         1.48254554        3.54762012        1.66602122  H
       atom_frac         0.36605775        0.88038306        1.69277955  O
       atom_frac         0.42799017        0.89993846        1.61687756  H
       atom_frac         0.39168831        0.81218435        1.74444494  H
       atom_frac         1.30297254        1.64820902        0.29690138  O
       atom_frac         1.37793388        1.59882520        0.32927655  H
       atom_frac         1.24703422        1.64802890        0.38668388  H
       atom_frac        -1.09179788        0.40256576        2.62659922  O
       atom_frac        -1.05398198        0.34991369        2.53946954  H
       atom_frac        -1.17545519        0.36069307        2.66207352  H
       atom_frac        -1.14417376       -0.34434287        0.52459935  O
       atom_frac        -1.20503545       -0.36536327        0.46389177  H
       atom_frac        -1.12098788       -0.43116435        0.57597454  H

 
  Finished reading input file 'geometry.in'.
 

 
  Consistency checks for stacksize environment parameter are next.
 
  | Maximum stacksize for task 0: unlimited
  | Maximum stacksize for task 1: unlimited
  | Maximum stacksize for task 2: unlimited
  | Maximum stacksize for task 3: unlimited
  | Maximum stacksize for task 4: unlimited
  | Maximum stacksize for task 5: unlimited
  | Maximum stacksize for task 6: unlimited
  | Maximum stacksize for task 7: unlimited
  | Maximum stacksize for task 8: unlimited
  | Maximum stacksize for task 9: unlimited
  | Maximum stacksize for task 10: unlimited
  | Maximum stacksize for task 11: unlimited
  | Maximum stacksize for task 12: unlimited
  | Maximum stacksize for task 13: unlimited
  | Maximum stacksize for task 14: unlimited
  | Maximum stacksize for task 15: unlimited
  | Maximum stacksize for task 16: unlimited
  | Maximum stacksize for task 17: unlimited
  | Current stacksize for task 0: unlimited
  | Current stacksize for task 1: unlimited
  | Current stacksize for task 2: unlimited
  | Current stacksize for task 3: unlimited
  | Current stacksize for task 4: unlimited
  | Current stacksize for task 5: unlimited
  | Current stacksize for task 6: unlimited
  | Current stacksize for task 7: unlimited
  | Current stacksize for task 8: unlimited
  | Current stacksize for task 9: unlimited
  | Current stacksize for task 10: unlimited
  | Current stacksize for task 11: unlimited
  | Current stacksize for task 12: unlimited
  | Current stacksize for task 13: unlimited
  | Current stacksize for task 14: unlimited
  | Current stacksize for task 15: unlimited
  | Current stacksize for task 16: unlimited
  | Current stacksize for task 17: unlimited
 
  Consistency checks for the contents of control.in are next.
 
  MPI_IN_PLACE appears to work with this MPI implementation.
  | Keeping use_mpi_in_place .true. (see manual).
  Explicit treatment of the Coulomb operator is needed, but the RI method is not specified.
  Coulomb operator: Defaulting to 'LVL fast' resolution of identity - RI_type = LVL_fast
  Species H: Using default value for prodbas_acc =   1.000000E-06.
  Species H: Using default value max_l_prodbas =     6.
  Species O: Using default value for prodbas_acc =   1.000000E-06.
  Species O: Using default value max_l_prodbas =     6.
  Target number of points in a grid batch is not set.  Since GPU acceleration is enabled, defaulting to  200
  Method for grid partitioning is not set. Defaulting to parallel hash+maxmin partitioning.
  Batch size limit is not set. Defaulting to    200
  By default, will store active basis functions for each batch.
  If in need of memory, prune_basis_once .false. can be used to disable this option.
  communication_type for Hartree potential was not specified.
  Defaulting to calc_hartree .
  Defaulting to Pulay charge density mixer.
  Pulay mixer: Number of relevant iterations not set.
  Defaulting to    8 iterations.
  Pulay mixer: Number of initial linear mixing iterations not set.
  Defaulting to    0 iterations.
  Work space size for distributed Hartree potential not set.
  Defaulting to   0.200000E+03 MB.
  Mixing parameter for charge density mixing has not been set.
  Using default: charge_mix_param =     0.0500.
  The mixing parameter will be adjusted in iteration number     2 of the first full s.c.f. cycle only.
  Algorithm-dependent basis array size parameters:
  | n_max_pulay                         :        8
  Maximum number of self-consistency iterations not provided.
  Presetting  1000 iterations.
  Presetting      1001 iterations before the initial mixing cycle
  is restarted anyway using the sc_init_iter criterion / keyword.
  Presetting a factor      1.000 between actual scf density residual
  and density convergence criterion sc_accuracy_rho below which sc_init_iter
  takes no effect.
  Calculation of forces was not defined in control.in. No forces will be calculated.
  Geometry relaxation not requested: no relaxation will be performed.
  No accuracy limit for integral partition fn. given. Defaulting to  0.1000E-14.
  No occupation type (smearing scheme) given. Defaulting to Gaussian broadening, width =  0.1000E-01 eV.
  The width will be adjusted in iteration number     2 of the first full s.c.f. cycle only.
  S.C.F. convergence parameters will be adjusted in iteration number     2 of the first full s.c.f. cycle only.
  No accuracy for occupation numbers given. Defaulting to  0.1000E-12.
  No threshold value for occupation numbers given. Defaulting to  0.0000E+00.
  No accuracy for fermi level given. Defaulting to  0.1000E-19.
  Maximum # of iterations to find E_F not set. Defaulting to  200.
  Preferred method for the eigenvalue solver ('KS_method') not specified in 'control.in'.
  Calling BLACS routine to test compilation state
  Since ScaLAPACK support is enabled, defaulting to ELPA (via ELSI).
  Will not use alltoall communication since running on < 1024 CPUs.
  Threshold for basis singularities not set.
  Default threshold for basis singularities:  0.1000E-04
  partition_type (choice of integration weights) for integrals was not specified.
  | Using a version of the partition function of Stratmann and coworkers ('stratmann_sparse').
  | At each grid point, the set of atoms used to build the partition table is smoothly restricted to
  | only those atoms whose free-atom density would be non-zero at that grid point.
  Partitioning for Hartree potential was not defined. Using partition_type for integrals.
  | Adjusted default value of keyword multip_moments_threshold to:       0.10000000E-11
  | This value may affect high angular momentum components of the Hartree potential in periodic systems.
  Angular momentum expansion for Kerker preconditioner not set explicitly.
  | Using default value of   0
  No explicit requirement for turning off preconditioner.
  | By default, it will be turned off when the charge convergence reaches
  | sc_accuracy_rho  =   0.100000E-05
  No special mixing parameter while Kerker preconditioner is on.
  Using default: charge_mix_param =     0.0500.
  Threshold for auxiliary basis singularities not set.
  Default threshold for auxiliary basis singularities:  0.1000E-04
  No q(lm)/r^(l+1) cutoff set for long-range Hartree potential.
  | Using default value of  0.100000E-09 .
  | Verify using the multipole_threshold keyword.
  Defaulting to new monopole extrapolation.
  Density update method: automatic selection selected.
  Using density matrix based charge density update.
  Using density matrix based charge density update.
  Using packed matrix style: index .
  Defaulting to use time-reversal symmetry for k-point grid.
  Charge integration errors on the 3D integration grid will be compensated
  by explicit normalization and distribution of residual charges.
  Use the "compensate_multipole_errors" flag to change this behaviour.
  Default to 1D ("use_logsbt") integrations for auxiliary 2-center integrals.
  Default onset of logarithmic r-grid for SBT is -38.000000000000
  Default onset of logarithmic k-grid for SBT is -25.000000000000
  Default range of logarithmic r- and k-grid for SBT is  45.000000000000
  Default number of logarithmic r- and k-grid for SBT is   4096
  Default of use_2d_corr is to use the efficient 2D distribution where possible
 
  Consistency checks for the contents of geometry.in are next.
 

  Range separation radius for Ewald summation (hartree_convergence_parameter):      3.02354158 bohr.
  Number of empty states per atom not set in control.in .
  | Since you are using a method that relies on the unoccupied spectrum
  | (MP2,GW,RPA et al.), will use the full Hamiltonian size (see below)
  | as the max. possible number of states (occupied plus empty).

  Structure-dependent array size parameters: 
  | Maximum number of distinct radial functions  :        9
  | Maximum number of basis functions            :      768
  | Number of Kohn-Sham states (occupied + empty):      768
------------------------------------------------------------

  Performing system and environment tests:
  | Environment variable OMP_NUM_THREADS correctly set to 1.
  | Checking for ScaLAPACK...
  | Testing pdtran()...
  | All pdtran() tests passed.
CUDA runtime version: 11060
CUDA driver version: 11060
  Initializing GPUs...

  Number of GPUs available to MPI task         0 :   1
  Number of GPUs available to MPI task         1 :   1
  Number of GPUs available to MPI task         2 :   1
  Number of GPUs available to MPI task         3 :   1
  Number of GPUs available to MPI task         4 :   1
  Number of GPUs available to MPI task         5 :   1
  Number of GPUs available to MPI task         6 :   1
  Number of GPUs available to MPI task         7 :   1
  Number of GPUs available to MPI task         8 :   1
  Number of GPUs available to MPI task         9 :   1
  Number of GPUs available to MPI task        10 :   1
  Number of GPUs available to MPI task        11 :   1
  Number of GPUs available to MPI task        12 :   1
  Number of GPUs available to MPI task        13 :   1
  Number of GPUs available to MPI task        14 :   1
  Number of GPUs available to MPI task        15 :   1
  Number of GPUs available to MPI task        16 :   1
  Number of GPUs available to MPI task        17 :   1

  | MPI task         0, GPU activated = T, Device Name = NVIDIA A100-SXM4-80GB
  | MPI task         1, GPU activated = T, Device Name = NVIDIA A100-SXM4-80GB
  | MPI task         2, GPU activated = T, Device Name = NVIDIA A100-SXM4-80GB
  | MPI task         3, GPU activated = T, Device Name = NVIDIA A100-SXM4-80GB
  | MPI task         4, GPU activated = T, Device Name = NVIDIA A100-SXM4-80GB
  | MPI task         5, GPU activated = T, Device Name = NVIDIA A100-SXM4-80GB
  | MPI task         6, GPU activated = T, Device Name = NVIDIA A100-SXM4-80GB
  | MPI task         7, GPU activated = T, Device Name = NVIDIA A100-SXM4-80GB
  | MPI task         8, GPU activated = T, Device Name = NVIDIA A100-SXM4-80GB
  | MPI task         9, GPU activated = T, Device Name = NVIDIA A100-SXM4-80GB
  | MPI task        10, GPU activated = T, Device Name = NVIDIA A100-SXM4-80GB
  | MPI task        11, GPU activated = T, Device Name = NVIDIA A100-SXM4-80GB
  | MPI task        12, GPU activated = T, Device Name = NVIDIA A100-SXM4-80GB
  | MPI task        13, GPU activated = T, Device Name = NVIDIA A100-SXM4-80GB
  | MPI task        14, GPU activated = T, Device Name = NVIDIA A100-SXM4-80GB
  | MPI task        15, GPU activated = T, Device Name = NVIDIA A100-SXM4-80GB
  | MPI task        16, GPU activated = T, Device Name = NVIDIA A100-SXM4-80GB
  | MPI task        17, GPU activated = T, Device Name = NVIDIA A100-SXM4-80GB

------------------------------------------------------------
          Preparing all fixed parts of the calculation.
------------------------------------------------------------
  Determining machine precision:
    2.225073858507201E-308
  Setting up grids for atomic and cluster calculations.

  Creating wave function, potential, and density for free atoms.
  Runtime choices for atomic solver:
  | atomic solver xc        : PW-LDA
  | compute density gradient: 0
  | compute kinetic density : F

  Species: H

  List of occupied orbitals and eigenvalues:
    n    l              occ      energy [Ha]    energy [eV]
    1    0           1.0000        -0.232375        -6.3233


  Species: O

  List of occupied orbitals and eigenvalues:
    n    l              occ      energy [Ha]    energy [eV]
    1    0           2.0000       -18.757744      -510.4242
    2    0           2.0000        -0.870917       -23.6989
    2    1           4.0000        -0.337950        -9.1961


  Adding cutoff potential to free-atom effective potential.
  Creating fixed part of basis set: Ionic, confined, hydrogenic.
 
  H                    hydrogenic:
 
  List of hydrogenic basis orbitals: 
    n    l      effective z      eigenvalue [eV]  inner max. [A]     outer max. [A]     outer radius [A]   
    2    0         2.100000       -14.9728           0.193243           1.317208           4.696947
    2    1         3.500000       -41.6669           0.602369           0.602369           3.862494
 
 
  O                    hydrogenic:
 
  List of hydrogenic basis orbitals: 
    n    l      effective z      eigenvalue [eV]  inner max. [A]     outer max. [A]     outer radius [A]   
    2    1         1.800000       -10.9749           1.164242           1.164242           4.691341
    3    2         7.600000       -87.3180           0.624125           0.624125           3.413946
    3    0         6.400000       -61.9207           0.061167           1.081902           4.151495
 
  Creating atomic-like basis functions for current effective potential.

  Species H                   :

  List of atomic basis orbitals and eigenvalues:
    n    l      energy [Ha]    energy [eV]    outer radius [A]
    1    0        -0.232375        -6.3233       4.696947


  Species O                   :

  List of atomic basis orbitals and eigenvalues:
    n    l      energy [Ha]    energy [eV]    outer radius [A]
    1    0       -18.757744      -510.4242       1.830144
    2    0        -0.870917       -23.6989       4.578029
    2    1        -0.337950        -9.1961       4.634338

  Assembling full basis from fixed parts.
  | Species H :   atomic orbital   1 s accepted.
  | Species H :    hydro orbital   2 s accepted.
  | Species H :    hydro orbital   2 p accepted.
  | Species O :   atomic orbital   1 s accepted.
  | Species O :    hydro orbital   3 s accepted.
  | Species O :   atomic orbital   2 s accepted.
  | Species O :   atomic orbital   2 p accepted.
  | Species O :    hydro orbital   2 p accepted.
  | Species O :    hydro orbital   3 d accepted.
 
  Basis size parameters after reduction:
  | Total number of radial functions:        9
  | Total number of basis functions :      768
 
  Per-task memory consumption for arrays in subroutine allocate_ext:
  |           2.268304MB.
  Testing on-site integration grid accuracy.
  |  Species  Function  <phi|h_atom|phi> (log., in eV)  <phi|h_atom|phi> (rad., in eV)
           1        1                 -6.3245358373                 -6.3232436907
           1        2                 14.1326137532                 14.1384481100
           1        3                 25.3627025200                 25.3628451197
           2        4               -510.4241781764               -510.4240769407
           2        5                 14.9072942213                 14.9072945271
           2        6                -21.2004736474                -21.2005650551
           2        7                 -9.1962086505                 -9.1963509834
           2        8                  8.1896755006                  8.1702200081
           2        9                 45.7920584937                 45.7920228520

  Preparing densities etc. for the partition functions (integrals / Hartree potential).

  Preparations completed.
  max(cpu_time)          :      0.070 s.
  Wall clock time (cpu1) :      0.066 s.
------------------------------------------------------------

  Initializing index lists of integration centers etc. from given atomic structure:
  Mapping all atomic coordinates to central unit cell.

  Initializing the k-points
  Using symmetry for reducing the k-points
  | k-points reduced from:        1 to        1
  | Number of k-points                             :         1
  | Consuming          0 KiB for k_phase_exx.
  The eigenvectors in the calculations are REAL.
  | Number of basis functions in the Hamiltonian integrals :      4385
  | Number of basis functions in a single unit cell        :       768
  | Number of centers in hartree potential         :      2560
  | Number of centers in hartree multipole         :      1842
  | Number of centers in electron density summation:      1424
  | Number of centers in basis integrals           :      1508
  | Number of centers in integrals                 :       689
  | Number of centers in hamiltonian               :      1425
  | Consuming          0 KiB for k_phase.
  | Number of super-cells (origin) [n_cells]                     :         125
  | Number of super-cells (after PM_index) [n_cells]             :          28
  | Number of super-cells in hamiltonian [n_cells_in_hamiltonian]:          28
  | Size of matrix packed + index [n_hamiltonian_matrix_size] :      760338
  | Size of matrix packed + index (no_symmetry):     1519907

------------------------------------------------------------
          Begin self-consistency loop: Initialization.

          Date     :  20230221, Time     :  153629.409
------------------------------------------------------------
  | Estimated reciprocal-space cutoff momentum G_max:         3.12466476 bohr^-1 .
  | Reciprocal lattice points for long-range Hartree potential:    3430
  Using simple linear distribution as default method for k-point parallelism.
  * Using 18 tasks for Scalapack Eigenvalue solver.
  Detailed listing of tasks and assigned k-points:
   Task     0 k-point     1 on adag040
   Task     1 k-point     1 on adag040
   Task     2 k-point     1 on adag040
   Task     3 k-point     1 on adag040
   Task     4 k-point     1 on adag040
   Task     5 k-point     1 on adag040
   Task     6 k-point     1 on adag040
   Task     7 k-point     1 on adag040
   Task     8 k-point     1 on adag040
   Task     9 k-point     1 on adag040
   Task    10 k-point     1 on adag040
   Task    11 k-point     1 on adag040
   Task    12 k-point     1 on adag040
   Task    13 k-point     1 on adag040
   Task    14 k-point     1 on adag040
   Task    15 k-point     1 on adag040
   Task    16 k-point     1 on adag040
   Task    17 k-point     1 on adag040
  K-point:     1 Tasks:    18 split into      6 X      3 BLACS grid
  Calculating block size based on n_basis =          768  max_nprow =            6  max_npcol =            3
  ScaLAPACK block size set to:           16
  Allocating        0.250 MB for ovlp
  Allocating        0.250 MB for ham
  Allocating        0.250 MB for eigenvec
  Required Scalapack workspace - INTEGER:            1  REAL:             1
  Partitioning the integration grid into batches with parallel hashing+maxmin method.
  | Number of batches:     3840
  | Maximal batch size:     197
  | Minimal batch size:     100
  | Average batch size:     132.700
  | Standard deviation of batch sizes:      28.622

  Integration load balanced across    18 MPI tasks.
  Work distribution over tasks is as follows:
  Task     0 has      28265 integration points.
  Task     1 has      28311 integration points.
  Task     2 has      28236 integration points.
  Task     3 has      28325 integration points.
  Task     4 has      28246 integration points.
  Task     5 has      28385 integration points.
  Task     6 has      28357 integration points.
  Task     7 has      28278 integration points.
  Task     8 has      28264 integration points.
  Task     9 has      28253 integration points.
  Task    10 has      28409 integration points.
  Task    11 has      28255 integration points.
  Task    12 has      28249 integration points.
  Task    13 has      28420 integration points.
  Task    14 has      28277 integration points.
  Task    15 has      28307 integration points.
  Task    16 has      28322 integration points.
  Task    17 has      28409 integration points.
  Initializing partition tables, free-atom densities, potentials, etc. across the integration grid (initialize_grid_storage).
  | initialize_grid_storage: Actual outermost partition radius vs. multipole_radius_free
  | (-- VB: in principle, multipole_radius_free should be larger, hence this output)
  | Species        1: Confinement radius =              4.999999999999999 AA, multipole_radius_free =              5.054417573612229 AA.
  | Species        1: outer_partition_radius set to              5.054417573612229 AA .
  | Species        2: Confinement radius =              4.999999999999999 AA, multipole_radius_free =              5.048384829883283 AA.
  | Species        2: outer_partition_radius set to              5.048384829883283 AA .
  | The sparse table of interatomic distances needs       4815.97 kbyte instead of     18192.51 kbyte of memory.
  | Net number of integration points:   509568
  | of which are non-zero points    :   407932
  | Numerical average free-atom electrostatic potential    :     -5.22206909 eV
  Renormalizing the initial density to the exact electron count on the 3D integration grid.
  | Initial density: Formal number of electrons (from input files) :     320.0000000000
  | Integrated number of electrons on 3D grid     :     320.0015540430
  | Charge integration error                      :       0.0015540430
  | Normalization factor for density and gradient :       0.9999951436
  Renormalizing the free-atom superposition density to the exact electron count on the 3D integration grid.
  | Formal number of electrons (from input files) :     320.0000000000
  | Integrated number of electrons on 3D grid     :     320.0015540430
  | Charge integration error                      :       0.0015540430
  | Normalization factor for density and gradient :       0.9999951436
  Obtaining max. number of non-zero basis functions in each batch (get_n_compute_maxes).
  | Maximal number of non-zero basis functions:      421 in task     0
  | Maximal number of non-zero basis functions:      398 in task     1
  | Maximal number of non-zero basis functions:      411 in task     2
  | Maximal number of non-zero basis functions:      407 in task     3
  | Maximal number of non-zero basis functions:      410 in task     4
  | Maximal number of non-zero basis functions:      405 in task     5
  | Maximal number of non-zero basis functions:      417 in task     6
  | Maximal number of non-zero basis functions:      420 in task     7
  | Maximal number of non-zero basis functions:      409 in task     8
  | Maximal number of non-zero basis functions:      421 in task     9
  | Maximal number of non-zero basis functions:      405 in task    10
  | Maximal number of non-zero basis functions:      415 in task    11
  | Maximal number of non-zero basis functions:      398 in task    12
  | Maximal number of non-zero basis functions:      432 in task    13
  | Maximal number of non-zero basis functions:      415 in task    14
  | Maximal number of non-zero basis functions:      402 in task    15
  | Maximal number of non-zero basis functions:      411 in task    16
  | Maximal number of non-zero basis functions:      405 in task    17
  Integrating Hamiltonian matrix: batch-based integration.
  GPU acceleration will be used when integrating the Hamiltonian matrix.
  Reporting GPU memory usage by myid 0.  Note that it is likely not the only MPI task binding to its GPU!
  Allocating        1.418 MB on GPU for hamiltonian_shell
  Allocating        0.663 MB on GPU for wave
  Allocating        0.002 MB on GPU for partition
  Allocating        0.663 MB on GPU for h_times_psi
  Time summed over all CPUs for integration: real work       11.458 s, elapsed       11.760 s
  Deallocating memory used on GPU for Hamiltonian integration.
  Integrating overlap matrix.
  Time summed over all CPUs for integration: real work        9.642 s, elapsed        9.874 s
  Deallocating overlap matrix.

  Updating Kohn-Sham eigenvalues and eigenvectors using ELSI and the ELPA eigensolver.
  Singularity check in k-point 1 (analysis for other k-points may follow below):
  Overlap matrix is not singular
  | Lowest and highest eigenvalues :  0.1894E-02,  0.7058E+01
  Finished singularity check of overlap matrix
  | Time :     0.163 s
  Starting ELPA eigensolver (GPU)
  Finished Cholesky decomposition
  | Time :     0.007 s
  Finished transformation to standard eigenproblem
  | Time :     0.027 s
  Finished solving standard eigenproblem
  | Time :     0.189 s
  Finished back-transformation of eigenvectors
  | Time :     0.018 s

  Obtaining occupation numbers and electronic chemical potential using ELSI.
  | Note that, for insulating systems, the printed 'chemical potential' value is not uniquely defined.
  | It can be anywhere in the energy gap, as long as it correctly separates occupied and unoccupied states.
  | In systems with a gap, the physically relevant chemical potential is the VBM or HOMO.

  | Chemical potential (Fermi level):    -6.06954362 eV
  Writing Kohn-Sham eigenvalues.

  State    Occupation    Eigenvalue [Ha]    Eigenvalue [eV]
      1       2.00000         -18.919903         -514.83676
      2       2.00000         -18.909565         -514.55544
      3       2.00000         -18.904421         -514.41547
      4       2.00000         -18.901649         -514.34004
      5       2.00000         -18.897304         -514.22181
      6       2.00000         -18.893628         -514.12179
      7       2.00000         -18.890180         -514.02794
      8       2.00000         -18.888921         -513.99368
      9       2.00000         -18.888124         -513.97202
     10       2.00000         -18.885224         -513.89310
     11       2.00000         -18.885094         -513.88956
     12       2.00000         -18.884969         -513.88616
     13       2.00000         -18.882905         -513.82999
     14       2.00000         -18.881009         -513.77839
     15       2.00000         -18.876157         -513.64636
     16       2.00000         -18.876125         -513.64551
     17       2.00000         -18.875437         -513.62677
     18       2.00000         -18.872986         -513.56008
     19       2.00000         -18.872611         -513.54987
     20       2.00000         -18.861585         -513.24984
     21       2.00000         -18.859727         -513.19929
     22       2.00000         -18.859279         -513.18710
     23       2.00000         -18.853339         -513.02545
     24       2.00000         -18.853059         -513.01784
     25       2.00000         -18.850637         -512.95192
     26       2.00000         -18.846757         -512.84635
     27       2.00000         -18.846478         -512.83876
     28       2.00000         -18.843807         -512.76608
     29       2.00000         -18.842906         -512.74156
     30       2.00000         -18.840995         -512.68956
     31       2.00000         -18.839682         -512.65383
     32       2.00000         -18.828358         -512.34570
     33       2.00000          -1.173676          -31.93735
     34       2.00000          -1.164751          -31.69450
     35       2.00000          -1.161767          -31.61328
     36       2.00000          -1.158419          -31.52217
     37       2.00000          -1.149340          -31.27514
     38       2.00000          -1.136980          -30.93881
     39       2.00000          -1.135786          -30.90632
     40       2.00000          -1.133078          -30.83261
     41       2.00000          -1.129294          -30.72964
     42       2.00000          -1.127882          -30.69124
     43       2.00000          -1.125726          -30.63256
     44       2.00000          -1.124252          -30.59244
     45       2.00000          -1.120532          -30.49124
     46       2.00000          -1.116814          -30.39005
     47       2.00000          -1.115927          -30.36592
     48       2.00000          -1.112843          -30.28199
     49       2.00000          -1.109443          -30.18947
     50       2.00000          -1.107640          -30.14041
     51       2.00000          -1.093015          -29.74246
     52       2.00000          -1.085363          -29.53422
     53       2.00000          -1.083518          -29.48402
     54       2.00000          -1.079437          -29.37298
     55       2.00000          -1.074787          -29.24645
     56       2.00000          -1.072099          -29.17331
     57       2.00000          -1.063289          -28.93357
     58       2.00000          -1.060924          -28.86921
     59       2.00000          -1.055835          -28.73072
     60       2.00000          -1.052536          -28.64096
     61       2.00000          -1.047690          -28.50909
     62       2.00000          -1.047439          -28.50227
     63       2.00000          -1.042068          -28.35611
     64       2.00000          -1.019173          -27.73311
     65       2.00000          -0.725572          -19.74381
     66       2.00000          -0.701266          -19.08242
     67       2.00000          -0.700397          -19.05877
     68       2.00000          -0.690179          -18.78074
     69       2.00000          -0.687102          -18.69701
     70       2.00000          -0.680868          -18.52735
     71       2.00000          -0.677207          -18.42775
     72       2.00000          -0.676414          -18.40615
     73       2.00000          -0.674083          -18.34272
     74       2.00000          -0.672300          -18.29422
     75       2.00000          -0.661326          -17.99560
     76       2.00000          -0.658836          -17.92784
     77       2.00000          -0.656033          -17.85156
     78       2.00000          -0.649254          -17.66710
     79       2.00000          -0.648950          -17.65882
     80       2.00000          -0.641957          -17.46854
     81       2.00000          -0.633918          -17.24977
     82       2.00000          -0.629937          -17.14146
     83       2.00000          -0.627808          -17.08353
     84       2.00000          -0.617340          -16.79868
     85       2.00000          -0.615312          -16.74349
     86       2.00000          -0.613347          -16.69001
     87       2.00000          -0.612041          -16.65449
     88       2.00000          -0.609220          -16.57773
     89       2.00000          -0.607808          -16.53930
     90       2.00000          -0.604248          -16.44242
     91       2.00000          -0.602191          -16.38644
     92       2.00000          -0.598226          -16.27855
     93       2.00000          -0.595644          -16.20831
     94       2.00000          -0.590388          -16.06527
     95       2.00000          -0.584619          -15.90829
     96       2.00000          -0.580602          -15.79899
     97       2.00000          -0.576889          -15.69796
     98       2.00000          -0.574907          -15.64401
     99       2.00000          -0.569978          -15.50988
    100       2.00000          -0.566744          -15.42189
    101       2.00000          -0.560718          -15.25791
    102       2.00000          -0.557960          -15.18287
    103       2.00000          -0.554863          -15.09858
    104       2.00000          -0.553038          -15.04894
    105       2.00000          -0.551202          -14.99896
    106       2.00000          -0.548531          -14.92628
    107       2.00000          -0.546703          -14.87655
    108       2.00000          -0.546045          -14.85864
    109       2.00000          -0.540687          -14.71285
    110       2.00000          -0.538212          -14.64549
    111       2.00000          -0.533680          -14.52218
    112       2.00000          -0.533331          -14.51267
    113       2.00000          -0.531731          -14.46915
    114       2.00000          -0.529249          -14.40161
    115       2.00000          -0.527563          -14.35573
    116       2.00000          -0.525427          -14.29759
    117       2.00000          -0.522673          -14.22266
    118       2.00000          -0.519762          -14.14343
    119       2.00000          -0.517383          -14.07872
    120       2.00000          -0.513829          -13.98199
    121       2.00000          -0.509011          -13.85089
    122       2.00000          -0.506385          -13.77943
    123       2.00000          -0.499841          -13.60136
    124       2.00000          -0.498252          -13.55812
    125       2.00000          -0.494076          -13.44448
    126       2.00000          -0.491095          -13.36338
    127       2.00000          -0.487784          -13.27327
    128       2.00000          -0.486294          -13.23273
    129       2.00000          -0.482265          -13.12311
    130       2.00000          -0.480872          -13.08520
    131       2.00000          -0.478235          -13.01344
    132       2.00000          -0.475063          -12.92713
    133       2.00000          -0.474279          -12.90579
    134       2.00000          -0.472867          -12.86735
    135       2.00000          -0.472743          -12.86398
    136       2.00000          -0.471102          -12.81934
    137       2.00000          -0.469656          -12.78000
    138       2.00000          -0.468571          -12.75047
    139       2.00000          -0.468112          -12.73798
    140       2.00000          -0.466728          -12.70032
    141       2.00000          -0.465734          -12.67326
    142       2.00000          -0.460299          -12.52536
    143       2.00000          -0.457655          -12.45343
    144       2.00000          -0.456559          -12.42361
    145       2.00000          -0.455418          -12.39255
    146       2.00000          -0.451216          -12.27823
    147       2.00000          -0.450834          -12.26783
    148       2.00000          -0.447265          -12.17070
    149       2.00000          -0.446336          -12.14543
    150       2.00000          -0.445399          -12.11993
    151       2.00000          -0.444832          -12.10450
    152       2.00000          -0.443450          -12.06688
    153       2.00000          -0.442209          -12.03312
    154       2.00000          -0.440267          -11.98027
    155       2.00000          -0.437805          -11.91327
    156       2.00000          -0.437017          -11.89184
    157       2.00000          -0.433302          -11.79075
    158       2.00000          -0.429578          -11.68942
    159       2.00000          -0.427931          -11.64459
    160       2.00000          -0.422500          -11.49682
    161       0.00000          -0.172665           -4.69844
    162       0.00000          -0.114971           -3.12853
    163       0.00000          -0.111238           -3.02694
    164       0.00000          -0.110316           -3.00185
    165       0.00000          -0.106423           -2.89593
    166       0.00000          -0.102927           -2.80078
    167       0.00000          -0.099783           -2.71523
    168       0.00000          -0.073159           -1.99077
    169       0.00000          -0.065973           -1.79523
    170       0.00000          -0.062542           -1.70185
    171       0.00000          -0.059378           -1.61577
    172       0.00000          -0.056849           -1.54694
    173       0.00000          -0.055696           -1.51556
    174       0.00000          -0.049346           -1.34278
    175       0.00000          -0.046850           -1.27486
    176       0.00000          -0.044669           -1.21551
    177       0.00000          -0.040903           -1.11304
    178       0.00000          -0.037550           -1.02179
    179       0.00000          -0.026952           -0.73339
    180       0.00000          -0.011535           -0.31388
    181       0.00000          -0.007411           -0.20165
    182       0.00000          -0.004832           -0.13149
    183       0.00000          -0.002482           -0.06754
    184       0.00000           0.004165            0.11333
    185       0.00000           0.007632            0.20769
    186       0.00000           0.010047            0.27341
    187       0.00000           0.016100            0.43809
    188       0.00000           0.022955            0.62464
    189       0.00000           0.025507            0.69407
    190       0.00000           0.030574            0.83196
    191       0.00000           0.033035            0.89894
    192       0.00000           0.038495            1.04751
    193       0.00000           0.040793            1.11004
    194       0.00000           0.041907            1.14034
    195       0.00000           0.047293            1.28691
    196       0.00000           0.048727            1.32593
    197       0.00000           0.050855            1.38383
    198       0.00000           0.053031            1.44305
    199       0.00000           0.055831            1.51925
    200       0.00000           0.058623            1.59523
    201       0.00000           0.062643            1.70460
    202       0.00000           0.064559            1.75675
    203       0.00000           0.065363            1.77861
    204       0.00000           0.070306            1.91313
    205       0.00000           0.073399            1.99729
    206       0.00000           0.076410            2.07923
    207       0.00000           0.078150            2.12656
    208       0.00000           0.079221            2.15570
    209       0.00000           0.082146            2.23530
    210       0.00000           0.083510            2.27242
    211       0.00000           0.086816            2.36237
    212       0.00000           0.090227            2.45520
    213       0.00000           0.091992            2.50322
    214       0.00000           0.095964            2.61133
    215       0.00000           0.098721            2.68634
    216       0.00000           0.099462            2.70651
    217       0.00000           0.106244            2.89106
    218       0.00000           0.109609            2.98261
    219       0.00000           0.112514            3.06167
    220       0.00000           0.116785            3.17788
    221       0.00000           0.121686            3.31126
    222       0.00000           0.123966            3.37330
    223       0.00000           0.127818            3.47809
    224       0.00000           0.129461            3.52280
    225       0.00000           0.135354            3.68317
    226       0.00000           0.141995            3.86389
    227       0.00000           0.149276            4.06200
    228       0.00000           0.160992            4.38082
    229       0.00000           0.165100            4.49260
    230       0.00000           0.168802            4.59335
    231       0.00000           0.172920            4.70540
    232       0.00000           0.174723            4.75445
    233       0.00000           0.183716            4.99918
    234       0.00000           0.188206            5.12136
    235       0.00000           0.195887            5.33034
    236       0.00000           0.199770            5.43602
    237       0.00000           0.201768            5.49039
    238       0.00000           0.204690            5.56990
    239       0.00000           0.211993            5.76863
    240       0.00000           0.219819            5.98158
    241       0.00000           0.226769            6.17071
    242       0.00000           0.230481            6.27171
    243       0.00000           0.232087            6.31540
    244       0.00000           0.247008            6.72142
    245       0.00000           0.248942            6.77406
    246       0.00000           0.252186            6.86232
    247       0.00000           0.254715            6.93115
    248       0.00000           0.264277            7.19136
    249       0.00000           0.268910            7.31742
    250       0.00000           0.274510            7.46979
    251       0.00000           0.280770            7.64013
    252       0.00000           0.288483            7.85002
    253       0.00000           0.301495            8.20408
    254       0.00000           0.305502            8.31315
    255       0.00000           0.308483            8.39424
    256       0.00000           0.311075            8.46478
    257       0.00000           0.321775            8.75594
    258       0.00000           0.325344            8.85306
    259       0.00000           0.326545            8.88574
[...]
  |    H      0     4.527807 A      4.527807 A        1.268855E-16 a.u.
  |    H      0     4.527807 A      4.583499 A       -4.900954E-17 a.u.
  |    H      0     4.527807 A      4.583499 A        4.713786E-16 a.u.
  |    H      2     3.678162 A  2.180220E+05 A            0.556529 a.u.
  |    H      1     3.958095 A  1.721251E+08 A            0.841931 a.u.
  |    H      0     4.527807 A  3.866455E+16 A            0.581436 a.u.
  |    O      0     2.043000 A      2.043000 A       -1.436841E-16 a.u.
  |    O      3     3.498446 A      3.498446 A        3.043453E-17 a.u.
  |    O      3     3.498446 A      3.498446 A        1.541443E-16 a.u.
  |    O      0     3.905335 A      3.905335 A        2.173090E-16 a.u.
  |    O      0     3.905335 A      3.905335 A        7.213445E-17 a.u.
  |    O      0     4.101052 A      4.101052 A        2.361718E-16 a.u.
  |    O      1     4.101052 A      4.101052 A        3.235185E-17 a.u.
  |    O      0     4.359549 A      4.359549 A       -5.329475E-17 a.u.
  |    O      1     4.413171 A      4.413171 A        3.261883E-17 a.u.
  |    O      1     4.522403 A      4.522403 A        6.417997E-16 a.u.
  |    O      1     4.522403 A      4.522403 A        4.224783E-16 a.u.
  |    O      2     4.522403 A      4.522403 A       -4.387647E-16 a.u.
  |    O      0     4.522403 A      4.578029 A        2.602039E-16 a.u.
  |    O      0     4.578029 A      4.578029 A        1.226235E-16 a.u.
  |    O      1     4.578029 A      4.578029 A       -6.107316E-16 a.u.
  |    O      1     4.578029 A      4.578029 A       -2.224438E-16 a.u.
  |    O      2     4.578029 A      4.578029 A       -7.020279E-16 a.u.
  |    O      2     4.522403 A      4.578029 A        1.323470E-15 a.u.
  |    O      2     4.578029 A      4.578029 A        7.923696E-16 a.u.
  |    O      2     4.522403 A      4.578029 A       -9.951815E-16 a.u.
  |    O      0     4.578029 A      4.634338 A       -8.813582E-18 a.u.
  |    O      1     4.578029 A      4.634338 A       -3.325386E-17 a.u.
  |    O      1     4.634338 A      4.634338 A        9.588032E-16 a.u.
  |    O      2     4.578029 A      4.634338 A        1.064715E-17 a.u.
  |    O      2     4.578029 A      4.634338 A       -3.770343E-15 a.u.
  |    O      4     3.251020 A  1.511584E+03 A            1.513372 a.u.
  |    O      3     3.541477 A  1.434166E+04 A            4.293220 a.u.
  |    O      2     4.634338 A  5.584435E+05 A            9.352428 a.u.
  |    O      1     4.634338 A  2.821283E+08 A            2.261940 a.u.
  |    O      0     4.578029 A  4.264100E+16 A            0.641234 a.u.

  | Shrink_full_auxil_basis : there are       38  radial auxiliary wave functions
                            accepted and       5 rejected.
  | Shrink_full_auxil_basis : there are totally                4544 partial auxiliary wave functions.
 
  | Maximal number of product basis functions per thread :   256   256
 
  | Minimal total memory requirement for three-center overlap :      10.450 Gbs
  | Number of local auxiliary basis functions on task:      0   256
  | Number of local auxiliary basis functions on task:      1   256
  | Number of local auxiliary basis functions on task:      2   256
  | Number of local auxiliary basis functions on task:      3   256
  | Number of local auxiliary basis functions on task:      4   256
  | Number of local auxiliary basis functions on task:      5   256
  | Number of local auxiliary basis functions on task:      6   256
  | Number of local auxiliary basis functions on task:      7   256
  | Number of local auxiliary basis functions on task:      8   256
  | Number of local auxiliary basis functions on task:      9   256
  | Number of local auxiliary basis functions on task:     10   256
  | Number of local auxiliary basis functions on task:     11   256
  | Number of local auxiliary basis functions on task:     12   256
  | Number of local auxiliary basis functions on task:     13   256
  | Number of local auxiliary basis functions on task:     14   240
  | Number of local auxiliary basis functions on task:     15   240
  | Number of local auxiliary basis functions on task:     16   240
  | Number of local auxiliary basis functions on task:     17   240
  | 2D aux task distribution:      3 X      6
  | 2D block size (nb_aux_2d):     64
 
  Basis pair condensation :    295296  -->     218933
 
 --------------------------------------------
  Constructing auxiliary basis (full product) ...
 
  Product basis:
  | charge radius: extent of product basis function
  | field radius: extent of its Coulomb potential
  | Species   l  charge radius    field radius  multipol momen
  |    H      1     3.910002 A      3.910002 A       -2.487223E-16 a.u.
  |    H      1     3.958095 A      3.958095 A       -2.441841E-16 a.u.
  |    H      0     4.527807 A      4.527807 A        1.268855E-16 a.u.
  |    H      0     4.527807 A      4.583499 A       -4.900954E-17 a.u.
  |    H      0     4.527807 A      4.583499 A        4.713786E-16 a.u.
  |    H      2     3.678162 A  2.180220E+05 A            0.556529 a.u.
  |    H      1     3.958095 A  1.721251E+08 A            0.841931 a.u.
  |    H      0     4.527807 A  3.866455E+16 A            0.581436 a.u.
  |    O      0     2.043000 A      2.043000 A       -1.436841E-16 a.u.
  |    O      3     3.498446 A      3.498446 A        3.043453E-17 a.u.
  |    O      3     3.498446 A      3.498446 A        1.541443E-16 a.u.
  |    O      0     3.905335 A      3.905335 A        2.173090E-16 a.u.
  |    O      0     3.905335 A      3.905335 A        7.213445E-17 a.u.
  |    O      0     4.101052 A      4.101052 A        2.361718E-16 a.u.
  |    O      1     4.101052 A      4.101052 A        3.235185E-17 a.u.
  |    O      0     4.359549 A      4.359549 A       -5.329475E-17 a.u.
  |    O      1     4.413171 A      4.413171 A        3.261883E-17 a.u.
  |    O      1     4.522403 A      4.522403 A        6.417997E-16 a.u.
  |    O      1     4.522403 A      4.522403 A        4.224783E-16 a.u.
  |    O      2     4.522403 A      4.522403 A       -4.387647E-16 a.u.
  |    O      0     4.522403 A      4.578029 A        2.602039E-16 a.u.
  |    O      0     4.578029 A      4.578029 A        1.226235E-16 a.u.
  |    O      1     4.578029 A      4.578029 A       -6.107316E-16 a.u.
  |    O      1     4.578029 A      4.578029 A       -2.224438E-16 a.u.
  |    O      2     4.578029 A      4.578029 A       -7.020279E-16 a.u.
  |    O      2     4.522403 A      4.578029 A        1.323470E-15 a.u.
  |    O      2     4.578029 A      4.578029 A        7.923696E-16 a.u.
  |    O      2     4.522403 A      4.578029 A       -9.951815E-16 a.u.
  |    O      0     4.578029 A      4.634338 A       -8.813582E-18 a.u.
  |    O      1     4.578029 A      4.634338 A       -3.325386E-17 a.u.
  |    O      1     4.634338 A      4.634338 A        9.588032E-16 a.u.
  |    O      2     4.578029 A      4.634338 A        1.064715E-17 a.u.
  |    O      2     4.578029 A      4.634338 A       -3.770343E-15 a.u.
  |    O      4     3.251020 A  1.511584E+03 A            1.513372 a.u.
  |    O      3     3.541477 A  1.434166E+04 A            4.293220 a.u.
  |    O      2     4.634338 A  5.584435E+05 A            9.352428 a.u.
  |    O      1     4.634338 A  2.821283E+08 A            2.261940 a.u.
  |    O      0     4.578029 A  4.264100E+16 A            0.641234 a.u.

  | Shrink_full_auxil_basis : there are       38  radial auxiliary wave functions
                            accepted and       5 rejected.
  | Shrink_full_auxil_basis : there are totally                4544 partial auxiliary wave functions.
 
  | Maximal number of product basis functions per thread :   256   256
 
  | Minimal total memory requirement for three-center overlap :      10.450 Gbs
  | Number of local auxiliary basis functions on task:      0   256
  | Number of local auxiliary basis functions on task:      1   256
  | Number of local auxiliary basis functions on task:      2   256
  | Number of local auxiliary basis functions on task:      3   256
  | Number of local auxiliary basis functions on task:      4   256
  | Number of local auxiliary basis functions on task:      5   256
  | Number of local auxiliary basis functions on task:      6   256
  | Number of local auxiliary basis functions on task:      7   256
  | Number of local auxiliary basis functions on task:      8   256
  | Number of local auxiliary basis functions on task:      9   256
  | Number of local auxiliary basis functions on task:     10   256
  | Number of local auxiliary basis functions on task:     11   256
  | Number of local auxiliary basis functions on task:     12   256
  | Number of local auxiliary basis functions on task:     13   256
  | Number of local auxiliary basis functions on task:     14   240
  | Number of local auxiliary basis functions on task:     15   240
  | Number of local auxiliary basis functions on task:     16   240
  | Number of local auxiliary basis functions on task:     17   240
  | 2D aux task distribution:      3 X      6
  | 2D block size (nb_aux_2d):     64
 
  Basis pair condensation :    295296  -->     218933
dP_dE (Bohr^3) at every cycle:--->
 (346.672759669402,0.000000000000000E+000) (11.1894830838859,0.000000000000000E+000) (-0.452961088511841,0.000000000000000E+000)
 (11.2032146149470,0.000000000000000E+000) (342.666015086328,0.000000000000000E+000) (-1.50676905377397,0.000000000000000E+000)
 (-0.440414719027727,0.000000000000000E+000) (-1.51800219270777,0.000000000000000E+000) (373.417146082234,0.000000000000000E+000)
DFPT polarizability (Bohr^3)        xx        yy        zz        xy        xz        yz
  | Polarizability:--->                       346.672759669                  342.666015086                  373.417146082                   11.189483084                   -0.452961089                   -1.506769054

DFPT for dielectric_constant:--->  # PARSE DFPT_dielectric_tensor
               1.646883031610791             0.020879306312859            -0.000845214496858
               0.020904929019558             1.639406542586212            -0.002811594814580
              -0.000821803273157            -0.002832555581659             1.696787413419737

                                               :  max(cpu_time)    wall_clock(cpu1)
  | Time for  dielectric calculation            :        0.001 s           0.001 s
===========================================================================

------------------------------------------------------------------------------
  Final output of selected total energy values:

  The following output summarizes some interesting total energy values
  at the end of a run (AFTER all relaxation, molecular dynamics, etc.).

  | Total energy of the DFT / Hartree-Fock s.c.f. calculation      :         -66108.415024167 eV
  | Final zero-broadening corrected energy (caution - metals only) :         -66108.415024167 eV
  | For reference only, the value of 1 Hartree used in FHI-aims is :             27.211384500 eV
  | For reference only, the overall average (free atom contribution
  | + realspace contribution) of the electrostatic potential after
  | s.c.f. convergence is                                          :             -4.802885944 eV

  Before relying on these values, please be sure to understand exactly which
  total energy value is referred to by a given number. Different objects may
  all carry the same name 'total energy'. Definitions:

  Total energy of the DFT / Hartree-Fock s.c.f. calculation:
  | Note that this energy does not include ANY quantities calculated after the
  | s.c.f. cycle, in particular not ANY RPA, MP2, etc. many-body perturbation terms.

  Final zero-broadening corrected energy:
  | For metallic systems only, a broadening of the occupation numbers at the Fermi
  | level can be extrapolated back to zero broadening by an electron-gas inspired
  | formula. For all systems that are not real metals, this value can be
  | meaningless and should be avoided.

------------------------------------------------------------------------------
  Methods described in the following list of references were used in this FHI-aims run.
  If you publish the results, please make sure to cite these reference if they apply.
  FHI-aims is an academic code, and for our developers (often, Ph.D. students
  and postdocs), scientific credit in the community is essential.
  Thank you for helping us!

  For any use of FHI-aims, please cite:

    Volker Blum, Ralf Gehrke, Felix Hanke, Paula Havu, Ville Havu,
    Xinguo Ren, Karsten Reuter, and Matthias Scheffler
    'Ab initio molecular simulations with numeric atom-centered orbitals'
    Computer Physics Communications 180, 2175-2196 (2009)
    http://doi.org/10.1016/j.cpc.2009.06.022


  For Hartree-Fock, hybrid functionals, or many-body perturbation theory used in your run, please cite:

    Xinguo Ren, Patrick Rinke, Volker Blum, Juergen Wieferink, Alex Tkatchenko,
    Andrea Sanfilippo, Karsten Reuter, and Matthias Scheffler,
    'Resolution-of-identity approach to Hartree-Fock, hybrid density functionals,
    RPA, MP2, and GW with numeric atom-centered orbital basis functions'
    New Journal of Physics 14, 053020 (2012).
    http://doi.org/10.1088/1367-2630/14/5/053020


  The provided symmetry information was generated with SPGlib:

    Atsushi Togo, Yusuke Seto, Dimitar Pashov
    SPGlib 1.7.3 obtained from http://spglib.sourceforge.net
    Copyright (C) 2008 Atsushi Togo


  The DFPT (perturbation by an electric field) part of the code was used.
  Here is the corresponding reference:

    Honghui Shang, Nathaniel Raimbault, Mariana Rossi,
    Christian Carbogno, Patrick Rinke and Matthias Scheffler,
    'All-Electron, Real-Space Perturbation Theory for Homogeneous
    Electric Fields: Theory, Implementation, and Application within dft'
    New Journal of Physics, 20(7):073040, 2018


  The ELSI infrastructure was used in your run to solve the Kohn-Sham electronic structure.
  Please check out http://elsi-interchange.org to learn more.
  If scalability is important for your project, please acknowledge ELSI by citing:

    V. W-z. Yu, F. Corsetti, A. Garcia, W. P. Huhn, M. Jacquelin, W. Jia,
    B. Lange, L. Lin, J. Lu, W. Mi, A. Seifitokaldani, A. Vazquez-Mayagoitia,
    C. Yang, H. Yang, and V. Blum
    'ELSI: A unified software interface for Kohn-Sham electronic structure solvers'
    Computer Physics Communications 222, 267-285 (2018).
    http://doi.org/10.1016/j.cpc.2017.09.007


  For the real-space grid partitioning and parallelization used in this calculation, please cite:

    Ville Havu, Volker Blum, Paula Havu, and Matthias Scheffler,
    'Efficient O(N) integration for all-electron electronic structure calculation'
    'using numerically tabulated basis functions'
    Journal of Computational Physics 228, 8367-8379 (2009).
    http://doi.org/10.1016/j.jcp.2009.08.008


  The high-level electronic structure method used in your calculation
  employed our efficient localized resolution of identity for the Coulomb operator.
  Some calculations, especially large-scale hybrid density functional theory,
  are only possible thanks to this development. For this feature, please cite:

    Arvid Ihrig, Juergen Wieferink, Igor Ying Zhang, Matti Ropo, Xinguo Ren,
    Patrick Rinke, Matthias Scheffler, and Volker Blum,
    'Accurate localized resolution of identity approach for linear-scaling
    hybrid density functionals and for many-body perturbation theory'
    New Journal of Physics 117, 093020 (2015).
    http://doi.org/10.1088/1367-2630/17/9/093020

  Of course, there are many other important community references, e.g., those cited in the
  above references. Our list is limited to references that describe implementations in the
  FHI-aims code. The reason is purely practical (length of this list) - please credit others as well.

------------------------------------------------------------
          Leaving FHI-aims.
          Date     :  20230221, Time     :  154350.708

          Computational steps:
          | Number of self-consistency cycles          :           45
          | Number of SCF (re)initializations          :            1
          | Number of coupled perturbed self-consistency cycles          :            0
          | Number of CPSCF (re)initializations          :            0

          Detailed time accounting                     :  max(cpu_time)    wall_clock(cpu1)
          | Total time                                  :      441.381 s         452.167 s
          | GPU initialization                          :        1.721 s           9.431 s
          | Preparation time                            :        0.070 s           0.066 s
          | Boundary condition initalization            :        1.279 s           1.280 s
          | Grid partitioning                           :        0.413 s           0.413 s
          | Preloading free-atom quantities on grid     :        2.273 s           2.274 s
          | Free-atom superposition energy              :        0.304 s           0.304 s
          | Total time for integrations                 :       11.572 s          11.735 s
          | Product basis setup: Total time             :        0.000 s           0.000 s
          | Product basis: | 2-center integrations     :(       0.000 s)  (       0.000 s)
          | Product basis: | LVL 3-center & coefficient:(       0.000 s)  (       0.000 s)
          | Total time for solution of K.-S. equations  :        2.331 s           4.616 s
          | Total time for density update               :        8.096 s           8.366 s
          | Total time for mixing & preconditioning     :        8.846 s           8.847 s
          | Total time for Hartree multipole update     :        0.108 s           0.107 s
          | Total time for Hartree multipole sum        :       35.477 s          35.496 s
          | Total time for total energy evaluation      :        0.006 s           0.007 s
          | Total time for DFPT                         :      367.999 s         368.126 s
          | Total time first_order_DM                   :        0.307 s           0.305 s
          | Total time first_order_density              :       77.054 s          77.058 s
          | Total time first_order_potential            :       52.962 s          52.977 s
          | Total time first_order_H                    :      151.919 s         151.969 s
          | Total time solving of Sternheimer equations :        0.195 s           0.198 s
          | Total time for dielectric constant          :        0.001 s           0.001 s
          | Total time momentum matrix                  :        0.000 s           0.000 s

          GPU acceleration has been used for charge density update.
          GPU acceleration has been used for real-space Hamiltonian integration.
          Due to GPU usage, wall_clock(cpu1) will give a more reliable estimate for timings.

          Partial memory accounting:
          | Residual value for overall tracked memory usage across tasks:     0.000000 MB (should be 0.000000 MB)
          | Peak values for overall tracked memory usage:
          |   Minimum:      113.870 MB (on task  0 after allocating DFPT_pulay_mixing::pulay_mix::alphas)
          |   Maximum:      113.870 MB (on task  0 after allocating DFPT_pulay_mixing::pulay_mix::alphas)
          |   Average:      113.870 MB
          | Largest tracked array allocation:
          |   Minimum:       40.606 MB (DFPT_pulay_mixing::initialize_pulay_mixing::X_in_diffs on task  0)
          |   Maximum:       40.606 MB (DFPT_pulay_mixing::initialize_pulay_mixing::X_in_diffs on task  0)
          |   Average:       40.606 MB
          Note:  These values currently only include a subset of arrays which are explicitly tracked.
          The "true" memory usage will be greater.

          Have a nice day.
------------------------------------------------------------
