------------------------------------------------------------
          Invoking FHI-aims ...

          When using FHI-aims, please cite the following reference:

            Volker Blum, Ralf Gehrke, Felix Hanke, Paula Havu,
            Ville Havu, Xinguo Ren, Karsten Reuter, and Matthias Scheffler,
            'Ab Initio Molecular Simulations with Numeric Atom-Centered Orbitals',
            Computer Physics Communications 180, 2175-2196 (2009)

          In addition, many other developments in FHI-aims are likely important for
          your particular application. A partial list of references is given at the end of
          this file. Thank you for giving credit to the authors of these developments.

          For any questions about FHI-aims, please visit our slack channel at

            https://fhi-aims.slack.com

          and our main development and support site at

            https://aims-git.rz-berlin.mpg.de .

          The latter site, in particular, has a wiki to collect information, as well
          as an issue tracker to log discussions, suggest improvements, and report issues
          or bugs. https://aims-git.rz-berlin.mpg.de is also the main development site
          of the project and all new and updated code versions can be obtained there.
          Please send an email to aims-coordinators@fhi-berlin.mpg.de and we will add
          you to these sites. They are for you and everyone is welcome there.

------------------------------------------------------------



  Date     :  20230221, Time     :  160042.052
  Time zero on CPU 1             :   0.371798000000000E+00  s.
  Internal wall clock time zero  :           446227242.052  s.

  FHI-aims created a unique identifier for this run for later identification
  aims_uuid : 733E1553-BC9C-4F4A-AECB-313CC0EA836D

  Build configuration of the current instance of FHI-aims
  -------------------------------------------------------
  FHI-aims version      : 221103
  Commit number         : 42523251a
  CMake host system     : Linux-5.3.18-150300.59.68-default
  CMake version         : 3.17.0
  Fortran compiler      : /mpcdf/soft/SLE_15/packages/x86_64/intel_oneapi/2021.3/mpi/2021.3.0/bin/mpiifort (Intel) version 20.2.3.20210609
  Fortran compiler flags: -O3 -ip -fp-model precise
  C compiler            : /mpcdf/soft/SLE_15/packages/x86_64/intel/2021.3.0/bin/icc (Intel) version 20.2.3.20210609
  C compiler flags      : -O3 -ip -fp-model precise -std=gnu99
  CUDA compiler         : /mpcdf/soft/SLE_15/packages/x86_64/cuda/11.6.2/bin/nvcc
  CUDA compiler flags   : -O3 -DAdd_ -lcublas
  HIP compiler          :
  HIP compiler flags    :
  HIP GPU arch          :
  ELPA2 kernel          : AVX512
  Using MPI
  Using ScaLAPACK
  Using LibXC
  Using CUDA
  Using i-PI
  Using RLSY
  Linking against: /mpcdf/soft/SLE_15/packages/x86_64/cuda/11.6.2/lib64/libcublas.so
                   /mpcdf/soft/SLE_15/packages/x86_64/cuda/11.6.2/lib64/libcudart.so
                   /mpcdf/soft/SLE_15/packages/x86_64/intel_oneapi/2021.3/mkl/latest/lib/intel64/libmkl_intel_lp64.so
                   /mpcdf/soft/SLE_15/packages/x86_64/intel_oneapi/2021.3/mkl/latest/lib/intel64/libmkl_sequential.so
                   /mpcdf/soft/SLE_15/packages/x86_64/intel_oneapi/2021.3/mkl/latest/lib/intel64/libmkl_core.so
                   /mpcdf/soft/SLE_15/packages/x86_64/intel_oneapi/2021.3/mkl/latest/lib/intel64/libmkl_blacs_intelmpi_lp64.so
                   /mpcdf/soft/SLE_15/packages/x86_64/intel_oneapi/2021.3/mkl/latest/lib/intel64/libmkl_scalapack_lp64.so

  Using       18 parallel tasks.
  Task        0 on host adag038 reporting.
  Task        1 on host adag038 reporting.
  Task        2 on host adag038 reporting.
  Task        3 on host adag038 reporting.
  Task        4 on host adag038 reporting.
  Task        5 on host adag038 reporting.
  Task        6 on host adag038 reporting.
  Task        7 on host adag038 reporting.
  Task        8 on host adag038 reporting.
  Task        9 on host adag038 reporting.
  Task       10 on host adag038 reporting.
  Task       11 on host adag038 reporting.
  Task       12 on host adag038 reporting.
  Task       13 on host adag038 reporting.
  Task       14 on host adag038 reporting.
  Task       15 on host adag038 reporting.
  Task       16 on host adag038 reporting.
  Task       17 on host adag038 reporting.

  Obtaining array dimensions for all initial allocations:
  
  -----------------------------------------------------------------------
  Parsing control.in (first pass over file, find array dimensions only).
  The contents of control.in will be repeated verbatim below
  unless switched off by setting 'verbatim_writeout .false.' .
  in the first line of control.in .
  -----------------------------------------------------------------------
  
  #########################################################################################
  #
  #  Volker Blum, 2017 : Test run input file control.in for simple H2O
  #
  #########################################################################################
  #
  #  Physical model
  #
    xc                 pw-lda
    spin               none
    relativistic       none
    charge             0.
  
    use_gpu
  
    DFPT dielectric
    ri_density_restart write
    ri_rho1 write
  #  ri_density_restart read 0
  #  ri_rho1 read
    ri_full_output .true.
    sc_accuracy_rho    1d-6
  #  use_calculate_fock_matrix_old .false.
  #  wave_threshold 1e-8
    k_grid 1 1 1
  #  output cube eigenstate 160
  #  output cube eigenstate 161
    wave_threshold 1e-8
    default_prodbas_acc 1e-6
    default_max_l_prodbas 6
  #
  #  Relaxation
  #
  #  relax_geometry   bfgs 1.e-2
  #
  
  ################################################################################
  
  
  ################################################################################
  #
  #  FHI-aims code project
  #  VB, Fritz-Haber Institut, 2009
  #
  #  Suggested "light" defaults for H atom (to be pasted into control.in file)
  #  Be sure to double-check any results obtained with these settings for post-processing,
  #  e.g., with the "tight" defaults and larger basis sets.
  #
  ################################################################################
    species        H
  #     global species definitions
      nucleus             1
      mass                1.00794
  #
      l_hartree           4
  #
      cut_pot             3.5  1.5  1.0
      basis_dep_cutoff    1e-4
  #
      radial_base         24 5.0
      radial_multiplier   1
      angular_grids       specified
        division   0.2421   50
        division   0.3822  110
        division   0.4799  194
        division   0.5341  302
  #      division   0.5626  434
  #      division   0.5922  590
  #      division   0.6542  770
  #      division   0.6868 1202
  #      outer_grid  770
        outer_grid  302
  ################################################################################
  #
  #  Definition of "minimal" basis
  #
  ################################################################################
  #     valence basis states
      valence      1  s   1.
  #     ion occupancy
      ion_occ      1  s   0.5
  ################################################################################
  #
  #  Suggested additional basis functions. For production calculations,
  #  uncomment them one after another (the most important basis functions are
  #  listed first).
  #
  #  Basis constructed for dimers: 0.5 A, 0.7 A, 1.0 A, 1.5 A, 2.5 A
  #
  ################################################################################
  #  "First tier" - improvements: -1014.90 meV to -62.69 meV
       hydro 2 s 2.1
       hydro 2 p 3.5
  #  "Second tier" - improvements: -12.89 meV to -1.83 meV
  #     hydro 1 s 0.85
  #     hydro 2 p 3.7
  #     hydro 2 s 1.2
  #     hydro 3 d 7
  #  "Third tier" - improvements: -0.25 meV to -0.12 meV
  #     hydro 4 f 11.2
  #     hydro 3 p 4.8
  #     hydro 4 d 9
  #     hydro 3 s 3.2
  ################################################################################
  #
  #  FHI-aims code project
  #  VB, Fritz-Haber Institut, 2009
  #
  #  Suggested "light" defaults for O atom (to be pasted into control.in file)
  #  Be sure to double-check any results obtained with these settings for post-processing,
  #  e.g., with the "tight" defaults and larger basis sets.
  #
  ################################################################################
    species        O
  #     global species definitions
      nucleus             8
      mass                15.9994
  #
      l_hartree           4
  #
      cut_pot             3.5  1.5  1.0
      basis_dep_cutoff    1e-4
  #
      radial_base         36 5.0
      radial_multiplier   1
       angular_grids specified
        division   0.2659   50
        division   0.4451  110
        division   0.6052  194
        division   0.7543  302
  #      division   0.8014  434
  #      division   0.8507  590
  #      division   0.8762  770
  #      division   0.9023  974
  #      division   1.2339 1202
  #      outer_grid 974
        outer_grid 302
  ################################################################################
  #
  #  Definition of "minimal" basis
  #
  ################################################################################
  #     valence basis states
      valence      2  s   2.
      valence      2  p   4.
  #     ion occupancy
      ion_occ      2  s   1.
      ion_occ      2  p   3.
  ################################################################################
  #
  #  Suggested additional basis functions. For production calculations,
  #  uncomment them one after another (the most important basis functions are
  #  listed first).
  #
  #  Constructed for dimers: 1.0 A, 1.208 A, 1.5 A, 2.0 A, 3.0 A
  #
  ################################################################################
  #  "First tier" - improvements: -699.05 meV to -159.38 meV
       hydro 2 p 1.8
       hydro 3 d 7.6
       hydro 3 s 6.4
  #  "Second tier" - improvements: -49.91 meV to -5.39 meV
  #     hydro 4 f 11.6
  #     hydro 3 p 6.2
  #     hydro 3 d 5.6
  #     hydro 5 g 17.6
  #     hydro 1 s 0.75
  #  "Third tier" - improvements: -2.83 meV to -0.50 meV
  #     ionic 2 p auto
  #     hydro 4 f 10.8
  #     hydro 4 d 4.7
  #     hydro 2 s 6.8
  #  "Fourth tier" - improvements: -0.40 meV to -0.12 meV
  #     hydro 3 p 5
  #     hydro 3 s 3.3
  #     hydro 5 g 15.6
  #     hydro 4 f 17.6
  #     hydro 4 d 14
  # Further basis functions - -0.08 meV and below
  #     hydro 3 s 2.1
  #     hydro 4 d 11.6
  #     hydro 3 p 16
  #     hydro 2 s 17.2
  
  -----------------------------------------------------------------------
  Completed first pass over input file control.in .
  -----------------------------------------------------------------------
  
  
  -----------------------------------------------------------------------
  Parsing geometry.in (first pass over file, find array dimensions only).
  The contents of geometry.in will be repeated verbatim below
  unless switched off by setting 'verbatim_writeout .false.' .
  in the first line of geometry.in .
  -----------------------------------------------------------------------
  
  #=======================================================
  # FHI-aims file: /ada/ptmp/mpsd/alewis/bulk_water/qmdata/data/geoms/459.in
  # Created using the Atomic Simulation Environment (ASE)
  # Tue Feb 21 11:23:37 2023
  #=======================================================
  lattice_vector 10.1184499999999993 0.0000000000000000 0.0000000000000000
  lattice_vector 0.0000000000000000 10.1184499999999993 0.0000000000000000
  lattice_vector 0.0000000000000000 0.0000000000000000 10.1184499999999993
  atom 4.9502400000000000 19.8446999999999996 12.7035999999999998 O
  atom 4.5298200000000000 19.4072999999999993 11.8858999999999995 H
  atom 5.9518700000000004 19.8382000000000005 12.4769000000000005 H
  atom 12.3642000000000003 27.2669999999999995 -14.8434000000000008 O
  atom 11.7998999999999992 27.9145000000000003 -15.1847999999999992 H
  atom 13.1392000000000007 27.3094999999999999 -15.3025000000000002 H
  atom 21.1048000000000009 8.8549399999999991 -6.0922299999999998 O
  atom 21.1097000000000001 9.6776199999999992 -6.0809899999999999 H
  atom 20.2241999999999997 8.7156199999999995 -5.7811599999999999 H
  atom 3.5991599999999999 8.7892899999999994 -30.5688999999999993 O
  atom 3.9971000000000001 9.5908800000000003 -30.8174999999999990 H
  atom 4.0532899999999996 8.0646000000000004 -31.0850000000000009 H
  atom -16.0783999999999985 2.1399300000000001 32.3459999999999965 O
  atom -16.0004999999999988 1.3050299999999999 32.5371000000000024 H
  atom -15.5074000000000005 2.5589200000000001 33.1128000000000000 H
  atom 4.4512900000000002 4.6500000000000004 -1.7107800000000000 O
  atom 5.2440199999999999 4.6786099999999999 -1.1551400000000001 H
  atom 3.8686199999999999 4.2946400000000002 -1.0102800000000001 H
  atom -14.0173000000000005 3.1825399999999999 3.5698799999999999 O
  atom -13.2736000000000001 2.8233600000000001 3.0306199999999999 H
  atom -13.9539000000000009 4.0881100000000004 3.0240700000000000 H
  atom -19.2774999999999999 -4.3112599999999999 7.4160300000000001 O
  atom -20.0494999999999983 -4.1577400000000004 6.9216199999999999 H
  atom -18.6475000000000009 -4.0566000000000004 6.6722999999999999 H
  atom 8.3763500000000004 -11.0978999999999992 14.9067000000000007 O
  atom 8.4480299999999993 -10.2664000000000009 15.3537999999999997 H
  atom 8.1834100000000003 -10.8627000000000002 14.0029000000000003 H
  atom 6.9381800000000000 -4.7221799999999998 -0.6004760000000000 O
  atom 7.2760100000000003 -3.7822600000000000 -0.4547830000000000 H
  atom 7.3468499999999999 -4.9065399999999997 -1.4432900000000000 H
  atom 13.8940999999999999 -6.2709799999999998 4.9840400000000002 O
  atom 14.7478999999999996 -6.1658999999999997 4.6078400000000004 H
  atom 13.7919000000000000 -6.3347400000000000 5.8131100000000000 H
  atom 8.5071200000000005 -7.9255300000000002 -17.8316000000000017 O
  atom 9.5098400000000005 -8.0052900000000005 -17.5013000000000005 H
  atom 8.7678100000000008 -7.5016699999999998 -18.6733000000000011 H
  atom 8.0714199999999998 20.1385000000000005 18.9146000000000001 O
  atom 8.5483499999999992 20.7993999999999986 18.2398999999999987 H
  atom 7.2969999999999997 20.6010999999999989 19.1556999999999995 H
  atom -11.5831000000000000 -4.0774900000000001 23.0323999999999991 O
  atom -10.6771999999999991 -3.9104800000000002 22.6427000000000014 H
  atom -11.7204999999999995 -3.1078899999999998 23.1302999999999983 H
  atom -2.4885500000000000 -10.5658999999999992 -18.1238999999999990 O
  atom -2.2009599999999998 -10.9604999999999997 -18.9498999999999995 H
  atom -1.9217100000000000 -9.8719099999999997 -18.0253000000000014 H
  atom 10.5920000000000005 37.2890999999999977 20.4157000000000011 O
  atom 11.5350000000000001 37.4414000000000016 20.9172000000000011 H
  atom 10.7097999999999995 36.9791999999999987 19.5462999999999987 H
  atom -17.2435000000000009 -18.6458000000000013 -2.6218699999999999 O
  atom -17.5930999999999997 -19.4317999999999991 -2.9357600000000001 H
  atom -17.8747000000000007 -18.2283000000000008 -1.9705600000000001 H
  atom -6.8917099999999998 14.6753000000000000 31.4377999999999993 O
  atom -7.2177400000000000 15.0761000000000003 32.3616000000000028 H
  atom -6.5801100000000003 13.6713000000000005 31.6265999999999998 H
  atom 1.9169000000000000 29.0274000000000001 -2.3714900000000001 O
  atom 2.4053599999999999 28.2737000000000016 -3.1252000000000000 H
  atom 2.2600099999999999 28.9845000000000006 -1.5121599999999999 H
  atom -7.4048400000000001 -19.4494000000000007 -5.5651500000000000 O
  atom -7.1246600000000004 -18.5448999999999984 -5.4093200000000001 H
  atom -6.6251600000000002 -20.0445999999999991 -5.9310999999999998 H
  atom 15.0426000000000002 7.3784900000000002 -12.2820000000000000 O
  atom 15.8300999999999998 7.4638799999999996 -12.7444000000000006 H
  atom 14.7584999999999997 6.4713900000000004 -12.3117999999999999 H
  atom 15.7363000000000000 35.7464999999999975 12.3609000000000009 O
  atom 15.0643999999999991 35.7775000000000034 11.8122000000000007 H
  atom 16.4363999999999990 36.2173999999999978 12.0302000000000007 H
  atom -8.4078400000000002 25.2226999999999997 3.5596500000000000 O
  atom -7.5730199999999996 24.9571000000000005 4.0949000000000000 H
  atom -8.6864299999999997 26.2346000000000004 4.0929900000000004 H
  atom -15.4151000000000007 7.1397000000000004 4.0903700000000001 O
  atom -15.4688999999999997 8.0658200000000004 3.7332299999999998 H
  atom -15.0478000000000005 6.4440600000000003 3.3782500000000000 H
  atom 18.4582000000000015 15.2126999999999999 16.4401000000000010 O
  atom 17.9935000000000009 15.7896000000000001 15.9074000000000009 H
  atom 18.5301000000000009 14.4082000000000008 15.8594000000000008 H
  atom 0.4481820000000000 -7.4339000000000004 -5.7854200000000002 O
  atom 1.1796700000000000 -7.6776200000000001 -5.5723200000000004 H
  atom 0.6025540000000000 -6.6684000000000001 -6.2585300000000004 H
  atom -15.0756999999999994 1.2337600000000000 29.2506999999999984 O
  atom -15.7348999999999997 1.4647800000000000 28.5352999999999994 H
  atom -14.5749999999999993 2.0083099999999998 29.5774000000000008 H
  atom -1.1538800000000000 -6.7861799999999999 10.1865000000000006 O
  atom -0.7060930000000000 -7.0703100000000001 9.4498800000000003 H
  atom -1.4787900000000000 -5.8800699999999999 10.0580999999999996 H
  atom 11.3398000000000003 -6.6091100000000003 -21.5686000000000000 O
  atom 11.5524000000000004 -6.2041899999999996 -20.7530000000000001 H
  atom 10.9939999999999998 -5.6712899999999999 -21.9420000000000002 H
  atom 16.9506000000000014 -2.9088599999999998 -4.1592099999999999 O
  atom 16.0576000000000008 -2.9418000000000002 -4.3013399999999997 H
  atom 17.4896999999999991 -2.0550999999999999 -4.4167500000000004 H
  atom 28.2012999999999998 -12.4492999999999991 40.5932999999999993 O
  atom 28.0518999999999998 -11.9097000000000008 39.8838999999999970 H
  atom 29.0505999999999993 -12.7393000000000001 40.5037000000000020 H
  atom 18.6707999999999998 1.4855000000000000 5.7250300000000003 O
  atom 17.9201000000000015 1.8317699999999999 5.3064999999999998 H
  atom 19.5712000000000010 2.0235699999999999 5.5613400000000004 H
  
  -----------------------------------------------------------------------
  Completed first pass over input file geometry.in .
  -----------------------------------------------------------------------
  

  Basic array size parameters:
  | Number of species                 :        2
  | Number of atoms                   :       96
  | Number of lattice vectors         :        3
  | Max. basis fn. angular momentum   :        2
  | Max. atomic/ionic basis occupied n:        2
  | Max. number of basis fn. types    :        2
  | Max. radial fns per species/type  :        3
  | Max. logarithmic grid size        :     1301
  | Max. radial integration grid size :       36
  | Max. angular integration grid size:      302
  | Max. angular grid division number :        8
  | Radial grid for Hartree potential :     1301
  | Number of spin channels           :        1

------------------------------------------------------------
          Reading file control.in.
------------------------------------------------------------
  XC: Using Perdew-Wang parametrisation of Ceperley-Alder LDA.
  Spin treatment: No spin polarisation.
  Non-relativistic treatment of kinetic energy.
  Charge =   0.000000E+00: Neutral system requested explicitly.
  DFPT calculation will begin after the DFT/HF calculation.
  Convergence accuracy of self-consistent charge density:  0.1000E-05
  Found k-point grid:         1         1         1
  Threshold value for wave function integration:  0.1000E-07
 
  Reading configuration options for species H                   .
  | Found nuclear charge :   1.0000
  | Found atomic mass :    1.00794000000000      amu
  | Found l_max for Hartree potential  :   4
  | Found cutoff potl. onset [A], width [A], scale factor :    3.50000    1.50000    1.00000
  | Threshold for basis-dependent cutoff potential is   0.100000E-03
  | Found data for basic radial integration grid :    24 points, outermost radius =    5.000 A
  | Found multiplier for basic radial grid :   1
  | Found angular grid specification: user-specified.
  | Specified grid contains     5 separate shells.
  | Check grid settings after all constraints further below.
  | Found free-atom valence shell :  1 s   1.000
  | No ionic wave fns used. Skipping ion_occ.
  | Found hydrogenic basis function :  2 s   2.100
  | Found hydrogenic basis function :  2 p   3.500
  Species H                   : Missing cutoff potential type.
  Defaulting to exp(1/x)/(1-x)^2 type cutoff potential.
  Species H : No 'logarithmic' tag. Using default grid for free atom:
  | Default logarithmic grid data [bohr] : 0.1000E-03 0.1000E+03 0.1012E+01
  Species H : On-site basis accuracy parameter (for Gram-Schmidt orthonormalisation) not specified.
  Using default value basis_acc =  0.1000000E-03.
  Species H                   : Using default innermost maximum threshold i_radial=  2 for radial functions.
  Species H                   : Default cutoff onset for free atom density etc. : 0.35000000E+01 AA.
  Species H                   : Basic radial grid will be enhanced according to radial_multiplier =   1, to contain    24 grid points.
 
  Reading configuration options for species O                   .
  | Found nuclear charge :   8.0000
  | Found atomic mass :    15.9994000000000      amu
  | Found l_max for Hartree potential  :   4
  | Found cutoff potl. onset [A], width [A], scale factor :    3.50000    1.50000    1.00000
  | Threshold for basis-dependent cutoff potential is   0.100000E-03
  | Found data for basic radial integration grid :    36 points, outermost radius =    5.000 A
  | Found multiplier for basic radial grid :   1
  | Found angular grid specification: user-specified.
  | Specified grid contains     5 separate shells.
  | Check grid settings after all constraints further below.
  | Found free-atom valence shell :  2 s   2.000
  | Found free-atom valence shell :  2 p   4.000
  | No ionic wave fns used. Skipping ion_occ.
  | No ionic wave fns used. Skipping ion_occ.
  | Found hydrogenic basis function :  2 p   1.800
  | Found hydrogenic basis function :  3 d   7.600
  | Found hydrogenic basis function :  3 s   6.400
  Species O                   : Missing cutoff potential type.
  Defaulting to exp(1/x)/(1-x)^2 type cutoff potential.
  Species O : No 'logarithmic' tag. Using default grid for free atom:
  | Default logarithmic grid data [bohr] : 0.1000E-03 0.1000E+03 0.1012E+01
  Species O : On-site basis accuracy parameter (for Gram-Schmidt orthonormalisation) not specified.
  Using default value basis_acc =  0.1000000E-03.
  Species O                   : Using default innermost maximum threshold i_radial=  2 for radial functions.
  Species O                   : Default cutoff onset for free atom density etc. : 0.35000000E+01 AA.
  Species O                   : Basic radial grid will be enhanced according to radial_multiplier =   1, to contain    36 grid points.
 
  Finished reading input file 'control.in'.
 
------------------------------------------------------------


------------------------------------------------------------
          Reading geometry description geometry.in.
------------------------------------------------------------
  | The smallest distance between any two atoms is         0.79992859 AA.
  | The first atom of this pair is atom number                     76 .
  | The second atom of this pair is atom number                    77 .
  | Wigner-Seitz cell of the first atom image           0     0     0 .
  | (The Wigner-Seitz cell of the second atom is 0 0 0  by definition.)

  Symmetry information by spglib:
  | Precision set to  0.1E-04
  | Number of Operations  : 1
  | Space group           : 1
  | International         : P1
  | Schoenflies           : C1^1
  Input structure read successfully.
  The structure contains       96 atoms,  and a total of        320.000 electrons.

  Input geometry:
  | Unit cell:
  |       10.11845000        0.00000000        0.00000000
  |        0.00000000       10.11845000        0.00000000
  |        0.00000000        0.00000000       10.11845000
  | Atomic structure:
  |       Atom                x [A]            y [A]            z [A]
  |    1: Species O             4.95024000       19.84470000       12.70360000
  |    2: Species H             4.52982000       19.40730000       11.88590000
  |    3: Species H             5.95187000       19.83820000       12.47690000
  |    4: Species O            12.36420000       27.26700000      -14.84340000
  |    5: Species H            11.79990000       27.91450000      -15.18480000
  |    6: Species H            13.13920000       27.30950000      -15.30250000
  |    7: Species O            21.10480000        8.85494000       -6.09223000
  |    8: Species H            21.10970000        9.67762000       -6.08099000
  |    9: Species H            20.22420000        8.71562000       -5.78116000
  |   10: Species O             3.59916000        8.78929000      -30.56890000
  |   11: Species H             3.99710000        9.59088000      -30.81750000
  |   12: Species H             4.05329000        8.06460000      -31.08500000
  |   13: Species O           -16.07840000        2.13993000       32.34600000
  |   14: Species H           -16.00050000        1.30503000       32.53710000
  |   15: Species H           -15.50740000        2.55892000       33.11280000
  |   16: Species O             4.45129000        4.65000000       -1.71078000
  |   17: Species H             5.24402000        4.67861000       -1.15514000
  |   18: Species H             3.86862000        4.29464000       -1.01028000
  |   19: Species O           -14.01730000        3.18254000        3.56988000
  |   20: Species H           -13.27360000        2.82336000        3.03062000
  |   21: Species H           -13.95390000        4.08811000        3.02407000
  |   22: Species O           -19.27750000       -4.31126000        7.41603000
  |   23: Species H           -20.04950000       -4.15774000        6.92162000
  |   24: Species H           -18.64750000       -4.05660000        6.67230000
  |   25: Species O             8.37635000      -11.09790000       14.90670000
  |   26: Species H             8.44803000      -10.26640000       15.35380000
  |   27: Species H             8.18341000      -10.86270000       14.00290000
  |   28: Species O             6.93818000       -4.72218000       -0.60047600
  |   29: Species H             7.27601000       -3.78226000       -0.45478300
  |   30: Species H             7.34685000       -4.90654000       -1.44329000
  |   31: Species O            13.89410000       -6.27098000        4.98404000
  |   32: Species H            14.74790000       -6.16590000        4.60784000
  |   33: Species H            13.79190000       -6.33474000        5.81311000
  |   34: Species O             8.50712000       -7.92553000      -17.83160000
  |   35: Species H             9.50984000       -8.00529000      -17.50130000
  |   36: Species H             8.76781000       -7.50167000      -18.67330000
  |   37: Species O             8.07142000       20.13850000       18.91460000
  |   38: Species H             8.54835000       20.79940000       18.23990000
  |   39: Species H             7.29700000       20.60110000       19.15570000
  |   40: Species O           -11.58310000       -4.07749000       23.03240000
  |   41: Species H           -10.67720000       -3.91048000       22.64270000
  |   42: Species H           -11.72050000       -3.10789000       23.13030000
  |   43: Species O            -2.48855000      -10.56590000      -18.12390000
  |   44: Species H            -2.20096000      -10.96050000      -18.94990000
  |   45: Species H            -1.92171000       -9.87191000      -18.02530000
  |   46: Species O            10.59200000       37.28910000       20.41570000
  |   47: Species H            11.53500000       37.44140000       20.91720000
  |   48: Species H            10.70980000       36.97920000       19.54630000
  |   49: Species O           -17.24350000      -18.64580000       -2.62187000
  |   50: Species H           -17.59310000      -19.43180000       -2.93576000
  |   51: Species H           -17.87470000      -18.22830000       -1.97056000
  |   52: Species O            -6.89171000       14.67530000       31.43780000
  |   53: Species H            -7.21774000       15.07610000       32.36160000
  |   54: Species H            -6.58011000       13.67130000       31.62660000
  |   55: Species O             1.91690000       29.02740000       -2.37149000
  |   56: Species H             2.40536000       28.27370000       -3.12520000
  |   57: Species H             2.26001000       28.98450000       -1.51216000
  |   58: Species O            -7.40484000      -19.44940000       -5.56515000
  |   59: Species H            -7.12466000      -18.54490000       -5.40932000
  |   60: Species H            -6.62516000      -20.04460000       -5.93110000
  |   61: Species O            15.04260000        7.37849000      -12.28200000
  |   62: Species H            15.83010000        7.46388000      -12.74440000
  |   63: Species H            14.75850000        6.47139000      -12.31180000
  |   64: Species O            15.73630000       35.74650000       12.36090000
  |   65: Species H            15.06440000       35.77750000       11.81220000
  |   66: Species H            16.43640000       36.21740000       12.03020000
  |   67: Species O            -8.40784000       25.22270000        3.55965000
  |   68: Species H            -7.57302000       24.95710000        4.09490000
  |   69: Species H            -8.68643000       26.23460000        4.09299000
  |   70: Species O           -15.41510000        7.13970000        4.09037000
  |   71: Species H           -15.46890000        8.06582000        3.73323000
  |   72: Species H           -15.04780000        6.44406000        3.37825000
  |   73: Species O            18.45820000       15.21270000       16.44010000
  |   74: Species H            17.99350000       15.78960000       15.90740000
  |   75: Species H            18.53010000       14.40820000       15.85940000
  |   76: Species O             0.44818200       -7.43390000       -5.78542000
  |   77: Species H             1.17967000       -7.67762000       -5.57232000
  |   78: Species H             0.60255400       -6.66840000       -6.25853000
  |   79: Species O           -15.07570000        1.23376000       29.25070000
  |   80: Species H           -15.73490000        1.46478000       28.53530000
  |   81: Species H           -14.57500000        2.00831000       29.57740000
  |   82: Species O            -1.15388000       -6.78618000       10.18650000
  |   83: Species H            -0.70609300       -7.07031000        9.44988000
  |   84: Species H            -1.47879000       -5.88007000       10.05810000
  |   85: Species O            11.33980000       -6.60911000      -21.56860000
  |   86: Species H            11.55240000       -6.20419000      -20.75300000
  |   87: Species H            10.99400000       -5.67129000      -21.94200000
  |   88: Species O            16.95060000       -2.90886000       -4.15921000
  |   89: Species H            16.05760000       -2.94180000       -4.30134000
  |   90: Species H            17.48970000       -2.05510000       -4.41675000
  |   91: Species O            28.20130000      -12.44930000       40.59330000
  |   92: Species H            28.05190000      -11.90970000       39.88390000
  |   93: Species H            29.05060000      -12.73930000       40.50370000
  |   94: Species O            18.67080000        1.48550000        5.72503000
  |   95: Species H            17.92010000        1.83177000        5.30650000
  |   96: Species H            19.57120000        2.02357000        5.56134000

  Lattice parameters for 3D lattice (in Angstroms) :    10.118450   10.118450   10.118450
  Angle(s) between unit vectors (in degrees)       :    90.000000   90.000000   90.000000


  Quantities derived from the lattice vectors (in Angstrom^-1):
  | Reciprocal lattice vector 1:  0.620963  0.000000  0.000000
  | Reciprocal lattice vector 2:  0.000000  0.620963  0.000000
  | Reciprocal lattice vector 3:  0.000000  0.000000  0.620963
  | Unit cell volume                               :   0.103596E+04  Angstrom^3

  Fractional coordinates:
                         L1                L2                L3
       atom_frac         0.48922908        1.96123912        1.25548874  O
       atom_frac         0.44767924        1.91801116        1.17467596  H
       atom_frac         0.58821954        1.96059673        1.23308412  H
       atom_frac         1.22194605        2.69478033       -1.46696381  O
       atom_frac         1.16617664        2.75877234       -1.50070416  H
       atom_frac         1.29853881        2.69898058       -1.51233638  H
       atom_frac         2.08577401        0.87512811       -0.60209123  O
       atom_frac         2.08625827        0.95643305       -0.60098039  H
       atom_frac         1.99874487        0.86135920       -0.57134838  H
       atom_frac         0.35570270        0.86863996       -3.02110501  O
       atom_frac         0.39503086        0.94786059       -3.04567399  H
       atom_frac         0.40058408        0.79701931       -3.07211085  H
       atom_frac        -1.58901808        0.21148793        3.19673468  O
       atom_frac        -1.58131927        0.12897529        3.21562097  H
       atom_frac        -1.53258651        0.25289644        3.27251704  H
       atom_frac         0.43991817        0.45955655       -0.16907530  O
       atom_frac         0.51826317        0.46238406       -0.11416175  H
       atom_frac         0.38233326        0.42443655       -0.09984533  H
       atom_frac        -1.38532087        0.31452841        0.35280898  O
       atom_frac        -1.31182147        0.27903088        0.29951425  H
       atom_frac        -1.37905509        0.40402532        0.29886692  H
       atom_frac        -1.90518311       -0.42607909        0.73292154  O
       atom_frac        -1.98147938       -0.41090681        0.68405932  H
       atom_frac        -1.84292061       -0.40091121        0.65941918  H
       atom_frac         0.82782936       -1.09679842        1.47321971  O
       atom_frac         0.83491345       -1.01462180        1.51740632  H
       atom_frac         0.80876122       -1.07355376        1.38389773  H
       atom_frac         0.68569593       -0.46669006       -0.05934466  O
       atom_frac         0.71908346       -0.37379836       -0.04494592  H
       atom_frac         0.72608453       -0.48491024       -0.14263944  H
       atom_frac         1.37314510       -0.61975698        0.49256951  O
       atom_frac         1.45752561       -0.60937199        0.45538991  H
       atom_frac         1.36304474       -0.62605834        0.57450598  H
       atom_frac         0.84075328       -0.78327511       -1.76228573  O
       atom_frac         0.93985146       -0.79115774       -1.72964239  H
       atom_frac         0.86651710       -0.74138529       -1.84547040  H
       atom_frac         0.79769332        1.99027519        1.86931793  O
       atom_frac         0.84482801        2.05559152        1.80263776  H
       atom_frac         0.72115788        2.03599366        1.89314569  H
       atom_frac        -1.14475043       -0.40297575        2.27627749  O
       atom_frac        -1.05522091       -0.38647026        2.23776369  H
       atom_frac        -1.15832959       -0.30715080        2.28595289  H
       atom_frac        -0.24594182       -1.04422120       -1.79117355  O
       atom_frac        -0.21751948       -1.08321927       -1.87280661  H
       atom_frac        -0.18992138       -0.97563461       -1.78142897  H
       atom_frac         1.04680065        3.68525812        2.01767069  O
       atom_frac         1.13999674        3.70030983        2.06723362  H
       atom_frac         1.05844275        3.65463090        1.93174844  H
       atom_frac        -1.70416418       -1.84275260       -0.25911775  O
       atom_frac        -1.73871492       -1.92043248       -0.29013930  H
       atom_frac        -1.76654527       -1.80149134       -0.19474920  H
       atom_frac        -0.68110333        1.45035060        3.10697785  O
       atom_frac        -0.71332467        1.48996141        3.19827642  H
       atom_frac        -0.65030810        1.35112591        3.12563683  H
       atom_frac         0.18944601        2.86875954       -0.23437285  O
       atom_frac         0.23772020        2.79427185       -0.30886154  H
       atom_frac         0.22335536        2.86451976       -0.14944581  H
       atom_frac        -0.73181564       -1.92217187       -0.55000025  O
       atom_frac        -0.70412563       -1.83278071       -0.53459967  H
       atom_frac        -0.65476036       -1.98099511       -0.58616685  H
       atom_frac         1.48665062        0.72921149       -1.21382228  O
       atom_frac         1.56447875        0.73765053       -1.25952097  H
       atom_frac         1.45857320        0.63956337       -1.21676739  H
       atom_frac         1.55520855        3.53280394        1.22161991  O
       atom_frac         1.48880510        3.53586765        1.16739224  H
       atom_frac         1.62439899        3.57934269        1.18893704  H
       atom_frac        -0.83094150        2.49274345        0.35179795  O
       atom_frac        -0.74843677        2.46649437        0.40469637  H
       atom_frac        -0.85847437        2.59274889        0.40450761  H
       atom_frac        -1.52346456        0.70561203        0.40424867  O
       atom_frac        -1.52878158        0.79713988        0.36895275  H
       atom_frac        -1.48716454        0.63686237        0.33387031  H
       atom_frac         1.82421221        1.50346150        1.62476466  O
       atom_frac         1.77828620        1.56047616        1.57211826  H
       atom_frac         1.83131804        1.42395327        1.56737445  H
       atom_frac         0.04429354       -0.73468763       -0.57176939  O
       atom_frac         0.11658604       -0.75877432       -0.55070885  H
       atom_frac         0.05955003       -0.65903375       -0.61852655  H
       atom_frac        -1.48992188        0.12193172        2.89082814  O
       atom_frac        -1.55507019        0.14476328        2.82012561  H
       atom_frac        -1.44043801        0.19848000        2.92311569  H
       atom_frac        -0.11403723       -0.67067387        1.00672534  O
       atom_frac        -0.06978272       -0.69875426        0.93392565  H
       atom_frac        -0.14614788       -0.58112359        0.99403565  H
       atom_frac         1.12070525       -0.65317415       -2.13161107  O
       atom_frac         1.14171637       -0.61315617       -2.05100584  H
       atom_frac         1.08653005       -0.56049000       -2.16851395  H
       atom_frac         1.67521705       -0.28748079       -0.41105209  O
       atom_frac         1.58696243       -0.29073623       -0.42509871  H
       atom_frac         1.72849597       -0.20310423       -0.43650460  H
       atom_frac         2.78711660       -1.23035643        4.01181011  O
       atom_frac         2.77235150       -1.17702810        3.94170056  H
       atom_frac         2.87105238       -1.25901694        4.00295500  H
       atom_frac         1.84522333        0.14681102        0.56580109  O
       atom_frac         1.77103212        0.18103267        0.52443803  H
       atom_frac         1.93420929        0.19998814        0.54962371  H

 
  Finished reading input file 'geometry.in'.
 

 
  Consistency checks for stacksize environment parameter are next.
 
  | Maximum stacksize for task 0: unlimited
  | Maximum stacksize for task 1: unlimited
  | Maximum stacksize for task 2: unlimited
  | Maximum stacksize for task 3: unlimited
  | Maximum stacksize for task 4: unlimited
  | Maximum stacksize for task 5: unlimited
  | Maximum stacksize for task 6: unlimited
  | Maximum stacksize for task 7: unlimited
  | Maximum stacksize for task 8: unlimited
  | Maximum stacksize for task 9: unlimited
  | Maximum stacksize for task 10: unlimited
  | Maximum stacksize for task 11: unlimited
  | Maximum stacksize for task 12: unlimited
  | Maximum stacksize for task 13: unlimited
  | Maximum stacksize for task 14: unlimited
  | Maximum stacksize for task 15: unlimited
  | Maximum stacksize for task 16: unlimited
  | Maximum stacksize for task 17: unlimited
  | Current stacksize for task 0: unlimited
  | Current stacksize for task 1: unlimited
  | Current stacksize for task 2: unlimited
  | Current stacksize for task 3: unlimited
  | Current stacksize for task 4: unlimited
  | Current stacksize for task 5: unlimited
  | Current stacksize for task 6: unlimited
  | Current stacksize for task 7: unlimited
  | Current stacksize for task 8: unlimited
  | Current stacksize for task 9: unlimited
  | Current stacksize for task 10: unlimited
  | Current stacksize for task 11: unlimited
  | Current stacksize for task 12: unlimited
  | Current stacksize for task 13: unlimited
  | Current stacksize for task 14: unlimited
  | Current stacksize for task 15: unlimited
  | Current stacksize for task 16: unlimited
  | Current stacksize for task 17: unlimited
 
  Consistency checks for the contents of control.in are next.
 
  MPI_IN_PLACE appears to work with this MPI implementation.
  | Keeping use_mpi_in_place .true. (see manual).
  Explicit treatment of the Coulomb operator is needed, but the RI method is not specified.
  Coulomb operator: Defaulting to 'LVL fast' resolution of identity - RI_type = LVL_fast
  Species H: Using default value for prodbas_acc =   1.000000E-06.
  Species H: Using default value max_l_prodbas =     6.
  Species O: Using default value for prodbas_acc =   1.000000E-06.
  Species O: Using default value max_l_prodbas =     6.
  Target number of points in a grid batch is not set.  Since GPU acceleration is enabled, defaulting to  200
  Method for grid partitioning is not set. Defaulting to parallel hash+maxmin partitioning.
  Batch size limit is not set. Defaulting to    200
  By default, will store active basis functions for each batch.
  If in need of memory, prune_basis_once .false. can be used to disable this option.
  communication_type for Hartree potential was not specified.
  Defaulting to calc_hartree .
  Defaulting to Pulay charge density mixer.
  Pulay mixer: Number of relevant iterations not set.
  Defaulting to    8 iterations.
  Pulay mixer: Number of initial linear mixing iterations not set.
  Defaulting to    0 iterations.
  Work space size for distributed Hartree potential not set.
  Defaulting to   0.200000E+03 MB.
  Mixing parameter for charge density mixing has not been set.
  Using default: charge_mix_param =     0.0500.
  The mixing parameter will be adjusted in iteration number     2 of the first full s.c.f. cycle only.
  Algorithm-dependent basis array size parameters:
  | n_max_pulay                         :        8
  Maximum number of self-consistency iterations not provided.
  Presetting  1000 iterations.
  Presetting      1001 iterations before the initial mixing cycle
  is restarted anyway using the sc_init_iter criterion / keyword.
  Presetting a factor      1.000 between actual scf density residual
  and density convergence criterion sc_accuracy_rho below which sc_init_iter
  takes no effect.
  Calculation of forces was not defined in control.in. No forces will be calculated.
  Geometry relaxation not requested: no relaxation will be performed.
  No accuracy limit for integral partition fn. given. Defaulting to  0.1000E-14.
  No occupation type (smearing scheme) given. Defaulting to Gaussian broadening, width =  0.1000E-01 eV.
  The width will be adjusted in iteration number     2 of the first full s.c.f. cycle only.
  S.C.F. convergence parameters will be adjusted in iteration number     2 of the first full s.c.f. cycle only.
  No accuracy for occupation numbers given. Defaulting to  0.1000E-12.
  No threshold value for occupation numbers given. Defaulting to  0.0000E+00.
  No accuracy for fermi level given. Defaulting to  0.1000E-19.
  Maximum # of iterations to find E_F not set. Defaulting to  200.
  Preferred method for the eigenvalue solver ('KS_method') not specified in 'control.in'.
  Calling BLACS routine to test compilation state
  Since ScaLAPACK support is enabled, defaulting to ELPA (via ELSI).
  Will not use alltoall communication since running on < 1024 CPUs.
  Threshold for basis singularities not set.
  Default threshold for basis singularities:  0.1000E-04
  partition_type (choice of integration weights) for integrals was not specified.
  | Using a version of the partition function of Stratmann and coworkers ('stratmann_sparse').
  | At each grid point, the set of atoms used to build the partition table is smoothly restricted to
  | only those atoms whose free-atom density would be non-zero at that grid point.
  Partitioning for Hartree potential was not defined. Using partition_type for integrals.
  | Adjusted default value of keyword multip_moments_threshold to:       0.10000000E-11
  | This value may affect high angular momentum components of the Hartree potential in periodic systems.
  Angular momentum expansion for Kerker preconditioner not set explicitly.
  | Using default value of   0
  No explicit requirement for turning off preconditioner.
  | By default, it will be turned off when the charge convergence reaches
  | sc_accuracy_rho  =   0.100000E-05
  No special mixing parameter while Kerker preconditioner is on.
  Using default: charge_mix_param =     0.0500.
  Threshold for auxiliary basis singularities not set.
  Default threshold for auxiliary basis singularities:  0.1000E-04
  No q(lm)/r^(l+1) cutoff set for long-range Hartree potential.
  | Using default value of  0.100000E-09 .
  | Verify using the multipole_threshold keyword.
  Defaulting to new monopole extrapolation.
  Density update method: automatic selection selected.
  Using density matrix based charge density update.
  Using density matrix based charge density update.
  Using packed matrix style: index .
  Defaulting to use time-reversal symmetry for k-point grid.
  Charge integration errors on the 3D integration grid will be compensated
  by explicit normalization and distribution of residual charges.
  Use the "compensate_multipole_errors" flag to change this behaviour.
  Default to 1D ("use_logsbt") integrations for auxiliary 2-center integrals.
  Default onset of logarithmic r-grid for SBT is -38.000000000000
  Default onset of logarithmic k-grid for SBT is -25.000000000000
  Default range of logarithmic r- and k-grid for SBT is  45.000000000000
  Default number of logarithmic r- and k-grid for SBT is   4096
  Default of use_2d_corr is to use the efficient 2D distribution where possible
 
  Consistency checks for the contents of geometry.in are next.
 

  Range separation radius for Ewald summation (hartree_convergence_parameter):      3.06958376 bohr.
  Number of empty states per atom not set in control.in .
  | Since you are using a method that relies on the unoccupied spectrum
  | (MP2,GW,RPA et al.), will use the full Hamiltonian size (see below)
  | as the max. possible number of states (occupied plus empty).

  Structure-dependent array size parameters: 
  | Maximum number of distinct radial functions  :        9
  | Maximum number of basis functions            :      768
  | Number of Kohn-Sham states (occupied + empty):      768
------------------------------------------------------------

  Performing system and environment tests:
  | Environment variable OMP_NUM_THREADS correctly set to 1.
  | Checking for ScaLAPACK...
  | Testing pdtran()...
  | All pdtran() tests passed.
CUDA runtime version: 11060
CUDA driver version: 11060
  Initializing GPUs...

  Number of GPUs available to MPI task         0 :   1
  Number of GPUs available to MPI task         1 :   1
  Number of GPUs available to MPI task         2 :   1
  Number of GPUs available to MPI task         3 :   1
  Number of GPUs available to MPI task         4 :   1
  Number of GPUs available to MPI task         5 :   1
  Number of GPUs available to MPI task         6 :   1
  Number of GPUs available to MPI task         7 :   1
  Number of GPUs available to MPI task         8 :   1
  Number of GPUs available to MPI task         9 :   1
  Number of GPUs available to MPI task        10 :   1
  Number of GPUs available to MPI task        11 :   1
  Number of GPUs available to MPI task        12 :   1
  Number of GPUs available to MPI task        13 :   1
  Number of GPUs available to MPI task        14 :   1
  Number of GPUs available to MPI task        15 :   1
  Number of GPUs available to MPI task        16 :   1
  Number of GPUs available to MPI task        17 :   1

  | MPI task         0, GPU activated = T, Device Name = NVIDIA A100-SXM4-80GB
  | MPI task         1, GPU activated = T, Device Name = NVIDIA A100-SXM4-80GB
  | MPI task         2, GPU activated = T, Device Name = NVIDIA A100-SXM4-80GB
  | MPI task         3, GPU activated = T, Device Name = NVIDIA A100-SXM4-80GB
  | MPI task         4, GPU activated = T, Device Name = NVIDIA A100-SXM4-80GB
  | MPI task         5, GPU activated = T, Device Name = NVIDIA A100-SXM4-80GB
  | MPI task         6, GPU activated = T, Device Name = NVIDIA A100-SXM4-80GB
  | MPI task         7, GPU activated = T, Device Name = NVIDIA A100-SXM4-80GB
  | MPI task         8, GPU activated = T, Device Name = NVIDIA A100-SXM4-80GB
  | MPI task         9, GPU activated = T, Device Name = NVIDIA A100-SXM4-80GB
  | MPI task        10, GPU activated = T, Device Name = NVIDIA A100-SXM4-80GB
  | MPI task        11, GPU activated = T, Device Name = NVIDIA A100-SXM4-80GB
  | MPI task        12, GPU activated = T, Device Name = NVIDIA A100-SXM4-80GB
  | MPI task        13, GPU activated = T, Device Name = NVIDIA A100-SXM4-80GB
  | MPI task        14, GPU activated = T, Device Name = NVIDIA A100-SXM4-80GB
  | MPI task        15, GPU activated = T, Device Name = NVIDIA A100-SXM4-80GB
  | MPI task        16, GPU activated = T, Device Name = NVIDIA A100-SXM4-80GB
  | MPI task        17, GPU activated = T, Device Name = NVIDIA A100-SXM4-80GB

------------------------------------------------------------
          Preparing all fixed parts of the calculation.
------------------------------------------------------------
  Determining machine precision:
    2.225073858507201E-308
  Setting up grids for atomic and cluster calculations.

  Creating wave function, potential, and density for free atoms.
  Runtime choices for atomic solver:
  | atomic solver xc        : PW-LDA
  | compute density gradient: 0
  | compute kinetic density : F

  Species: H

  List of occupied orbitals and eigenvalues:
    n    l              occ      energy [Ha]    energy [eV]
    1    0           1.0000        -0.232375        -6.3233


  Species: O

  List of occupied orbitals and eigenvalues:
    n    l              occ      energy [Ha]    energy [eV]
    1    0           2.0000       -18.757744      -510.4242
    2    0           2.0000        -0.870917       -23.6989
    2    1           4.0000        -0.337950        -9.1961


  Adding cutoff potential to free-atom effective potential.
  Creating fixed part of basis set: Ionic, confined, hydrogenic.
 
  H                    hydrogenic:
 
  List of hydrogenic basis orbitals: 
    n    l      effective z      eigenvalue [eV]  inner max. [A]     outer max. [A]     outer radius [A]   
    2    0         2.100000       -14.9728           0.193243           1.317208           4.696947
    2    1         3.500000       -41.6669           0.602369           0.602369           3.862494
 
 
  O                    hydrogenic:
 
  List of hydrogenic basis orbitals: 
    n    l      effective z      eigenvalue [eV]  inner max. [A]     outer max. [A]     outer radius [A]   
    2    1         1.800000       -10.9749           1.164242           1.164242           4.691341
    3    2         7.600000       -87.3180           0.624125           0.624125           3.413946
    3    0         6.400000       -61.9207           0.061167           1.081902           4.151495
 
  Creating atomic-like basis functions for current effective potential.

  Species H                   :

  List of atomic basis orbitals and eigenvalues:
    n    l      energy [Ha]    energy [eV]    outer radius [A]
    1    0        -0.232375        -6.3233       4.696947


  Species O                   :

  List of atomic basis orbitals and eigenvalues:
    n    l      energy [Ha]    energy [eV]    outer radius [A]
    1    0       -18.757744      -510.4242       1.830144
    2    0        -0.870917       -23.6989       4.578029
    2    1        -0.337950        -9.1961       4.634338

  Assembling full basis from fixed parts.
  | Species H :   atomic orbital   1 s accepted.
  | Species H :    hydro orbital   2 s accepted.
  | Species H :    hydro orbital   2 p accepted.
  | Species O :   atomic orbital   1 s accepted.
  | Species O :    hydro orbital   3 s accepted.
  | Species O :   atomic orbital   2 s accepted.
  | Species O :   atomic orbital   2 p accepted.
  | Species O :    hydro orbital   2 p accepted.
  | Species O :    hydro orbital   3 d accepted.
 
  Basis size parameters after reduction:
  | Total number of radial functions:        9
  | Total number of basis functions :      768
 
  Per-task memory consumption for arrays in subroutine allocate_ext:
  |           2.268304MB.
  Testing on-site integration grid accuracy.
  |  Species  Function  <phi|h_atom|phi> (log., in eV)  <phi|h_atom|phi> (rad., in eV)
           1        1                 -6.3245358373                 -6.3232436907
           1        2                 14.1326137532                 14.1384481100
           1        3                 25.3627025200                 25.3628451197
           2        4               -510.4241781764               -510.4240769407
           2        5                 14.9072942213                 14.9072945271
           2        6                -21.2004736474                -21.2005650551
           2        7                 -9.1962086505                 -9.1963509834
           2        8                  8.1896755006                  8.1702200081
           2        9                 45.7920584937                 45.7920228520

  Preparing densities etc. for the partition functions (integrals / Hartree potential).

  Preparations completed.
  max(cpu_time)          :      0.071 s.
  Wall clock time (cpu1) :      0.068 s.
------------------------------------------------------------

  Initializing index lists of integration centers etc. from given atomic structure:
  Mapping all atomic coordinates to central unit cell.

  Initializing the k-points
  Using symmetry for reducing the k-points
  | k-points reduced from:        1 to        1
  | Number of k-points                             :         1
  | Consuming          0 KiB for k_phase_exx.
  The eigenvectors in the calculations are REAL.
  | Number of basis functions in the Hamiltonian integrals :      4474
  | Number of basis functions in a single unit cell        :       768
  | Number of centers in hartree potential         :      2538
  | Number of centers in hartree multipole         :      1813
  | Number of centers in electron density summation:      1417
  | Number of centers in basis integrals           :      1493
  | Number of centers in integrals                 :       678
  | Number of centers in hamiltonian               :      1417
  | Consuming          0 KiB for k_phase.
  | Number of super-cells (origin) [n_cells]                     :         125
  | Number of super-cells (after PM_index) [n_cells]             :          28
  | Number of super-cells in hamiltonian [n_cells_in_hamiltonian]:          28
  | Size of matrix packed + index [n_hamiltonian_matrix_size] :      732375
  | Size of matrix packed + index (no_symmetry):     1463981

------------------------------------------------------------
          Begin self-consistency loop: Initialization.

          Date     :  20230221, Time     :  160053.510
------------------------------------------------------------
  | Estimated reciprocal-space cutoff momentum G_max:         3.07561317 bohr^-1 .
  | Reciprocal lattice points for long-range Hartree potential:    3406
  Using simple linear distribution as default method for k-point parallelism.
  * Using 18 tasks for Scalapack Eigenvalue solver.
  Detailed listing of tasks and assigned k-points:
   Task     0 k-point     1 on adag038
   Task     1 k-point     1 on adag038
   Task     2 k-point     1 on adag038
   Task     3 k-point     1 on adag038
   Task     4 k-point     1 on adag038
   Task     5 k-point     1 on adag038
   Task     6 k-point     1 on adag038
   Task     7 k-point     1 on adag038
   Task     8 k-point     1 on adag038
   Task     9 k-point     1 on adag038
   Task    10 k-point     1 on adag038
   Task    11 k-point     1 on adag038
   Task    12 k-point     1 on adag038
   Task    13 k-point     1 on adag038
   Task    14 k-point     1 on adag038
   Task    15 k-point     1 on adag038
   Task    16 k-point     1 on adag038
   Task    17 k-point     1 on adag038
  K-point:     1 Tasks:    18 split into      6 X      3 BLACS grid
  Calculating block size based on n_basis =          768  max_nprow =            6  max_npcol =            3
  ScaLAPACK block size set to:           16
  Allocating        0.250 MB for ovlp
  Allocating        0.250 MB for ham
  Allocating        0.250 MB for eigenvec
  Required Scalapack workspace - INTEGER:            1  REAL:             1
  Partitioning the integration grid into batches with parallel hashing+maxmin method.
  | Number of batches:     3840
  | Maximal batch size:     199
  | Minimal batch size:     100
  | Average batch size:     132.700
  | Standard deviation of batch sizes:      24.737

  Integration load balanced across    18 MPI tasks.
  Work distribution over tasks is as follows:
  Task     0 has      28280 integration points.
  Task     1 has      28316 integration points.
  Task     2 has      28399 integration points.
  Task     3 has      28323 integration points.
  Task     4 has      28245 integration points.
  Task     5 has      28276 integration points.
  Task     6 has      28279 integration points.
  Task     7 has      28300 integration points.
  Task     8 has      28319 integration points.
  Task     9 has      28343 integration points.
  Task    10 has      28299 integration points.
  Task    11 has      28320 integration points.
  Task    12 has      28367 integration points.
  Task    13 has      28341 integration points.
  Task    14 has      28365 integration points.
  Task    15 has      28273 integration points.
  Task    16 has      28264 integration points.
  Task    17 has      28259 integration points.
  Initializing partition tables, free-atom densities, potentials, etc. across the integration grid (initialize_grid_storage).
  | initialize_grid_storage: Actual outermost partition radius vs. multipole_radius_free
  | (-- VB: in principle, multipole_radius_free should be larger, hence this output)
  | Species        1: Confinement radius =              4.999999999999999 AA, multipole_radius_free =              5.054417573612229 AA.
  | Species        1: outer_partition_radius set to              5.054417573612229 AA .
  | Species        2: Confinement radius =              4.999999999999999 AA, multipole_radius_free =              5.048384829883283 AA.
  | Species        2: outer_partition_radius set to              5.048384829883283 AA .
  | The sparse table of interatomic distances needs       4562.45 kbyte instead of     17832.39 kbyte of memory.
  | Net number of integration points:   509568
  | of which are non-zero points    :   409152
  | Numerical average free-atom electrostatic potential    :     -5.03046031 eV
  Renormalizing the initial density to the exact electron count on the 3D integration grid.
  | Initial density: Formal number of electrons (from input files) :     320.0000000000
  | Integrated number of electrons on 3D grid     :     320.0015846631
  | Charge integration error                      :       0.0015846631
  | Normalization factor for density and gradient :       0.9999950480
  Renormalizing the free-atom superposition density to the exact electron count on the 3D integration grid.
  | Formal number of electrons (from input files) :     320.0000000000
  | Integrated number of electrons on 3D grid     :     320.0015846631
  | Charge integration error                      :       0.0015846631
  | Normalization factor for density and gradient :       0.9999950480
  Obtaining max. number of non-zero basis functions in each batch (get_n_compute_maxes).
  | Maximal number of non-zero basis functions:      391 in task     0
  | Maximal number of non-zero basis functions:      394 in task     1
  | Maximal number of non-zero basis functions:      407 in task     2
  | Maximal number of non-zero basis functions:      409 in task     3
  | Maximal number of non-zero basis functions:      381 in task     4
  | Maximal number of non-zero basis functions:      419 in task     5
  | Maximal number of non-zero basis functions:      389 in task     6
  | Maximal number of non-zero basis functions:      415 in task     7
  | Maximal number of non-zero basis functions:      399 in task     8
  | Maximal number of non-zero basis functions:      413 in task     9
  | Maximal number of non-zero basis functions:      409 in task    10
  | Maximal number of non-zero basis functions:      415 in task    11
  | Maximal number of non-zero basis functions:      406 in task    12
  | Maximal number of non-zero basis functions:      406 in task    13
  | Maximal number of non-zero basis functions:      413 in task    14
  | Maximal number of non-zero basis functions:      398 in task    15
  | Maximal number of non-zero basis functions:      421 in task    16
  | Maximal number of non-zero basis functions:      394 in task    17
  Integrating Hamiltonian matrix: batch-based integration.
  GPU acceleration will be used when integrating the Hamiltonian matrix.
  Reporting GPU memory usage by myid 0.  Note that it is likely not the only MPI task binding to its GPU!
  Allocating        1.223 MB on GPU for hamiltonian_shell
  Allocating        0.622 MB on GPU for wave
  Allocating        0.002 MB on GPU for partition
  Allocating        0.622 MB on GPU for h_times_psi
  Time summed over all CPUs for integration: real work       11.036 s, elapsed       11.390 s
  Deallocating memory used on GPU for Hamiltonian integration.
  Integrating overlap matrix.
  Time summed over all CPUs for integration: real work        8.574 s, elapsed        9.128 s
  Deallocating overlap matrix.

  Updating Kohn-Sham eigenvalues and eigenvectors using ELSI and the ELPA eigensolver.
  Singularity check in k-point 1 (analysis for other k-points may follow below):
  Overlap matrix is not singular
  | Lowest and highest eigenvalues :  0.2171E-02,  0.6996E+01
  Finished singularity check of overlap matrix
  | Time :     0.141 s
  Starting ELPA eigensolver (GPU)
  Finished Cholesky decomposition
  | Time :     0.007 s
  Finished transformation to standard eigenproblem
  | Time :     0.029 s
  Finished solving standard eigenproblem
  | Time :     0.202 s
  Finished back-transformation of eigenvectors
  | Time :     0.019 s

  Obtaining occupation numbers and electronic chemical potential using ELSI.
  | Note that, for insulating systems, the printed 'chemical potential' value is not uniquely defined.
  | It can be anywhere in the energy gap, as long as it correctly separates occupied and unoccupied states.
  | In systems with a gap, the physically relevant chemical potential is the VBM or HOMO.

  | Chemical potential (Fermi level):    -7.32572426 eV
  Writing Kohn-Sham eigenvalues.

  State    Occupation    Eigenvalue [Ha]    Eigenvalue [eV]
      1       2.00000         -18.937577         -515.31768
      2       2.00000         -18.921282         -514.87428
      3       2.00000         -18.919935         -514.83763
      4       2.00000         -18.916241         -514.73710
      5       2.00000         -18.907701         -514.50471
      6       2.00000         -18.904658         -514.42192
      7       2.00000         -18.894593         -514.14803
      8       2.00000         -18.889113         -513.99892
      9       2.00000         -18.889032         -513.99670
     10       2.00000         -18.888745         -513.98892
     11       2.00000         -18.884703         -513.87890
     12       2.00000         -18.880592         -513.76705
     13       2.00000         -18.878793         -513.71810
     14       2.00000         -18.876672         -513.66039
     15       2.00000         -18.876353         -513.65170
     16       2.00000         -18.876115         -513.64522
     17       2.00000         -18.870458         -513.49128
     18       2.00000         -18.868417         -513.43576
     19       2.00000         -18.867760         -513.41787
     20       2.00000         -18.864640         -513.33297
     21       2.00000         -18.863268         -513.29564
     22       2.00000         -18.863192         -513.29356
     23       2.00000         -18.862489         -513.27444
     24       2.00000         -18.861001         -513.23394
     25       2.00000         -18.859285         -513.18726
     26       2.00000         -18.857389         -513.13567
     27       2.00000         -18.855033         -513.07155
     28       2.00000         -18.854138         -513.04721
     29       2.00000         -18.851834         -512.98450
     30       2.00000         -18.850928         -512.95984
     31       2.00000         -18.839653         -512.65305
     32       2.00000         -18.833483         -512.48516
     33       2.00000          -1.206425          -32.82850
     34       2.00000          -1.185311          -32.25395
     35       2.00000          -1.175602          -31.98976
     36       2.00000          -1.161883          -31.61644
     37       2.00000          -1.160427          -31.57682
     38       2.00000          -1.153247          -31.38144
     39       2.00000          -1.140079          -31.02314
     40       2.00000          -1.133901          -30.85501
     41       2.00000          -1.130684          -30.76748
     42       2.00000          -1.125761          -30.63351
     43       2.00000          -1.123679          -30.57685
     44       2.00000          -1.117096          -30.39772
     45       2.00000          -1.114202          -30.31897
     46       2.00000          -1.112943          -30.28473
     47       2.00000          -1.108217          -30.15612
     48       2.00000          -1.105713          -30.08798
     49       2.00000          -1.098987          -29.90495
     50       2.00000          -1.095960          -29.82259
     51       2.00000          -1.092587          -29.73081
     52       2.00000          -1.090414          -29.67167
     53       2.00000          -1.088567          -29.62142
     54       2.00000          -1.087473          -29.59165
     55       2.00000          -1.085040          -29.52545
     56       2.00000          -1.081180          -29.42041
     57       2.00000          -1.080133          -29.39191
     58       2.00000          -1.076222          -29.28550
     59       2.00000          -1.074635          -29.24229
     60       2.00000          -1.071028          -29.14416
     61       2.00000          -1.062456          -28.91090
     62       2.00000          -1.061113          -28.87436
     63       2.00000          -1.045338          -28.44509
     64       2.00000          -1.033631          -28.12653
     65       2.00000          -0.734565          -19.98853
     66       2.00000          -0.732823          -19.94114
     67       2.00000          -0.725185          -19.73328
     68       2.00000          -0.709336          -19.30201
     69       2.00000          -0.702813          -19.12452
     70       2.00000          -0.691370          -18.81314
     71       2.00000          -0.687309          -18.70263
     72       2.00000          -0.679874          -18.50030
     73       2.00000          -0.676943          -18.42057
     74       2.00000          -0.670695          -18.25053
     75       2.00000          -0.664642          -18.08582
     76       2.00000          -0.664099          -18.07106
     77       2.00000          -0.662831          -18.03655
     78       2.00000          -0.655247          -17.83017
     79       2.00000          -0.652897          -17.76624
     80       2.00000          -0.649562          -17.67548
     81       2.00000          -0.646417          -17.58991
     82       2.00000          -0.639827          -17.41057
     83       2.00000          -0.637759          -17.35430
     84       2.00000          -0.634442          -17.26404
     85       2.00000          -0.632462          -17.21017
     86       2.00000          -0.631770          -17.19133
     87       2.00000          -0.622558          -16.94067
     88       2.00000          -0.621945          -16.92400
     89       2.00000          -0.619928          -16.86909
     90       2.00000          -0.616179          -16.76709
     91       2.00000          -0.614212          -16.71357
     92       2.00000          -0.611486          -16.63937
     93       2.00000          -0.609933          -16.59713
     94       2.00000          -0.599243          -16.30623
     95       2.00000          -0.597526          -16.25951
     96       2.00000          -0.587191          -15.97829
     97       2.00000          -0.583478          -15.87725
     98       2.00000          -0.579869          -15.77904
     99       2.00000          -0.571275          -15.54519
    100       2.00000          -0.567310          -15.43730
    101       2.00000          -0.559787          -15.23258
    102       2.00000          -0.558934          -15.20938
    103       2.00000          -0.554991          -15.10207
    104       2.00000          -0.551523          -15.00770
    105       2.00000          -0.547947          -14.91039
    106       2.00000          -0.547212          -14.89039
    107       2.00000          -0.543702          -14.79488
    108       2.00000          -0.540550          -14.70912
    109       2.00000          -0.536306          -14.59363
    110       2.00000          -0.535044          -14.55928
    111       2.00000          -0.532772          -14.49746
    112       2.00000          -0.531471          -14.46206
    113       2.00000          -0.531343          -14.45857
    114       2.00000          -0.526861          -14.33663
    115       2.00000          -0.519687          -14.14141
    116       2.00000          -0.518716          -14.11498
    117       2.00000          -0.515989          -14.04078
    118       2.00000          -0.514869          -14.01029
    119       2.00000          -0.513467          -13.97215
    120       2.00000          -0.512419          -13.94362
    121       2.00000          -0.510290          -13.88570
    122       2.00000          -0.508443          -13.83543
    123       2.00000          -0.505625          -13.75876
    124       2.00000          -0.503673          -13.70565
    125       2.00000          -0.502082          -13.66234
    126       2.00000          -0.499111          -13.58150
    127       2.00000          -0.495726          -13.48938
    128       2.00000          -0.492739          -13.40811
    129       2.00000          -0.488568          -13.29462
    130       2.00000          -0.487609          -13.26851
    131       2.00000          -0.484916          -13.19523
    132       2.00000          -0.484010          -13.17057
    133       2.00000          -0.478904          -13.03164
    134       2.00000          -0.475190          -12.93058
    135       2.00000          -0.473240          -12.87753
    136       2.00000          -0.471384          -12.82701
    137       2.00000          -0.469995          -12.78922
    138       2.00000          -0.469218          -12.76806
    139       2.00000          -0.466473          -12.69339
    140       2.00000          -0.465316          -12.66190
    141       2.00000          -0.464244          -12.63271
    142       2.00000          -0.462919          -12.59666
    143       2.00000          -0.458038          -12.46385
    144       2.00000          -0.456489          -12.42169
    145       2.00000          -0.454426          -12.36557
    146       2.00000          -0.452510          -12.31343
    147       2.00000          -0.451821          -12.29468
    148       2.00000          -0.449816          -12.24012
    149       2.00000          -0.447592          -12.17960
    150       2.00000          -0.446619          -12.15313
    151       2.00000          -0.445781          -12.13033
    152       2.00000          -0.444606          -12.09834
    153       2.00000          -0.443310          -12.06308
    154       2.00000          -0.442881          -12.05142
    155       2.00000          -0.442273          -12.03486
    156       2.00000          -0.440372          -11.98313
    157       2.00000          -0.436865          -11.88770
    158       2.00000          -0.433268          -11.78982
    159       2.00000          -0.431170          -11.73275
    160       2.00000          -0.427656          -11.63711
    161       0.00000          -0.171768           -4.67405
    162       0.00000          -0.118245           -3.21761
    163       0.00000          -0.116720           -3.17611
    164       0.00000          -0.112325           -3.05651
    165       0.00000          -0.105965           -2.88347
    166       0.00000          -0.103814           -2.82491
    167       0.00000          -0.094724           -2.57758
    168       0.00000          -0.079601           -2.16606
    169       0.00000          -0.072100           -1.96193
    170       0.00000          -0.066685           -1.81458
    171       0.00000          -0.064489           -1.75483
    172       0.00000          -0.059940           -1.63105
    173       0.00000          -0.058327           -1.58716
    174       0.00000          -0.057096           -1.55367
    175       0.00000          -0.050577           -1.37628
    176       0.00000          -0.044541           -1.21203
    177       0.00000          -0.039755           -1.08180
    178       0.00000          -0.033573           -0.91356
    179       0.00000          -0.026319           -0.71618
    180       0.00000          -0.022115           -0.60179
    181       0.00000          -0.017773           -0.48364
    182       0.00000          -0.012923           -0.35165
    183       0.00000          -0.009224           -0.25100
    184       0.00000           0.004839            0.13167
    185       0.00000           0.009954            0.27085
    186       0.00000           0.011446            0.31147
    187       0.00000           0.018302            0.49801
    188       0.00000           0.021750            0.59186
    189       0.00000           0.024680            0.67159
    190       0.00000           0.027437            0.74660
    191       0.00000           0.034989            0.95211
    192       0.00000           0.036767            1.00047
    193       0.00000           0.040389            1.09903
    194       0.00000           0.042785            1.16424
    195       0.00000           0.046977            1.27832
    196       0.00000           0.048815            1.32833
    197       0.00000           0.052185            1.42004
    198       0.00000           0.054836            1.49216
    199       0.00000           0.055973            1.52311
    200       0.00000           0.059865            1.62901
    201       0.00000           0.063747            1.73464
    202       0.00000           0.064778            1.76270
    203       0.00000           0.071182            1.93695
    204       0.00000           0.073667            2.00458
    205       0.00000           0.074035            2.01461
    206       0.00000           0.076216            2.07395
    207       0.00000           0.080701            2.19600
    208       0.00000           0.085038            2.31401
    209       0.00000           0.086466            2.35286
    210       0.00000           0.088184            2.39960
    211       0.00000           0.091235            2.48264
    212       0.00000           0.093134            2.53430
    213       0.00000           0.094941            2.58348
    214       0.00000           0.097708            2.65878
    215       0.00000           0.098772            2.68771
    216       0.00000           0.102417            2.78692
    217       0.00000           0.108274            2.94629
    218       0.00000           0.112908            3.07239
    219       0.00000           0.113908            3.09960
    220       0.00000           0.116222            3.16256
    221       0.00000           0.118383            3.22137
    222       0.00000           0.120847            3.28841
    223       0.00000           0.126987            3.45550
    224       0.00000           0.134231            3.65261
    225       0.00000           0.141938            3.86232
    226       0.00000           0.152499            4.14972
    227       0.00000           0.159014            4.32700
    228       0.00000           0.161767            4.40189
    229       0.00000           0.164556            4.47779
    230       0.00000           0.173261            4.71468
    231       0.00000           0.178044            4.84483
    232       0.00000           0.180482            4.91116
    233       0.00000           0.181715            4.94473
    234       0.00000           0.195380            5.31656
    235       0.00000           0.198835            5.41058
    236       0.00000           0.201722            5.48914
    237       0.00000           0.211867            5.76518
    238       0.00000           0.214787            5.84466
    239       0.00000           0.217948            5.93067
    240       0.00000           0.224754            6.11587
    241       0.00000           0.230680            6.27711
    242       0.00000           0.231942            6.31148
    243       0.00000           0.239707            6.52277
    244       0.00000           0.239721            6.52315
    245       0.00000           0.246485            6.70721
    246       0.00000           0.257816            7.01552
    247       0.00000           0.264655            7.20164
    248       0.00000           0.270219            7.35305
    249       0.00000           0.274025            7.45659
    250       0.00000           0.277011            7.53786
    251       0.00000           0.282882            7.69761
    252       0.00000           0.291184            7.92351
    253       0.00000           0.300186            8.16847
    254       0.00000           0.300412            8.17462
    255       0.00000           0.308921            8.40617
    256       0.00000           0.315481            8.58466
    257       0.00000           0.322180            8.76697
    258       0.00000           0.326863            8.89438
    259       0.00000           0.334605            9.10507
[...]
  |    H      0     4.527807 A      4.527807 A        1.268855E-16 a.u.
  |    H      0     4.527807 A      4.583499 A       -4.900954E-17 a.u.
  |    H      0     4.527807 A      4.583499 A        4.713786E-16 a.u.
  |    H      2     3.678162 A  2.180220E+05 A            0.556529 a.u.
  |    H      1     3.958095 A  1.721251E+08 A            0.841931 a.u.
  |    H      0     4.527807 A  3.866455E+16 A            0.581436 a.u.
  |    O      0     2.043000 A      2.043000 A       -1.436841E-16 a.u.
  |    O      3     3.498446 A      3.498446 A        3.043453E-17 a.u.
  |    O      3     3.498446 A      3.498446 A        1.541443E-16 a.u.
  |    O      0     3.905335 A      3.905335 A        2.173090E-16 a.u.
  |    O      0     3.905335 A      3.905335 A        7.213445E-17 a.u.
  |    O      0     4.101052 A      4.101052 A        2.361718E-16 a.u.
  |    O      1     4.101052 A      4.101052 A        3.235185E-17 a.u.
  |    O      0     4.359549 A      4.359549 A       -5.329475E-17 a.u.
  |    O      1     4.413171 A      4.413171 A        3.261883E-17 a.u.
  |    O      1     4.522403 A      4.522403 A        6.417997E-16 a.u.
  |    O      1     4.522403 A      4.522403 A        4.224783E-16 a.u.
  |    O      2     4.522403 A      4.522403 A       -4.387647E-16 a.u.
  |    O      0     4.522403 A      4.578029 A        2.602039E-16 a.u.
  |    O      0     4.578029 A      4.578029 A        1.226235E-16 a.u.
  |    O      1     4.578029 A      4.578029 A       -6.107316E-16 a.u.
  |    O      1     4.578029 A      4.578029 A       -2.224438E-16 a.u.
  |    O      2     4.578029 A      4.578029 A       -7.020279E-16 a.u.
  |    O      2     4.522403 A      4.578029 A        1.323470E-15 a.u.
  |    O      2     4.578029 A      4.578029 A        7.923696E-16 a.u.
  |    O      2     4.522403 A      4.578029 A       -9.951815E-16 a.u.
  |    O      0     4.578029 A      4.634338 A       -8.813582E-18 a.u.
  |    O      1     4.578029 A      4.634338 A       -3.325386E-17 a.u.
  |    O      1     4.634338 A      4.634338 A        9.588032E-16 a.u.
  |    O      2     4.578029 A      4.634338 A        1.064715E-17 a.u.
  |    O      2     4.578029 A      4.634338 A       -3.770343E-15 a.u.
  |    O      4     3.251020 A  1.511584E+03 A            1.513372 a.u.
  |    O      3     3.541477 A  1.434166E+04 A            4.293220 a.u.
  |    O      2     4.634338 A  5.584435E+05 A            9.352428 a.u.
  |    O      1     4.634338 A  2.821283E+08 A            2.261940 a.u.
  |    O      0     4.578029 A  4.264100E+16 A            0.641234 a.u.

  | Shrink_full_auxil_basis : there are       38  radial auxiliary wave functions
                            accepted and       5 rejected.
  | Shrink_full_auxil_basis : there are totally                4544 partial auxiliary wave functions.
 
  | Maximal number of product basis functions per thread :   256   256
 
  | Minimal total memory requirement for three-center overlap :      10.450 Gbs
  | Number of local auxiliary basis functions on task:      0   256
  | Number of local auxiliary basis functions on task:      1   256
  | Number of local auxiliary basis functions on task:      2   256
  | Number of local auxiliary basis functions on task:      3   256
  | Number of local auxiliary basis functions on task:      4   256
  | Number of local auxiliary basis functions on task:      5   256
  | Number of local auxiliary basis functions on task:      6   256
  | Number of local auxiliary basis functions on task:      7   256
  | Number of local auxiliary basis functions on task:      8   256
  | Number of local auxiliary basis functions on task:      9   256
  | Number of local auxiliary basis functions on task:     10   256
  | Number of local auxiliary basis functions on task:     11   256
  | Number of local auxiliary basis functions on task:     12   256
  | Number of local auxiliary basis functions on task:     13   256
  | Number of local auxiliary basis functions on task:     14   240
  | Number of local auxiliary basis functions on task:     15   240
  | Number of local auxiliary basis functions on task:     16   240
  | Number of local auxiliary basis functions on task:     17   240
  | 2D aux task distribution:      3 X      6
  | 2D block size (nb_aux_2d):     64
 
  Basis pair condensation :    295296  -->     208169
 
 --------------------------------------------
  Constructing auxiliary basis (full product) ...
 
  Product basis:
  | charge radius: extent of product basis function
  | field radius: extent of its Coulomb potential
  | Species   l  charge radius    field radius  multipol momen
  |    H      1     3.910002 A      3.910002 A       -2.487223E-16 a.u.
  |    H      1     3.958095 A      3.958095 A       -2.441841E-16 a.u.
  |    H      0     4.527807 A      4.527807 A        1.268855E-16 a.u.
  |    H      0     4.527807 A      4.583499 A       -4.900954E-17 a.u.
  |    H      0     4.527807 A      4.583499 A        4.713786E-16 a.u.
  |    H      2     3.678162 A  2.180220E+05 A            0.556529 a.u.
  |    H      1     3.958095 A  1.721251E+08 A            0.841931 a.u.
  |    H      0     4.527807 A  3.866455E+16 A            0.581436 a.u.
  |    O      0     2.043000 A      2.043000 A       -1.436841E-16 a.u.
  |    O      3     3.498446 A      3.498446 A        3.043453E-17 a.u.
  |    O      3     3.498446 A      3.498446 A        1.541443E-16 a.u.
  |    O      0     3.905335 A      3.905335 A        2.173090E-16 a.u.
  |    O      0     3.905335 A      3.905335 A        7.213445E-17 a.u.
  |    O      0     4.101052 A      4.101052 A        2.361718E-16 a.u.
  |    O      1     4.101052 A      4.101052 A        3.235185E-17 a.u.
  |    O      0     4.359549 A      4.359549 A       -5.329475E-17 a.u.
  |    O      1     4.413171 A      4.413171 A        3.261883E-17 a.u.
  |    O      1     4.522403 A      4.522403 A        6.417997E-16 a.u.
  |    O      1     4.522403 A      4.522403 A        4.224783E-16 a.u.
  |    O      2     4.522403 A      4.522403 A       -4.387647E-16 a.u.
  |    O      0     4.522403 A      4.578029 A        2.602039E-16 a.u.
  |    O      0     4.578029 A      4.578029 A        1.226235E-16 a.u.
  |    O      1     4.578029 A      4.578029 A       -6.107316E-16 a.u.
  |    O      1     4.578029 A      4.578029 A       -2.224438E-16 a.u.
  |    O      2     4.578029 A      4.578029 A       -7.020279E-16 a.u.
  |    O      2     4.522403 A      4.578029 A        1.323470E-15 a.u.
  |    O      2     4.578029 A      4.578029 A        7.923696E-16 a.u.
  |    O      2     4.522403 A      4.578029 A       -9.951815E-16 a.u.
  |    O      0     4.578029 A      4.634338 A       -8.813582E-18 a.u.
  |    O      1     4.578029 A      4.634338 A       -3.325386E-17 a.u.
  |    O      1     4.634338 A      4.634338 A        9.588032E-16 a.u.
  |    O      2     4.578029 A      4.634338 A        1.064715E-17 a.u.
  |    O      2     4.578029 A      4.634338 A       -3.770343E-15 a.u.
  |    O      4     3.251020 A  1.511584E+03 A            1.513372 a.u.
  |    O      3     3.541477 A  1.434166E+04 A            4.293220 a.u.
  |    O      2     4.634338 A  5.584435E+05 A            9.352428 a.u.
  |    O      1     4.634338 A  2.821283E+08 A            2.261940 a.u.
  |    O      0     4.578029 A  4.264100E+16 A            0.641234 a.u.

  | Shrink_full_auxil_basis : there are       38  radial auxiliary wave functions
                            accepted and       5 rejected.
  | Shrink_full_auxil_basis : there are totally                4544 partial auxiliary wave functions.
 
  | Maximal number of product basis functions per thread :   256   256
 
  | Minimal total memory requirement for three-center overlap :      10.450 Gbs
  | Number of local auxiliary basis functions on task:      0   256
  | Number of local auxiliary basis functions on task:      1   256
  | Number of local auxiliary basis functions on task:      2   256
  | Number of local auxiliary basis functions on task:      3   256
  | Number of local auxiliary basis functions on task:      4   256
  | Number of local auxiliary basis functions on task:      5   256
  | Number of local auxiliary basis functions on task:      6   256
  | Number of local auxiliary basis functions on task:      7   256
  | Number of local auxiliary basis functions on task:      8   256
  | Number of local auxiliary basis functions on task:      9   256
  | Number of local auxiliary basis functions on task:     10   256
  | Number of local auxiliary basis functions on task:     11   256
  | Number of local auxiliary basis functions on task:     12   256
  | Number of local auxiliary basis functions on task:     13   256
  | Number of local auxiliary basis functions on task:     14   240
  | Number of local auxiliary basis functions on task:     15   240
  | Number of local auxiliary basis functions on task:     16   240
  | Number of local auxiliary basis functions on task:     17   240
  | 2D aux task distribution:      3 X      6
  | 2D block size (nb_aux_2d):     64
 
  Basis pair condensation :    295296  -->     208169
dP_dE (Bohr^3) at every cycle:--->
 (337.507042072787,0.000000000000000E+000) (0.835113670143946,0.000000000000000E+000) (-4.16487821041384,0.000000000000000E+000)
 (0.838688197728934,0.000000000000000E+000) (347.260424411348,0.000000000000000E+000) (4.18724040828349,0.000000000000000E+000)
 (-4.16040640686058,0.000000000000000E+000) (4.19885781296858,0.000000000000000E+000) (332.066177645427,0.000000000000000E+000)
DFPT polarizability (Bohr^3)        xx        yy        zz        xy        xz        yz
  | Polarizability:--->                       337.507042073                  347.260424411                  332.066177645                    0.835113670                   -4.164878210                    4.187240408

DFPT for dielectric_constant:--->  # PARSE DFPT_dielectric_tensor
               1.606672249121747             0.001501125088908            -0.007486409811517
               0.001507550337626             1.624204050424439             0.007526606083552
              -0.007478371700364             0.007547488483475             1.596892241454231

                                               :  max(cpu_time)    wall_clock(cpu1)
  | Time for  dielectric calculation            :        0.000 s           0.000 s
===========================================================================

------------------------------------------------------------------------------
  Final output of selected total energy values:

  The following output summarizes some interesting total energy values
  at the end of a run (AFTER all relaxation, molecular dynamics, etc.).

  | Total energy of the DFT / Hartree-Fock s.c.f. calculation      :         -66107.583034154 eV
  | Final zero-broadening corrected energy (caution - metals only) :         -66107.583034154 eV
  | For reference only, the value of 1 Hartree used in FHI-aims is :             27.211384500 eV
  | For reference only, the overall average (free atom contribution
  | + realspace contribution) of the electrostatic potential after
  | s.c.f. convergence is                                          :             -4.620869494 eV

  Before relying on these values, please be sure to understand exactly which
  total energy value is referred to by a given number. Different objects may
  all carry the same name 'total energy'. Definitions:

  Total energy of the DFT / Hartree-Fock s.c.f. calculation:
  | Note that this energy does not include ANY quantities calculated after the
  | s.c.f. cycle, in particular not ANY RPA, MP2, etc. many-body perturbation terms.

  Final zero-broadening corrected energy:
  | For metallic systems only, a broadening of the occupation numbers at the Fermi
  | level can be extrapolated back to zero broadening by an electron-gas inspired
  | formula. For all systems that are not real metals, this value can be
  | meaningless and should be avoided.

------------------------------------------------------------------------------
  Methods described in the following list of references were used in this FHI-aims run.
  If you publish the results, please make sure to cite these reference if they apply.
  FHI-aims is an academic code, and for our developers (often, Ph.D. students
  and postdocs), scientific credit in the community is essential.
  Thank you for helping us!

  For any use of FHI-aims, please cite:

    Volker Blum, Ralf Gehrke, Felix Hanke, Paula Havu, Ville Havu,
    Xinguo Ren, Karsten Reuter, and Matthias Scheffler
    'Ab initio molecular simulations with numeric atom-centered orbitals'
    Computer Physics Communications 180, 2175-2196 (2009)
    http://doi.org/10.1016/j.cpc.2009.06.022


  For Hartree-Fock, hybrid functionals, or many-body perturbation theory used in your run, please cite:

    Xinguo Ren, Patrick Rinke, Volker Blum, Juergen Wieferink, Alex Tkatchenko,
    Andrea Sanfilippo, Karsten Reuter, and Matthias Scheffler,
    'Resolution-of-identity approach to Hartree-Fock, hybrid density functionals,
    RPA, MP2, and GW with numeric atom-centered orbital basis functions'
    New Journal of Physics 14, 053020 (2012).
    http://doi.org/10.1088/1367-2630/14/5/053020


  The provided symmetry information was generated with SPGlib:

    Atsushi Togo, Yusuke Seto, Dimitar Pashov
    SPGlib 1.7.3 obtained from http://spglib.sourceforge.net
    Copyright (C) 2008 Atsushi Togo


  The DFPT (perturbation by an electric field) part of the code was used.
  Here is the corresponding reference:

    Honghui Shang, Nathaniel Raimbault, Mariana Rossi,
    Christian Carbogno, Patrick Rinke and Matthias Scheffler,
    'All-Electron, Real-Space Perturbation Theory for Homogeneous
    Electric Fields: Theory, Implementation, and Application within dft'
    New Journal of Physics, 20(7):073040, 2018


  The ELSI infrastructure was used in your run to solve the Kohn-Sham electronic structure.
  Please check out http://elsi-interchange.org to learn more.
  If scalability is important for your project, please acknowledge ELSI by citing:

    V. W-z. Yu, F. Corsetti, A. Garcia, W. P. Huhn, M. Jacquelin, W. Jia,
    B. Lange, L. Lin, J. Lu, W. Mi, A. Seifitokaldani, A. Vazquez-Mayagoitia,
    C. Yang, H. Yang, and V. Blum
    'ELSI: A unified software interface for Kohn-Sham electronic structure solvers'
    Computer Physics Communications 222, 267-285 (2018).
    http://doi.org/10.1016/j.cpc.2017.09.007


  For the real-space grid partitioning and parallelization used in this calculation, please cite:

    Ville Havu, Volker Blum, Paula Havu, and Matthias Scheffler,
    'Efficient O(N) integration for all-electron electronic structure calculation'
    'using numerically tabulated basis functions'
    Journal of Computational Physics 228, 8367-8379 (2009).
    http://doi.org/10.1016/j.jcp.2009.08.008


  The high-level electronic structure method used in your calculation
  employed our efficient localized resolution of identity for the Coulomb operator.
  Some calculations, especially large-scale hybrid density functional theory,
  are only possible thanks to this development. For this feature, please cite:

    Arvid Ihrig, Juergen Wieferink, Igor Ying Zhang, Matti Ropo, Xinguo Ren,
    Patrick Rinke, Matthias Scheffler, and Volker Blum,
    'Accurate localized resolution of identity approach for linear-scaling
    hybrid density functionals and for many-body perturbation theory'
    New Journal of Physics 117, 093020 (2015).
    http://doi.org/10.1088/1367-2630/17/9/093020

  Of course, there are many other important community references, e.g., those cited in the
  above references. Our list is limited to references that describe implementations in the
  FHI-aims code. The reason is purely practical (length of this list) - please credit others as well.

------------------------------------------------------------
          Leaving FHI-aims.
          Date     :  20230221, Time     :  160756.588

          Computational steps:
          | Number of self-consistency cycles          :           45
          | Number of SCF (re)initializations          :            1
          | Number of coupled perturbed self-consistency cycles          :            0
          | Number of CPSCF (re)initializations          :            0

          Detailed time accounting                     :  max(cpu_time)    wall_clock(cpu1)
          | Total time                                  :      416.128 s         434.536 s
          | GPU initialization                          :        2.144 s           9.944 s
          | Preparation time                            :        0.071 s           0.068 s
          | Boundary condition initalization            :        1.354 s           1.354 s
          | Grid partitioning                           :        0.450 s           0.450 s
          | Preloading free-atom quantities on grid     :        2.158 s           2.159 s
          | Free-atom superposition energy              :        0.293 s           0.294 s
          | Total time for integrations                 :       13.704 s          14.075 s
          | Product basis setup: Total time             :        0.000 s           0.000 s
          | Product basis: | 2-center integrations     :(       0.000 s)  (       0.000 s)
          | Product basis: | LVL 3-center & coefficient:(       0.000 s)  (       0.000 s)
          | Total time for solution of K.-S. equations  :        4.284 s          13.161 s
          | Total time for density update               :        9.958 s          10.512 s
          | Total time for mixing & preconditioning     :        8.325 s           8.329 s
          | Total time for Hartree multipole update     :        0.103 s           0.102 s
          | Total time for Hartree multipole sum        :       35.938 s          35.954 s
          | Total time for total energy evaluation      :        0.005 s           0.009 s
          | Total time for DFPT                         :      336.784 s         336.893 s
          | Total time first_order_DM                   :        0.280 s           0.275 s
          | Total time first_order_density              :       68.993 s          69.001 s
          | Total time first_order_potential            :       50.699 s          50.718 s
          | Total time first_order_H                    :      136.901 s         136.945 s
          | Total time solving of Sternheimer equations :        0.186 s           0.188 s
          | Total time for dielectric constant          :        0.000 s           0.000 s
          | Total time momentum matrix                  :        0.000 s           0.000 s

          GPU acceleration has been used for charge density update.
          GPU acceleration has been used for real-space Hamiltonian integration.
          Due to GPU usage, wall_clock(cpu1) will give a more reliable estimate for timings.

          Partial memory accounting:
          | Residual value for overall tracked memory usage across tasks:     0.000000 MB (should be 0.000000 MB)
          | Peak values for overall tracked memory usage:
          |   Minimum:      109.710 MB (on task  0 after allocating DFPT_pulay_mixing::pulay_mix::alphas)
          |   Maximum:      109.710 MB (on task  0 after allocating DFPT_pulay_mixing::pulay_mix::alphas)
          |   Average:      109.710 MB
          | Largest tracked array allocation:
          |   Minimum:       39.113 MB (DFPT_pulay_mixing::initialize_pulay_mixing::X_in_diffs on task  0)
          |   Maximum:       39.113 MB (DFPT_pulay_mixing::initialize_pulay_mixing::X_in_diffs on task  0)
          |   Average:       39.113 MB
          Note:  These values currently only include a subset of arrays which are explicitly tracked.
          The "true" memory usage will be greater.

          Have a nice day.
------------------------------------------------------------
