------------------------------------------------------------
          Invoking FHI-aims ...

          When using FHI-aims, please cite the following reference:

            Volker Blum, Ralf Gehrke, Felix Hanke, Paula Havu,
            Ville Havu, Xinguo Ren, Karsten Reuter, and Matthias Scheffler,
            'Ab Initio Molecular Simulations with Numeric Atom-Centered Orbitals',
            Computer Physics Communications 180, 2175-2196 (2009)

          In addition, many other developments in FHI-aims are likely important for
          your particular application. A partial list of references is given at the end of
          this file. Thank you for giving credit to the authors of these developments.

          For any questions about FHI-aims, please visit our slack channel at

            https://fhi-aims.slack.com

          and our main development and support site at

            https://aims-git.rz-berlin.mpg.de .

          The latter site, in particular, has a wiki to collect information, as well
          as an issue tracker to log discussions, suggest improvements, and report issues
          or bugs. https://aims-git.rz-berlin.mpg.de is also the main development site
          of the project and all new and updated code versions can be obtained there.
          Please send an email to aims-coordinators@fhi-berlin.mpg.de and we will add
          you to these sites. They are for you and everyone is welcome there.

------------------------------------------------------------



  Date     :  20230221, Time     :  130936.127
  Time zero on CPU 1             :   0.466580000000000E+00  s.
  Internal wall clock time zero  :           446216976.127  s.

  FHI-aims created a unique identifier for this run for later identification
  aims_uuid : 1702CB82-B884-4999-A90A-89DA5C2BFC93

  Build configuration of the current instance of FHI-aims
  -------------------------------------------------------
  FHI-aims version      : 221103
  Commit number         : 42523251a
  CMake host system     : Linux-5.3.18-150300.59.68-default
  CMake version         : 3.17.0
  Fortran compiler      : /mpcdf/soft/SLE_15/packages/x86_64/intel_oneapi/2021.3/mpi/2021.3.0/bin/mpiifort (Intel) version 20.2.3.20210609
  Fortran compiler flags: -O3 -ip -fp-model precise
  C compiler            : /mpcdf/soft/SLE_15/packages/x86_64/intel/2021.3.0/bin/icc (Intel) version 20.2.3.20210609
  C compiler flags      : -O3 -ip -fp-model precise -std=gnu99
  CUDA compiler         : /mpcdf/soft/SLE_15/packages/x86_64/cuda/11.6.2/bin/nvcc
  CUDA compiler flags   : -O3 -DAdd_ -lcublas
  HIP compiler          :
  HIP compiler flags    :
  HIP GPU arch          :
  ELPA2 kernel          : AVX512
  Using MPI
  Using ScaLAPACK
  Using LibXC
  Using CUDA
  Using i-PI
  Using RLSY
  Linking against: /mpcdf/soft/SLE_15/packages/x86_64/cuda/11.6.2/lib64/libcublas.so
                   /mpcdf/soft/SLE_15/packages/x86_64/cuda/11.6.2/lib64/libcudart.so
                   /mpcdf/soft/SLE_15/packages/x86_64/intel_oneapi/2021.3/mkl/latest/lib/intel64/libmkl_intel_lp64.so
                   /mpcdf/soft/SLE_15/packages/x86_64/intel_oneapi/2021.3/mkl/latest/lib/intel64/libmkl_sequential.so
                   /mpcdf/soft/SLE_15/packages/x86_64/intel_oneapi/2021.3/mkl/latest/lib/intel64/libmkl_core.so
                   /mpcdf/soft/SLE_15/packages/x86_64/intel_oneapi/2021.3/mkl/latest/lib/intel64/libmkl_blacs_intelmpi_lp64.so
                   /mpcdf/soft/SLE_15/packages/x86_64/intel_oneapi/2021.3/mkl/latest/lib/intel64/libmkl_scalapack_lp64.so

  Using       18 parallel tasks.
  Task        0 on host adag038 reporting.
  Task        1 on host adag038 reporting.
  Task        2 on host adag038 reporting.
  Task        3 on host adag038 reporting.
  Task        4 on host adag038 reporting.
  Task        5 on host adag038 reporting.
  Task        6 on host adag038 reporting.
  Task        7 on host adag038 reporting.
  Task        8 on host adag038 reporting.
  Task        9 on host adag038 reporting.
  Task       10 on host adag038 reporting.
  Task       11 on host adag038 reporting.
  Task       12 on host adag038 reporting.
  Task       13 on host adag038 reporting.
  Task       14 on host adag038 reporting.
  Task       15 on host adag038 reporting.
  Task       16 on host adag038 reporting.
  Task       17 on host adag038 reporting.

  Obtaining array dimensions for all initial allocations:
  
  -----------------------------------------------------------------------
  Parsing control.in (first pass over file, find array dimensions only).
  The contents of control.in will be repeated verbatim below
  unless switched off by setting 'verbatim_writeout .false.' .
  in the first line of control.in .
  -----------------------------------------------------------------------
  
  #########################################################################################
  #
  #  Volker Blum, 2017 : Test run input file control.in for simple H2O
  #
  #########################################################################################
  #
  #  Physical model
  #
    xc                 pw-lda
    spin               none
    relativistic       none
    charge             0.
  
    use_gpu
  
    DFPT dielectric
    ri_density_restart write
    ri_rho1 write
  #  ri_density_restart read 0
  #  ri_rho1 read
    ri_full_output .true.
    sc_accuracy_rho    1d-6
  #  use_calculate_fock_matrix_old .false.
  #  wave_threshold 1e-8
    k_grid 1 1 1
  #  output cube eigenstate 160
  #  output cube eigenstate 161
    wave_threshold 1e-8
    default_prodbas_acc 1e-6
    default_max_l_prodbas 6
  #
  #  Relaxation
  #
  #  relax_geometry   bfgs 1.e-2
  #
  
  ################################################################################
  
  
  ################################################################################
  #
  #  FHI-aims code project
  #  VB, Fritz-Haber Institut, 2009
  #
  #  Suggested "light" defaults for H atom (to be pasted into control.in file)
  #  Be sure to double-check any results obtained with these settings for post-processing,
  #  e.g., with the "tight" defaults and larger basis sets.
  #
  ################################################################################
    species        H
  #     global species definitions
      nucleus             1
      mass                1.00794
  #
      l_hartree           4
  #
      cut_pot             3.5  1.5  1.0
      basis_dep_cutoff    1e-4
  #
      radial_base         24 5.0
      radial_multiplier   1
      angular_grids       specified
        division   0.2421   50
        division   0.3822  110
        division   0.4799  194
        division   0.5341  302
  #      division   0.5626  434
  #      division   0.5922  590
  #      division   0.6542  770
  #      division   0.6868 1202
  #      outer_grid  770
        outer_grid  302
  ################################################################################
  #
  #  Definition of "minimal" basis
  #
  ################################################################################
  #     valence basis states
      valence      1  s   1.
  #     ion occupancy
      ion_occ      1  s   0.5
  ################################################################################
  #
  #  Suggested additional basis functions. For production calculations,
  #  uncomment them one after another (the most important basis functions are
  #  listed first).
  #
  #  Basis constructed for dimers: 0.5 A, 0.7 A, 1.0 A, 1.5 A, 2.5 A
  #
  ################################################################################
  #  "First tier" - improvements: -1014.90 meV to -62.69 meV
       hydro 2 s 2.1
       hydro 2 p 3.5
  #  "Second tier" - improvements: -12.89 meV to -1.83 meV
  #     hydro 1 s 0.85
  #     hydro 2 p 3.7
  #     hydro 2 s 1.2
  #     hydro 3 d 7
  #  "Third tier" - improvements: -0.25 meV to -0.12 meV
  #     hydro 4 f 11.2
  #     hydro 3 p 4.8
  #     hydro 4 d 9
  #     hydro 3 s 3.2
  ################################################################################
  #
  #  FHI-aims code project
  #  VB, Fritz-Haber Institut, 2009
  #
  #  Suggested "light" defaults for O atom (to be pasted into control.in file)
  #  Be sure to double-check any results obtained with these settings for post-processing,
  #  e.g., with the "tight" defaults and larger basis sets.
  #
  ################################################################################
    species        O
  #     global species definitions
      nucleus             8
      mass                15.9994
  #
      l_hartree           4
  #
      cut_pot             3.5  1.5  1.0
      basis_dep_cutoff    1e-4
  #
      radial_base         36 5.0
      radial_multiplier   1
       angular_grids specified
        division   0.2659   50
        division   0.4451  110
        division   0.6052  194
        division   0.7543  302
  #      division   0.8014  434
  #      division   0.8507  590
  #      division   0.8762  770
  #      division   0.9023  974
  #      division   1.2339 1202
  #      outer_grid 974
        outer_grid 302
  ################################################################################
  #
  #  Definition of "minimal" basis
  #
  ################################################################################
  #     valence basis states
      valence      2  s   2.
      valence      2  p   4.
  #     ion occupancy
      ion_occ      2  s   1.
      ion_occ      2  p   3.
  ################################################################################
  #
  #  Suggested additional basis functions. For production calculations,
  #  uncomment them one after another (the most important basis functions are
  #  listed first).
  #
  #  Constructed for dimers: 1.0 A, 1.208 A, 1.5 A, 2.0 A, 3.0 A
  #
  ################################################################################
  #  "First tier" - improvements: -699.05 meV to -159.38 meV
       hydro 2 p 1.8
       hydro 3 d 7.6
       hydro 3 s 6.4
  #  "Second tier" - improvements: -49.91 meV to -5.39 meV
  #     hydro 4 f 11.6
  #     hydro 3 p 6.2
  #     hydro 3 d 5.6
  #     hydro 5 g 17.6
  #     hydro 1 s 0.75
  #  "Third tier" - improvements: -2.83 meV to -0.50 meV
  #     ionic 2 p auto
  #     hydro 4 f 10.8
  #     hydro 4 d 4.7
  #     hydro 2 s 6.8
  #  "Fourth tier" - improvements: -0.40 meV to -0.12 meV
  #     hydro 3 p 5
  #     hydro 3 s 3.3
  #     hydro 5 g 15.6
  #     hydro 4 f 17.6
  #     hydro 4 d 14
  # Further basis functions - -0.08 meV and below
  #     hydro 3 s 2.1
  #     hydro 4 d 11.6
  #     hydro 3 p 16
  #     hydro 2 s 17.2
  
  -----------------------------------------------------------------------
  Completed first pass over input file control.in .
  -----------------------------------------------------------------------
  
  
  -----------------------------------------------------------------------
  Parsing geometry.in (first pass over file, find array dimensions only).
  The contents of geometry.in will be repeated verbatim below
  unless switched off by setting 'verbatim_writeout .false.' .
  in the first line of geometry.in .
  -----------------------------------------------------------------------
  
  #=======================================================
  # FHI-aims file: /ada/ptmp/mpsd/alewis/bulk_water/qmdata/data/geoms/468.in
  # Created using the Atomic Simulation Environment (ASE)
  # Tue Feb 21 11:23:37 2023
  #=======================================================
  lattice_vector 10.4032699999999991 0.0000000000000000 0.0000000000000000
  lattice_vector 0.0000000000000000 10.4032699999999991 0.0000000000000000
  lattice_vector 0.0000000000000000 0.0000000000000000 10.4032699999999991
  atom 24.3564000000000007 11.9986999999999995 10.5975000000000001 O
  atom 24.7877000000000010 12.7708999999999993 10.0300999999999991 H
  atom 25.1299999999999990 11.4692000000000007 10.6585999999999999 H
  atom 28.2534999999999989 31.1251999999999995 6.3833799999999998 O
  atom 27.7139999999999986 30.5066999999999986 6.5208500000000003 H
  atom 29.2152999999999992 30.6256999999999984 6.3787599999999998 H
  atom -6.3096100000000002 14.0370000000000008 -2.1031300000000002 O
  atom -6.9610000000000003 14.6254000000000008 -2.4386100000000002 H
  atom -5.6773100000000003 14.1234999999999999 -2.8304399999999998 H
  atom -8.6122300000000003 -31.7332999999999998 10.3595000000000006 O
  atom -7.9765300000000003 -30.9278000000000013 10.4907000000000004 H
  atom -8.7942900000000002 -31.8899000000000008 9.4887400000000000 H
  atom 4.0360699999999996 -12.8582999999999998 19.6427000000000014 O
  atom 3.7396699999999998 -12.4971999999999994 20.4486999999999988 H
  atom 4.7096200000000001 -13.6026000000000007 19.9972999999999992 H
  atom 8.8844600000000007 6.5620799999999999 20.2180999999999997 O
  atom 8.8096099999999993 7.4864100000000002 20.4819999999999993 H
  atom 7.9463699999999999 6.2776899999999998 20.2249000000000017 H
  atom 24.4707000000000008 7.9193100000000003 -8.3750300000000006 O
  atom 25.2519999999999989 7.4514699999999996 -8.3268599999999999 H
  atom 23.7993999999999986 7.3720800000000004 -8.4768200000000000 H
  atom -47.1144999999999996 -21.2146000000000008 -23.3218999999999994 O
  atom -47.5533000000000001 -21.9165999999999990 -22.6104999999999983 H
  atom -46.6700000000000017 -20.7023000000000010 -22.6741999999999990 H
  atom -24.5481000000000016 13.1720000000000006 5.9298900000000003 O
  atom -23.9642000000000017 13.8709000000000007 6.0495000000000001 H
  atom -24.0091000000000001 12.3290000000000006 6.2357100000000001 H
  atom 10.5572999999999997 -20.2252000000000010 26.3625000000000007 O
  atom 10.1908999999999992 -20.8045000000000009 27.1285999999999987 H
  atom 11.4738000000000007 -20.4732999999999983 26.5493999999999986 H
  atom -7.4239499999999996 -9.6947299999999998 5.9778399999999996 O
  atom -7.0150699999999997 -9.9312299999999993 6.7986700000000004 H
  atom -7.3675800000000002 -8.6300500000000007 6.0442999999999998 H
  atom 28.9135999999999989 13.9610000000000003 0.1701820000000000 O
  atom 29.5469000000000008 14.5679999999999996 -0.0264550000000000 H
  atom 28.7445999999999984 13.6790000000000003 1.1237900000000001 H
  atom -14.7380999999999993 -9.3540700000000001 -7.9825799999999996 O
  atom -15.7045999999999992 -9.5523600000000002 -7.5379500000000004 H
  atom -14.1570000000000000 -10.1831999999999994 -7.5488099999999996 H
  atom -8.8930000000000007 5.8958399999999997 -7.9206099999999999 O
  atom -9.4442299999999992 6.4850899999999996 -8.4108900000000002 H
  atom -9.2099499999999992 4.9316000000000004 -8.2240699999999993 H
  atom -4.4314999999999998 6.2370599999999996 -18.8188999999999993 O
  atom -4.5090000000000003 5.3823200000000000 -18.4364999999999988 H
  atom -3.5566000000000000 6.3271400000000000 -18.9115000000000002 H
  atom -1.6478999999999999 17.5447999999999986 3.0821700000000001 O
  atom -1.0507400000000000 18.2048999999999985 2.9931199999999998 H
  atom -2.3150200000000001 18.1798000000000002 3.2215400000000001 H
  atom -16.8865000000000016 13.4758999999999993 15.4024999999999999 O
  atom -15.8536999999999999 13.3858999999999995 15.4962999999999997 H
  atom -17.0174999999999983 14.3976000000000006 15.2114999999999991 H
  atom 20.9546999999999990 -22.1551000000000009 12.2034000000000002 O
  atom 20.9497999999999998 -21.3443000000000005 12.8650000000000002 H
  atom 21.8345999999999982 -22.0554999999999986 11.7649000000000008 H
  atom 4.7697799999999999 18.1261000000000010 5.3081100000000001 O
  atom 4.7858200000000002 19.0818000000000012 5.5018000000000002 H
  atom 5.3577500000000002 17.6690000000000005 5.6935799999999999 H
  atom -2.4884499999999998 -0.7915200000000000 -17.1403999999999996 O
  atom -1.9310099999999999 -0.1498950000000000 -17.5350000000000001 H
  atom -2.5624899999999999 -0.2780310000000000 -16.2454000000000001 H
  atom 43.3444000000000003 2.5675599999999998 43.8872000000000000 O
  atom 43.4938999999999965 2.5069200000000000 44.7441999999999993 H
  atom 43.7817000000000007 2.0340500000000001 43.1385999999999967 H
  atom -21.5226000000000006 16.9630000000000010 7.1156699999999997 O
  atom -21.6396000000000015 17.0036999999999985 8.1695799999999998 H
  atom -20.5640999999999998 16.8156999999999996 7.0295199999999998 H
  atom 50.1137999999999977 19.6549000000000014 10.2361000000000004 O
  atom 50.7201000000000022 20.1744999999999983 10.8262999999999998 H
  atom 49.5733999999999995 20.3829999999999991 9.9842399999999998 H
  atom -2.7931900000000001 5.7781799999999999 15.7518999999999991 O
  atom -1.9875499999999999 6.0022200000000003 16.2728000000000002 H
  atom -2.6752699999999998 6.0808400000000002 14.9197000000000006 H
  atom -3.7094200000000002 11.4319000000000006 -20.9965000000000011 O
  atom -3.8640699999999999 11.5798000000000005 -20.1842000000000006 H
  atom -3.3540899999999998 12.3338000000000001 -21.1918000000000006 H
  atom -3.7032600000000002 14.0629000000000008 13.6218000000000004 O
  atom -3.3813800000000001 13.9878000000000000 14.3718000000000004 H
  atom -3.8166400000000000 13.2335999999999991 13.1267999999999994 H
  atom -15.2344000000000008 5.6025200000000002 30.4689000000000014 O
  atom -15.4777000000000005 5.8328199999999999 31.2532999999999994 H
  atom -15.8194999999999997 4.9153799999999999 30.2335999999999991 H
  atom -8.2580799999999996 -4.6480199999999998 -23.8298999999999985 O
  atom -8.0819899999999993 -4.6354699999999998 -24.7237000000000009 H
  atom -7.8202400000000001 -3.8363100000000001 -23.7113000000000014 H
  atom 3.7053300000000000 31.1846999999999994 24.2221000000000011 O
  atom 3.6902100000000000 30.4207999999999998 24.1593000000000018 H
  atom 3.7020300000000002 31.4816000000000003 25.2286000000000001 H
  atom -17.9400000000000013 5.8356399999999997 -15.9765999999999995 O
  atom -18.2739000000000011 5.8914000000000000 -16.9967000000000006 H
  atom -17.2641999999999989 6.5516399999999999 -15.8590999999999998 H
  atom 41.0752000000000024 11.2254000000000005 13.4524000000000008 O
  atom 41.3372999999999990 11.2624999999999993 14.2944999999999993 H
  atom 41.7317999999999998 11.5508000000000006 12.9641000000000002 H
  atom 20.0767999999999986 -1.2104500000000000 -2.8576400000000000 O
  atom 19.8839000000000006 -1.3330200000000001 -1.8263000000000000 H
  atom 20.2153999999999989 -2.1489600000000002 -2.9714700000000001 H
  
  -----------------------------------------------------------------------
  Completed first pass over input file geometry.in .
  -----------------------------------------------------------------------
  

  Basic array size parameters:
  | Number of species                 :        2
  | Number of atoms                   :       96
  | Number of lattice vectors         :        3
  | Max. basis fn. angular momentum   :        2
  | Max. atomic/ionic basis occupied n:        2
  | Max. number of basis fn. types    :        2
  | Max. radial fns per species/type  :        3
  | Max. logarithmic grid size        :     1301
  | Max. radial integration grid size :       36
  | Max. angular integration grid size:      302
  | Max. angular grid division number :        8
  | Radial grid for Hartree potential :     1301
  | Number of spin channels           :        1

------------------------------------------------------------
          Reading file control.in.
------------------------------------------------------------
  XC: Using Perdew-Wang parametrisation of Ceperley-Alder LDA.
  Spin treatment: No spin polarisation.
  Non-relativistic treatment of kinetic energy.
  Charge =   0.000000E+00: Neutral system requested explicitly.
  DFPT calculation will begin after the DFT/HF calculation.
  Convergence accuracy of self-consistent charge density:  0.1000E-05
  Found k-point grid:         1         1         1
  Threshold value for wave function integration:  0.1000E-07
 
  Reading configuration options for species H                   .
  | Found nuclear charge :   1.0000
  | Found atomic mass :    1.00794000000000      amu
  | Found l_max for Hartree potential  :   4
  | Found cutoff potl. onset [A], width [A], scale factor :    3.50000    1.50000    1.00000
  | Threshold for basis-dependent cutoff potential is   0.100000E-03
  | Found data for basic radial integration grid :    24 points, outermost radius =    5.000 A
  | Found multiplier for basic radial grid :   1
  | Found angular grid specification: user-specified.
  | Specified grid contains     5 separate shells.
  | Check grid settings after all constraints further below.
  | Found free-atom valence shell :  1 s   1.000
  | No ionic wave fns used. Skipping ion_occ.
  | Found hydrogenic basis function :  2 s   2.100
  | Found hydrogenic basis function :  2 p   3.500
  Species H                   : Missing cutoff potential type.
  Defaulting to exp(1/x)/(1-x)^2 type cutoff potential.
  Species H : No 'logarithmic' tag. Using default grid for free atom:
  | Default logarithmic grid data [bohr] : 0.1000E-03 0.1000E+03 0.1012E+01
  Species H : On-site basis accuracy parameter (for Gram-Schmidt orthonormalisation) not specified.
  Using default value basis_acc =  0.1000000E-03.
  Species H                   : Using default innermost maximum threshold i_radial=  2 for radial functions.
  Species H                   : Default cutoff onset for free atom density etc. : 0.35000000E+01 AA.
  Species H                   : Basic radial grid will be enhanced according to radial_multiplier =   1, to contain    24 grid points.
 
  Reading configuration options for species O                   .
  | Found nuclear charge :   8.0000
  | Found atomic mass :    15.9994000000000      amu
  | Found l_max for Hartree potential  :   4
  | Found cutoff potl. onset [A], width [A], scale factor :    3.50000    1.50000    1.00000
  | Threshold for basis-dependent cutoff potential is   0.100000E-03
  | Found data for basic radial integration grid :    36 points, outermost radius =    5.000 A
  | Found multiplier for basic radial grid :   1
  | Found angular grid specification: user-specified.
  | Specified grid contains     5 separate shells.
  | Check grid settings after all constraints further below.
  | Found free-atom valence shell :  2 s   2.000
  | Found free-atom valence shell :  2 p   4.000
  | No ionic wave fns used. Skipping ion_occ.
  | No ionic wave fns used. Skipping ion_occ.
  | Found hydrogenic basis function :  2 p   1.800
  | Found hydrogenic basis function :  3 d   7.600
  | Found hydrogenic basis function :  3 s   6.400
  Species O                   : Missing cutoff potential type.
  Defaulting to exp(1/x)/(1-x)^2 type cutoff potential.
  Species O : No 'logarithmic' tag. Using default grid for free atom:
  | Default logarithmic grid data [bohr] : 0.1000E-03 0.1000E+03 0.1012E+01
  Species O : On-site basis accuracy parameter (for Gram-Schmidt orthonormalisation) not specified.
  Using default value basis_acc =  0.1000000E-03.
  Species O                   : Using default innermost maximum threshold i_radial=  2 for radial functions.
  Species O                   : Default cutoff onset for free atom density etc. : 0.35000000E+01 AA.
  Species O                   : Basic radial grid will be enhanced according to radial_multiplier =   1, to contain    36 grid points.
 
  Finished reading input file 'control.in'.
 
------------------------------------------------------------


------------------------------------------------------------
          Reading geometry description geometry.in.
------------------------------------------------------------
  | The smallest distance between any two atoms is         0.76662616 AA.
  | The first atom of this pair is atom number                     85 .
  | The second atom of this pair is atom number                    86 .
  | Wigner-Seitz cell of the first atom image           0     0     0 .
  | (The Wigner-Seitz cell of the second atom is 0 0 0  by definition.)

  Symmetry information by spglib:
  | Precision set to  0.1E-04
  | Number of Operations  : 1
  | Space group           : 1
  | International         : P1
  | Schoenflies           : C1^1
  Input structure read successfully.
  The structure contains       96 atoms,  and a total of        320.000 electrons.

  Input geometry:
  | Unit cell:
  |       10.40327000        0.00000000        0.00000000
  |        0.00000000       10.40327000        0.00000000
  |        0.00000000        0.00000000       10.40327000
  | Atomic structure:
  |       Atom                x [A]            y [A]            z [A]
  |    1: Species O            24.35640000       11.99870000       10.59750000
  |    2: Species H            24.78770000       12.77090000       10.03010000
  |    3: Species H            25.13000000       11.46920000       10.65860000
  |    4: Species O            28.25350000       31.12520000        6.38338000
  |    5: Species H            27.71400000       30.50670000        6.52085000
  |    6: Species H            29.21530000       30.62570000        6.37876000
  |    7: Species O            -6.30961000       14.03700000       -2.10313000
  |    8: Species H            -6.96100000       14.62540000       -2.43861000
  |    9: Species H            -5.67731000       14.12350000       -2.83044000
  |   10: Species O            -8.61223000      -31.73330000       10.35950000
  |   11: Species H            -7.97653000      -30.92780000       10.49070000
  |   12: Species H            -8.79429000      -31.88990000        9.48874000
  |   13: Species O             4.03607000      -12.85830000       19.64270000
  |   14: Species H             3.73967000      -12.49720000       20.44870000
  |   15: Species H             4.70962000      -13.60260000       19.99730000
  |   16: Species O             8.88446000        6.56208000       20.21810000
  |   17: Species H             8.80961000        7.48641000       20.48200000
  |   18: Species H             7.94637000        6.27769000       20.22490000
  |   19: Species O            24.47070000        7.91931000       -8.37503000
  |   20: Species H            25.25200000        7.45147000       -8.32686000
  |   21: Species H            23.79940000        7.37208000       -8.47682000
  |   22: Species O           -47.11450000      -21.21460000      -23.32190000
  |   23: Species H           -47.55330000      -21.91660000      -22.61050000
  |   24: Species H           -46.67000000      -20.70230000      -22.67420000
  |   25: Species O           -24.54810000       13.17200000        5.92989000
  |   26: Species H           -23.96420000       13.87090000        6.04950000
  |   27: Species H           -24.00910000       12.32900000        6.23571000
  |   28: Species O            10.55730000      -20.22520000       26.36250000
  |   29: Species H            10.19090000      -20.80450000       27.12860000
  |   30: Species H            11.47380000      -20.47330000       26.54940000
  |   31: Species O            -7.42395000       -9.69473000        5.97784000
  |   32: Species H            -7.01507000       -9.93123000        6.79867000
  |   33: Species H            -7.36758000       -8.63005000        6.04430000
  |   34: Species O            28.91360000       13.96100000        0.17018200
  |   35: Species H            29.54690000       14.56800000       -0.02645500
  |   36: Species H            28.74460000       13.67900000        1.12379000
  |   37: Species O           -14.73810000       -9.35407000       -7.98258000
  |   38: Species H           -15.70460000       -9.55236000       -7.53795000
  |   39: Species H           -14.15700000      -10.18320000       -7.54881000
  |   40: Species O            -8.89300000        5.89584000       -7.92061000
  |   41: Species H            -9.44423000        6.48509000       -8.41089000
  |   42: Species H            -9.20995000        4.93160000       -8.22407000
  |   43: Species O            -4.43150000        6.23706000      -18.81890000
  |   44: Species H            -4.50900000        5.38232000      -18.43650000
  |   45: Species H            -3.55660000        6.32714000      -18.91150000
  |   46: Species O            -1.64790000       17.54480000        3.08217000
  |   47: Species H            -1.05074000       18.20490000        2.99312000
  |   48: Species H            -2.31502000       18.17980000        3.22154000
  |   49: Species O           -16.88650000       13.47590000       15.40250000
  |   50: Species H           -15.85370000       13.38590000       15.49630000
  |   51: Species H           -17.01750000       14.39760000       15.21150000
  |   52: Species O            20.95470000      -22.15510000       12.20340000
  |   53: Species H            20.94980000      -21.34430000       12.86500000
  |   54: Species H            21.83460000      -22.05550000       11.76490000
  |   55: Species O             4.76978000       18.12610000        5.30811000
  |   56: Species H             4.78582000       19.08180000        5.50180000
  |   57: Species H             5.35775000       17.66900000        5.69358000
  |   58: Species O            -2.48845000       -0.79152000      -17.14040000
  |   59: Species H            -1.93101000       -0.14989500      -17.53500000
  |   60: Species H            -2.56249000       -0.27803100      -16.24540000
  |   61: Species O            43.34440000        2.56756000       43.88720000
  |   62: Species H            43.49390000        2.50692000       44.74420000
  |   63: Species H            43.78170000        2.03405000       43.13860000
  |   64: Species O           -21.52260000       16.96300000        7.11567000
  |   65: Species H           -21.63960000       17.00370000        8.16958000
  |   66: Species H           -20.56410000       16.81570000        7.02952000
  |   67: Species O            50.11380000       19.65490000       10.23610000
  |   68: Species H            50.72010000       20.17450000       10.82630000
  |   69: Species H            49.57340000       20.38300000        9.98424000
  |   70: Species O            -2.79319000        5.77818000       15.75190000
  |   71: Species H            -1.98755000        6.00222000       16.27280000
  |   72: Species H            -2.67527000        6.08084000       14.91970000
  |   73: Species O            -3.70942000       11.43190000      -20.99650000
  |   74: Species H            -3.86407000       11.57980000      -20.18420000
  |   75: Species H            -3.35409000       12.33380000      -21.19180000
  |   76: Species O            -3.70326000       14.06290000       13.62180000
  |   77: Species H            -3.38138000       13.98780000       14.37180000
  |   78: Species H            -3.81664000       13.23360000       13.12680000
  |   79: Species O           -15.23440000        5.60252000       30.46890000
  |   80: Species H           -15.47770000        5.83282000       31.25330000
  |   81: Species H           -15.81950000        4.91538000       30.23360000
  |   82: Species O            -8.25808000       -4.64802000      -23.82990000
  |   83: Species H            -8.08199000       -4.63547000      -24.72370000
  |   84: Species H            -7.82024000       -3.83631000      -23.71130000
  |   85: Species O             3.70533000       31.18470000       24.22210000
  |   86: Species H             3.69021000       30.42080000       24.15930000
  |   87: Species H             3.70203000       31.48160000       25.22860000
  |   88: Species O           -17.94000000        5.83564000      -15.97660000
  |   89: Species H           -18.27390000        5.89140000      -16.99670000
  |   90: Species H           -17.26420000        6.55164000      -15.85910000
  |   91: Species O            41.07520000       11.22540000       13.45240000
  |   92: Species H            41.33730000       11.26250000       14.29450000
  |   93: Species H            41.73180000       11.55080000       12.96410000
  |   94: Species O            20.07680000       -1.21045000       -2.85764000
  |   95: Species H            19.88390000       -1.33302000       -1.82630000
  |   96: Species H            20.21540000       -2.14896000       -2.97147000

  Lattice parameters for 3D lattice (in Angstroms) :    10.403270   10.403270   10.403270
  Angle(s) between unit vectors (in degrees)       :    90.000000   90.000000   90.000000


  Quantities derived from the lattice vectors (in Angstrom^-1):
  | Reciprocal lattice vector 1:  0.603963  0.000000  0.000000
  | Reciprocal lattice vector 2:  0.000000  0.603963  0.000000
  | Reciprocal lattice vector 3:  0.000000  0.000000  0.603963
  | Unit cell volume                               :   0.112593E+04  Angstrom^3

  Fractional coordinates:
                         L1                L2                L3
       atom_frac         2.34122540        1.15335851        1.01867009  O
       atom_frac         2.38268352        1.22758517        0.96412955  H
       atom_frac         2.41558664        1.10246105        1.02454324  H
       atom_frac         2.71582877        2.99186698        0.61359361  O
       atom_frac         2.66397008        2.93241452        0.62680772  H
       atom_frac         2.80828047        2.94385323        0.61314952  H
       atom_frac        -0.60650257        1.34928729       -0.20216047  O
       atom_frac        -0.66911654        1.40584643       -0.23440803  H
       atom_frac        -0.54572360        1.35760198       -0.27207215  H
       atom_frac        -0.82783875       -3.05031976        0.99579267  O
       atom_frac        -0.76673296       -2.97289218        1.00840409  H
       atom_frac        -0.84533901       -3.06537271        0.91209206  H
       atom_frac         0.38796167       -1.23598638        1.88812748  O
       atom_frac         0.35947063       -1.20127614        1.96560312  H
       atom_frac         0.45270574       -1.30753119        1.92221292  H
       atom_frac         0.85400648        0.63077090        1.94343702  O
       atom_frac         0.84681163        0.71962085        1.96880404  H
       atom_frac         0.76383387        0.60343430        1.94409066  H
       atom_frac         2.35221233        0.76123277       -0.80503822  O
       atom_frac         2.42731372        0.71626229       -0.80040795  H
       atom_frac         2.28768455        0.70863104       -0.81482265  H
       atom_frac        -4.52881642       -2.03922421       -2.24178552  O
       atom_frac        -4.57099547       -2.10670299       -2.17340317  H
       atom_frac        -4.48608947       -1.98998007       -2.17952625  H
       atom_frac        -2.35965230        1.26614036        0.57000251  O
       atom_frac        -2.30352572        1.33332116        0.58149986  H
       atom_frac        -2.30784167        1.18510814        0.59939904  H
       atom_frac         1.01480592       -1.94411949        2.53405900  O
       atom_frac         0.97958623       -1.99980391        2.60769931  H
       atom_frac         1.10290322       -1.96796776        2.55202451  H
       atom_frac        -0.71361697       -0.93189257        0.57461164  O
       atom_frac        -0.67431394       -0.95462581        0.65351279  H
       atom_frac        -0.70819848       -0.82955167        0.58100001  H
       atom_frac         2.77927998        1.34198190        0.01635851  O
       atom_frac         2.84015507        1.40032894       -0.00254295  H
       atom_frac         2.76303508        1.31487503        0.10802277  H
       atom_frac        -1.41667956       -0.89914710       -0.76731451  O
       atom_frac        -1.50958304       -0.91820745       -0.72457506  H
       atom_frac        -1.36082213       -0.97884607       -0.72561896  H
       atom_frac        -0.85482738        0.56672950       -0.76135773  O
       atom_frac        -0.90781360        0.62337034       -0.80848522  H
       atom_frac        -0.88529376        0.47404326       -0.79052740  H
       atom_frac        -0.42597183        0.59952880       -1.80894084  O
       atom_frac        -0.43342141        0.51736810       -1.77218317  H
       atom_frac        -0.34187328        0.60818762       -1.81784189  H
       atom_frac        -0.15840212        1.68646973        0.29626935  O
       atom_frac        -0.10100094        1.74992094        0.28770954  H
       atom_frac        -0.22252811        1.74750824        0.30966610  H
       atom_frac        -1.62319155        1.29535233        1.48054410  O
       atom_frac        -1.52391508        1.28670120        1.48956049  H
       atom_frac        -1.63578375        1.38394947        1.46218449  H
       atom_frac         2.01424168       -2.12962847        1.17303502  O
       atom_frac         2.01377067       -2.05169144        1.23663041  H
       atom_frac         2.09882085       -2.12005456        1.13088481  H
       atom_frac         0.45848853        1.74234640        0.51023476  O
       atom_frac         0.46003036        1.83421174        0.52885295  H
       atom_frac         0.51500634        1.69840829        0.54728754  H
       atom_frac        -0.23919883       -0.07608377       -1.64759734  O
       atom_frac        -0.18561568       -0.01440845       -1.68552772  H
       atom_frac        -0.24631582       -0.02672535       -1.56156670  H
       atom_frac         4.16642075        0.24680317        4.21859665  O
       atom_frac         4.18079123        0.24097423        4.30097460  H
       atom_frac         4.20845561        0.19552025        4.14663851  H
       atom_frac        -2.06883028        1.63054501        0.68398398  O
       atom_frac        -2.08007675        1.63445724        0.78528963  H
       atom_frac        -1.97669579        1.61638600        0.67570293  H
       atom_frac         4.81712000        1.88930019        0.98393101  O
       atom_frac         4.87539975        1.93924603        1.04066318  H
       atom_frac         4.76517480        1.95928780        0.95972132  H
       atom_frac        -0.26849154        0.55541959        1.51412969  O
       atom_frac        -0.19105051        0.57695513        1.56420049  H
       atom_frac        -0.25715664        0.58451237        1.43413561  H
       atom_frac        -0.35656289        1.09887564       -2.01825964  O
       atom_frac        -0.37142841        1.11309233       -1.94017842  H
       atom_frac        -0.32240728        1.18556954       -2.03703259  H
       atom_frac        -0.35597077        1.35177689        1.30937676  O
       atom_frac        -0.32503050        1.34455801        1.38146948  H
       atom_frac        -0.36686926        1.27206157        1.26179557  H
       atom_frac        -1.46438572        0.53853452        2.92878105  O
       atom_frac        -1.48777259        0.56067179        3.00418042  H
       atom_frac        -1.52062765        0.47248413        2.90616316  H
       atom_frac        -0.79379657       -0.44678452       -2.29061632  O
       atom_frac        -0.77687016       -0.44557817       -2.37653161  H
       atom_frac        -0.75170980       -0.36876001       -2.27921605  H
       atom_frac         0.35616974        2.99758634        2.32831600  O
       atom_frac         0.35471635        2.92415750        2.32227944  H
       atom_frac         0.35585253        3.02612544        2.42506443  H
       atom_frac        -1.72445779        0.56094286       -1.53572867  O
       atom_frac        -1.75655347        0.56630271       -1.63378438  H
       atom_frac        -1.65949745        0.62976737       -1.52443414  H
       atom_frac         3.94829703        1.07902611        1.29309342  O
       atom_frac         3.97349103        1.08259230        1.37403912  H
       atom_frac         4.01141180        1.11030474        1.24615626  H
       atom_frac         1.92985475       -0.11635284       -0.27468671  O
       atom_frac         1.91131250       -0.12813471       -0.17555057  H
       atom_frac         1.94317748       -0.20656582       -0.28562846  H

 
  Finished reading input file 'geometry.in'.
 

 
  Consistency checks for stacksize environment parameter are next.
 
  | Maximum stacksize for task 0: unlimited
  | Maximum stacksize for task 1: unlimited
  | Maximum stacksize for task 2: unlimited
  | Maximum stacksize for task 3: unlimited
  | Maximum stacksize for task 4: unlimited
  | Maximum stacksize for task 5: unlimited
  | Maximum stacksize for task 6: unlimited
  | Maximum stacksize for task 7: unlimited
  | Maximum stacksize for task 8: unlimited
  | Maximum stacksize for task 9: unlimited
  | Maximum stacksize for task 10: unlimited
  | Maximum stacksize for task 11: unlimited
  | Maximum stacksize for task 12: unlimited
  | Maximum stacksize for task 13: unlimited
  | Maximum stacksize for task 14: unlimited
  | Maximum stacksize for task 15: unlimited
  | Maximum stacksize for task 16: unlimited
  | Maximum stacksize for task 17: unlimited
  | Current stacksize for task 0: unlimited
  | Current stacksize for task 1: unlimited
  | Current stacksize for task 2: unlimited
  | Current stacksize for task 3: unlimited
  | Current stacksize for task 4: unlimited
  | Current stacksize for task 5: unlimited
  | Current stacksize for task 6: unlimited
  | Current stacksize for task 7: unlimited
  | Current stacksize for task 8: unlimited
  | Current stacksize for task 9: unlimited
  | Current stacksize for task 10: unlimited
  | Current stacksize for task 11: unlimited
  | Current stacksize for task 12: unlimited
  | Current stacksize for task 13: unlimited
  | Current stacksize for task 14: unlimited
  | Current stacksize for task 15: unlimited
  | Current stacksize for task 16: unlimited
  | Current stacksize for task 17: unlimited
 
  Consistency checks for the contents of control.in are next.
 
  MPI_IN_PLACE appears to work with this MPI implementation.
  | Keeping use_mpi_in_place .true. (see manual).
  Explicit treatment of the Coulomb operator is needed, but the RI method is not specified.
  Coulomb operator: Defaulting to 'LVL fast' resolution of identity - RI_type = LVL_fast
  Species H: Using default value for prodbas_acc =   1.000000E-06.
  Species H: Using default value max_l_prodbas =     6.
  Species O: Using default value for prodbas_acc =   1.000000E-06.
  Species O: Using default value max_l_prodbas =     6.
  Target number of points in a grid batch is not set.  Since GPU acceleration is enabled, defaulting to  200
  Method for grid partitioning is not set. Defaulting to parallel hash+maxmin partitioning.
  Batch size limit is not set. Defaulting to    200
  By default, will store active basis functions for each batch.
  If in need of memory, prune_basis_once .false. can be used to disable this option.
  communication_type for Hartree potential was not specified.
  Defaulting to calc_hartree .
  Defaulting to Pulay charge density mixer.
  Pulay mixer: Number of relevant iterations not set.
  Defaulting to    8 iterations.
  Pulay mixer: Number of initial linear mixing iterations not set.
  Defaulting to    0 iterations.
  Work space size for distributed Hartree potential not set.
  Defaulting to   0.200000E+03 MB.
  Mixing parameter for charge density mixing has not been set.
  Using default: charge_mix_param =     0.0500.
  The mixing parameter will be adjusted in iteration number     2 of the first full s.c.f. cycle only.
  Algorithm-dependent basis array size parameters:
  | n_max_pulay                         :        8
  Maximum number of self-consistency iterations not provided.
  Presetting  1000 iterations.
  Presetting      1001 iterations before the initial mixing cycle
  is restarted anyway using the sc_init_iter criterion / keyword.
  Presetting a factor      1.000 between actual scf density residual
  and density convergence criterion sc_accuracy_rho below which sc_init_iter
  takes no effect.
  Calculation of forces was not defined in control.in. No forces will be calculated.
  Geometry relaxation not requested: no relaxation will be performed.
  No accuracy limit for integral partition fn. given. Defaulting to  0.1000E-14.
  No occupation type (smearing scheme) given. Defaulting to Gaussian broadening, width =  0.1000E-01 eV.
  The width will be adjusted in iteration number     2 of the first full s.c.f. cycle only.
  S.C.F. convergence parameters will be adjusted in iteration number     2 of the first full s.c.f. cycle only.
  No accuracy for occupation numbers given. Defaulting to  0.1000E-12.
  No threshold value for occupation numbers given. Defaulting to  0.0000E+00.
  No accuracy for fermi level given. Defaulting to  0.1000E-19.
  Maximum # of iterations to find E_F not set. Defaulting to  200.
  Preferred method for the eigenvalue solver ('KS_method') not specified in 'control.in'.
  Calling BLACS routine to test compilation state
  Since ScaLAPACK support is enabled, defaulting to ELPA (via ELSI).
  Will not use alltoall communication since running on < 1024 CPUs.
  Threshold for basis singularities not set.
  Default threshold for basis singularities:  0.1000E-04
  partition_type (choice of integration weights) for integrals was not specified.
  | Using a version of the partition function of Stratmann and coworkers ('stratmann_sparse').
  | At each grid point, the set of atoms used to build the partition table is smoothly restricted to
  | only those atoms whose free-atom density would be non-zero at that grid point.
  Partitioning for Hartree potential was not defined. Using partition_type for integrals.
  | Adjusted default value of keyword multip_moments_threshold to:       0.10000000E-11
  | This value may affect high angular momentum components of the Hartree potential in periodic systems.
  Angular momentum expansion for Kerker preconditioner not set explicitly.
  | Using default value of   0
  No explicit requirement for turning off preconditioner.
  | By default, it will be turned off when the charge convergence reaches
  | sc_accuracy_rho  =   0.100000E-05
  No special mixing parameter while Kerker preconditioner is on.
  Using default: charge_mix_param =     0.0500.
  Threshold for auxiliary basis singularities not set.
  Default threshold for auxiliary basis singularities:  0.1000E-04
  No q(lm)/r^(l+1) cutoff set for long-range Hartree potential.
  | Using default value of  0.100000E-09 .
  | Verify using the multipole_threshold keyword.
  Defaulting to new monopole extrapolation.
  Density update method: automatic selection selected.
  Using density matrix based charge density update.
  Using density matrix based charge density update.
  Using packed matrix style: index .
  Defaulting to use time-reversal symmetry for k-point grid.
  Charge integration errors on the 3D integration grid will be compensated
  by explicit normalization and distribution of residual charges.
  Use the "compensate_multipole_errors" flag to change this behaviour.
  Default to 1D ("use_logsbt") integrations for auxiliary 2-center integrals.
  Default onset of logarithmic r-grid for SBT is -38.000000000000
  Default onset of logarithmic k-grid for SBT is -25.000000000000
  Default range of logarithmic r- and k-grid for SBT is  45.000000000000
  Default number of logarithmic r- and k-grid for SBT is   4096
  Default of use_2d_corr is to use the efficient 2D distribution where possible
 
  Consistency checks for the contents of geometry.in are next.
 

  Range separation radius for Ewald summation (hartree_convergence_parameter):      3.17338395 bohr.
  Number of empty states per atom not set in control.in .
  | Since you are using a method that relies on the unoccupied spectrum
  | (MP2,GW,RPA et al.), will use the full Hamiltonian size (see below)
  | as the max. possible number of states (occupied plus empty).

  Structure-dependent array size parameters: 
  | Maximum number of distinct radial functions  :        9
  | Maximum number of basis functions            :      768
  | Number of Kohn-Sham states (occupied + empty):      768
------------------------------------------------------------

  Performing system and environment tests:
  | Environment variable OMP_NUM_THREADS correctly set to 1.
  | Checking for ScaLAPACK...
  | Testing pdtran()...
  | All pdtran() tests passed.
CUDA runtime version: 11060
CUDA driver version: 11060
  Initializing GPUs...

  Number of GPUs available to MPI task         0 :   1
  Number of GPUs available to MPI task         1 :   1
  Number of GPUs available to MPI task         2 :   1
  Number of GPUs available to MPI task         3 :   1
  Number of GPUs available to MPI task         4 :   1
  Number of GPUs available to MPI task         5 :   1
  Number of GPUs available to MPI task         6 :   1
  Number of GPUs available to MPI task         7 :   1
  Number of GPUs available to MPI task         8 :   1
  Number of GPUs available to MPI task         9 :   1
  Number of GPUs available to MPI task        10 :   1
  Number of GPUs available to MPI task        11 :   1
  Number of GPUs available to MPI task        12 :   1
  Number of GPUs available to MPI task        13 :   1
  Number of GPUs available to MPI task        14 :   1
  Number of GPUs available to MPI task        15 :   1
  Number of GPUs available to MPI task        16 :   1
  Number of GPUs available to MPI task        17 :   1

  | MPI task         0, GPU activated = T, Device Name = NVIDIA A100-SXM4-80GB
  | MPI task         1, GPU activated = T, Device Name = NVIDIA A100-SXM4-80GB
  | MPI task         2, GPU activated = T, Device Name = NVIDIA A100-SXM4-80GB
  | MPI task         3, GPU activated = T, Device Name = NVIDIA A100-SXM4-80GB
  | MPI task         4, GPU activated = T, Device Name = NVIDIA A100-SXM4-80GB
  | MPI task         5, GPU activated = T, Device Name = NVIDIA A100-SXM4-80GB
  | MPI task         6, GPU activated = T, Device Name = NVIDIA A100-SXM4-80GB
  | MPI task         7, GPU activated = T, Device Name = NVIDIA A100-SXM4-80GB
  | MPI task         8, GPU activated = T, Device Name = NVIDIA A100-SXM4-80GB
  | MPI task         9, GPU activated = T, Device Name = NVIDIA A100-SXM4-80GB
  | MPI task        10, GPU activated = T, Device Name = NVIDIA A100-SXM4-80GB
  | MPI task        11, GPU activated = T, Device Name = NVIDIA A100-SXM4-80GB
  | MPI task        12, GPU activated = T, Device Name = NVIDIA A100-SXM4-80GB
  | MPI task        13, GPU activated = T, Device Name = NVIDIA A100-SXM4-80GB
  | MPI task        14, GPU activated = T, Device Name = NVIDIA A100-SXM4-80GB
  | MPI task        15, GPU activated = T, Device Name = NVIDIA A100-SXM4-80GB
  | MPI task        16, GPU activated = T, Device Name = NVIDIA A100-SXM4-80GB
  | MPI task        17, GPU activated = T, Device Name = NVIDIA A100-SXM4-80GB

------------------------------------------------------------
          Preparing all fixed parts of the calculation.
------------------------------------------------------------
  Determining machine precision:
    2.225073858507201E-308
  Setting up grids for atomic and cluster calculations.

  Creating wave function, potential, and density for free atoms.
  Runtime choices for atomic solver:
  | atomic solver xc        : PW-LDA
  | compute density gradient: 0
  | compute kinetic density : F

  Species: H

  List of occupied orbitals and eigenvalues:
    n    l              occ      energy [Ha]    energy [eV]
    1    0           1.0000        -0.232375        -6.3233


  Species: O

  List of occupied orbitals and eigenvalues:
    n    l              occ      energy [Ha]    energy [eV]
    1    0           2.0000       -18.757744      -510.4242
    2    0           2.0000        -0.870917       -23.6989
    2    1           4.0000        -0.337950        -9.1961


  Adding cutoff potential to free-atom effective potential.
  Creating fixed part of basis set: Ionic, confined, hydrogenic.
 
  H                    hydrogenic:
 
  List of hydrogenic basis orbitals: 
    n    l      effective z      eigenvalue [eV]  inner max. [A]     outer max. [A]     outer radius [A]   
    2    0         2.100000       -14.9728           0.193243           1.317208           4.696947
    2    1         3.500000       -41.6669           0.602369           0.602369           3.862494
 
 
  O                    hydrogenic:
 
  List of hydrogenic basis orbitals: 
    n    l      effective z      eigenvalue [eV]  inner max. [A]     outer max. [A]     outer radius [A]   
    2    1         1.800000       -10.9749           1.164242           1.164242           4.691341
    3    2         7.600000       -87.3180           0.624125           0.624125           3.413946
    3    0         6.400000       -61.9207           0.061167           1.081902           4.151495
 
  Creating atomic-like basis functions for current effective potential.

  Species H                   :

  List of atomic basis orbitals and eigenvalues:
    n    l      energy [Ha]    energy [eV]    outer radius [A]
    1    0        -0.232375        -6.3233       4.696947


  Species O                   :

  List of atomic basis orbitals and eigenvalues:
    n    l      energy [Ha]    energy [eV]    outer radius [A]
    1    0       -18.757744      -510.4242       1.830144
    2    0        -0.870917       -23.6989       4.578029
    2    1        -0.337950        -9.1961       4.634338

  Assembling full basis from fixed parts.
  | Species H :   atomic orbital   1 s accepted.
  | Species H :    hydro orbital   2 s accepted.
  | Species H :    hydro orbital   2 p accepted.
  | Species O :   atomic orbital   1 s accepted.
  | Species O :    hydro orbital   3 s accepted.
  | Species O :   atomic orbital   2 s accepted.
  | Species O :   atomic orbital   2 p accepted.
  | Species O :    hydro orbital   2 p accepted.
  | Species O :    hydro orbital   3 d accepted.
 
  Basis size parameters after reduction:
  | Total number of radial functions:        9
  | Total number of basis functions :      768
 
  Per-task memory consumption for arrays in subroutine allocate_ext:
  |           2.268304MB.
  Testing on-site integration grid accuracy.
  |  Species  Function  <phi|h_atom|phi> (log., in eV)  <phi|h_atom|phi> (rad., in eV)
           1        1                 -6.3245358373                 -6.3232436907
           1        2                 14.1326137532                 14.1384481100
           1        3                 25.3627025200                 25.3628451197
           2        4               -510.4241781764               -510.4240769407
           2        5                 14.9072942213                 14.9072945271
           2        6                -21.2004736474                -21.2005650551
           2        7                 -9.1962086505                 -9.1963509834
           2        8                  8.1896755006                  8.1702200081
           2        9                 45.7920584937                 45.7920228520

  Preparing densities etc. for the partition functions (integrals / Hartree potential).

  Preparations completed.
  max(cpu_time)          :      0.069 s.
  Wall clock time (cpu1) :      0.061 s.
------------------------------------------------------------

  Initializing index lists of integration centers etc. from given atomic structure:
  Mapping all atomic coordinates to central unit cell.

  Initializing the k-points
  Using symmetry for reducing the k-points
  | k-points reduced from:        1 to        1
  | Number of k-points                             :         1
  | Consuming          0 KiB for k_phase_exx.
  The eigenvectors in the calculations are REAL.
  | Number of basis functions in the Hamiltonian integrals :      4085
  | Number of basis functions in a single unit cell        :       768
  | Number of centers in hartree potential         :      2480
  | Number of centers in hartree multipole         :      1750
  | Number of centers in electron density summation:      1317
  | Number of centers in basis integrals           :      1379
  | Number of centers in integrals                 :       633
  | Number of centers in hamiltonian               :      1317
  | Consuming          0 KiB for k_phase.
  | Number of super-cells (origin) [n_cells]                     :         125
  | Number of super-cells (after PM_index) [n_cells]             :          28
  | Number of super-cells in hamiltonian [n_cells_in_hamiltonian]:          28
  | Size of matrix packed + index [n_hamiltonian_matrix_size] :      673690
  | Size of matrix packed + index (no_symmetry):     1346611

------------------------------------------------------------
          Begin self-consistency loop: Initialization.

          Date     :  20230221, Time     :  130948.170
------------------------------------------------------------
  | Estimated reciprocal-space cutoff momentum G_max:         2.97035821 bohr^-1 .
  | Reciprocal lattice points for long-range Hartree potential:    3406
  Using simple linear distribution as default method for k-point parallelism.
  * Using 18 tasks for Scalapack Eigenvalue solver.
  Detailed listing of tasks and assigned k-points:
   Task     0 k-point     1 on adag038
   Task     1 k-point     1 on adag038
   Task     2 k-point     1 on adag038
   Task     3 k-point     1 on adag038
   Task     4 k-point     1 on adag038
   Task     5 k-point     1 on adag038
   Task     6 k-point     1 on adag038
   Task     7 k-point     1 on adag038
   Task     8 k-point     1 on adag038
   Task     9 k-point     1 on adag038
   Task    10 k-point     1 on adag038
   Task    11 k-point     1 on adag038
   Task    12 k-point     1 on adag038
   Task    13 k-point     1 on adag038
   Task    14 k-point     1 on adag038
   Task    15 k-point     1 on adag038
   Task    16 k-point     1 on adag038
   Task    17 k-point     1 on adag038
  K-point:     1 Tasks:    18 split into      6 X      3 BLACS grid
  Calculating block size based on n_basis =          768  max_nprow =            6  max_npcol =            3
  ScaLAPACK block size set to:           16
  Allocating        0.250 MB for ovlp
  Allocating        0.250 MB for ham
  Allocating        0.250 MB for eigenvec
  Required Scalapack workspace - INTEGER:            1  REAL:             1
  Partitioning the integration grid into batches with parallel hashing+maxmin method.
  | Number of batches:     3840
  | Maximal batch size:     196
  | Minimal batch size:     102
  | Average batch size:     132.700
  | Standard deviation of batch sizes:      23.846

  Integration load balanced across    18 MPI tasks.
  Work distribution over tasks is as follows:
  Task     0 has      28266 integration points.
  Task     1 has      28249 integration points.
  Task     2 has      28348 integration points.
  Task     3 has      28335 integration points.
  Task     4 has      28340 integration points.
  Task     5 has      28355 integration points.
  Task     6 has      28332 integration points.
  Task     7 has      28261 integration points.
  Task     8 has      28299 integration points.
  Task     9 has      28276 integration points.
  Task    10 has      28300 integration points.
  Task    11 has      28288 integration points.
  Task    12 has      28341 integration points.
  Task    13 has      28288 integration points.
  Task    14 has      28348 integration points.
  Task    15 has      28336 integration points.
  Task    16 has      28278 integration points.
  Task    17 has      28328 integration points.
  Initializing partition tables, free-atom densities, potentials, etc. across the integration grid (initialize_grid_storage).
  | initialize_grid_storage: Actual outermost partition radius vs. multipole_radius_free
  | (-- VB: in principle, multipole_radius_free should be larger, hence this output)
  | Species        1: Confinement radius =              4.999999999999999 AA, multipole_radius_free =              5.054417573612229 AA.
  | Species        1: outer_partition_radius set to              5.054417573612229 AA .
  | Species        2: Confinement radius =              4.999999999999999 AA, multipole_radius_free =              5.048384829883283 AA.
  | Species        2: outer_partition_radius set to              5.048384829883283 AA .
  | The sparse table of interatomic distances needs       3853.27 kbyte instead of     15213.13 kbyte of memory.
  | Net number of integration points:   509568
  | of which are non-zero points    :   412176
  | Numerical average free-atom electrostatic potential    :     -4.62848725 eV
  Renormalizing the initial density to the exact electron count on the 3D integration grid.
  | Initial density: Formal number of electrons (from input files) :     320.0000000000
  | Integrated number of electrons on 3D grid     :     320.0013417752
  | Charge integration error                      :       0.0013417752
  | Normalization factor for density and gradient :       0.9999958070
  Renormalizing the free-atom superposition density to the exact electron count on the 3D integration grid.
  | Formal number of electrons (from input files) :     320.0000000000
  | Integrated number of electrons on 3D grid     :     320.0013417752
  | Charge integration error                      :       0.0013417752
  | Normalization factor for density and gradient :       0.9999958070
  Obtaining max. number of non-zero basis functions in each batch (get_n_compute_maxes).
  | Maximal number of non-zero basis functions:      375 in task     0
  | Maximal number of non-zero basis functions:      415 in task     1
  | Maximal number of non-zero basis functions:      384 in task     2
  | Maximal number of non-zero basis functions:      413 in task     3
  | Maximal number of non-zero basis functions:      394 in task     4
  | Maximal number of non-zero basis functions:      381 in task     5
  | Maximal number of non-zero basis functions:      391 in task     6
  | Maximal number of non-zero basis functions:      380 in task     7
  | Maximal number of non-zero basis functions:      383 in task     8
  | Maximal number of non-zero basis functions:      417 in task     9
  | Maximal number of non-zero basis functions:      382 in task    10
  | Maximal number of non-zero basis functions:      393 in task    11
  | Maximal number of non-zero basis functions:      402 in task    12
  | Maximal number of non-zero basis functions:      385 in task    13
  | Maximal number of non-zero basis functions:      368 in task    14
  | Maximal number of non-zero basis functions:      402 in task    15
  | Maximal number of non-zero basis functions:      402 in task    16
  | Maximal number of non-zero basis functions:      415 in task    17
  Integrating Hamiltonian matrix: batch-based integration.
  GPU acceleration will be used when integrating the Hamiltonian matrix.
  Reporting GPU memory usage by myid 0.  Note that it is likely not the only MPI task binding to its GPU!
  Allocating        1.125 MB on GPU for hamiltonian_shell
  Allocating        0.588 MB on GPU for wave
  Allocating        0.002 MB on GPU for partition
  Allocating        0.588 MB on GPU for h_times_psi
  Time summed over all CPUs for integration: real work        9.846 s, elapsed       10.806 s
  Deallocating memory used on GPU for Hamiltonian integration.
  Integrating overlap matrix.
  Time summed over all CPUs for integration: real work        8.425 s, elapsed        8.770 s
  Deallocating overlap matrix.

  Updating Kohn-Sham eigenvalues and eigenvectors using ELSI and the ELPA eigensolver.
  Singularity check in k-point 1 (analysis for other k-points may follow below):
  Overlap matrix is not singular
  | Lowest and highest eigenvalues :  0.2273E-02,  0.6731E+01
  Finished singularity check of overlap matrix
  | Time :     0.155 s
  Starting ELPA eigensolver (GPU)
  Finished Cholesky decomposition
  | Time :     0.008 s
  Finished transformation to standard eigenproblem
  | Time :     0.028 s
  Finished solving standard eigenproblem
  | Time :     0.205 s
  Finished back-transformation of eigenvectors
  | Time :     0.015 s

  Obtaining occupation numbers and electronic chemical potential using ELSI.
  | Note that, for insulating systems, the printed 'chemical potential' value is not uniquely defined.
  | It can be anywhere in the energy gap, as long as it correctly separates occupied and unoccupied states.
  | In systems with a gap, the physically relevant chemical potential is the VBM or HOMO.

  | Chemical potential (Fermi level):    -7.41828735 eV
  Writing Kohn-Sham eigenvalues.

  State    Occupation    Eigenvalue [Ha]    Eigenvalue [eV]
      1       2.00000         -18.923885         -514.94510
      2       2.00000         -18.922775         -514.91490
      3       2.00000         -18.913013         -514.64926
      4       2.00000         -18.911585         -514.61041
      5       2.00000         -18.908866         -514.53643
      6       2.00000         -18.907702         -514.50476
      7       2.00000         -18.903498         -514.39037
      8       2.00000         -18.900041         -514.29627
      9       2.00000         -18.897832         -514.23617
     10       2.00000         -18.894510         -514.14577
     11       2.00000         -18.892046         -514.07873
     12       2.00000         -18.886193         -513.91945
     13       2.00000         -18.885422         -513.89847
     14       2.00000         -18.880404         -513.76193
     15       2.00000         -18.879390         -513.73434
     16       2.00000         -18.877279         -513.67690
     17       2.00000         -18.876195         -513.64741
     18       2.00000         -18.872132         -513.53684
     19       2.00000         -18.870625         -513.49584
     20       2.00000         -18.870549         -513.49378
     21       2.00000         -18.869118         -513.45483
     22       2.00000         -18.867324         -513.40600
     23       2.00000         -18.864900         -513.34005
     24       2.00000         -18.863406         -513.29940
     25       2.00000         -18.863328         -513.29728
     26       2.00000         -18.863209         -513.29402
     27       2.00000         -18.862678         -513.27959
     28       2.00000         -18.859211         -513.18524
     29       2.00000         -18.858203         -513.15780
     30       2.00000         -18.854748         -513.06380
     31       2.00000         -18.852463         -513.00162
     32       2.00000         -18.834356         -512.50889
     33       2.00000          -1.183823          -32.21348
     34       2.00000          -1.183485          -32.20427
     35       2.00000          -1.168659          -31.80084
     36       2.00000          -1.162559          -31.63484
     37       2.00000          -1.161753          -31.61291
     38       2.00000          -1.158930          -31.53610
     39       2.00000          -1.157448          -31.49575
     40       2.00000          -1.152013          -31.34787
     41       2.00000          -1.150653          -31.31086
     42       2.00000          -1.146545          -31.19908
     43       2.00000          -1.138496          -30.98006
     44       2.00000          -1.121922          -30.52905
     45       2.00000          -1.117691          -30.41393
     46       2.00000          -1.115041          -30.34181
     47       2.00000          -1.114051          -30.31488
     48       2.00000          -1.108423          -30.16172
     49       2.00000          -1.106418          -30.10716
     50       2.00000          -1.105913          -30.09343
     51       2.00000          -1.101612          -29.97638
     52       2.00000          -1.101232          -29.96606
     53       2.00000          -1.098775          -29.89918
     54       2.00000          -1.098397          -29.88889
     55       2.00000          -1.094235          -29.77566
     56       2.00000          -1.092379          -29.72514
     57       2.00000          -1.088429          -29.61765
     58       2.00000          -1.087587          -29.59474
     59       2.00000          -1.082516          -29.45677
     60       2.00000          -1.077872          -29.33039
     61       2.00000          -1.074776          -29.24615
     62       2.00000          -1.071918          -29.16836
     63       2.00000          -1.063949          -28.95152
     64       2.00000          -1.034606          -28.15305
     65       2.00000          -0.728368          -19.81989
     66       2.00000          -0.719310          -19.57341
     67       2.00000          -0.711472          -19.36014
     68       2.00000          -0.708538          -19.28031
     69       2.00000          -0.707664          -19.25653
     70       2.00000          -0.704418          -19.16819
     71       2.00000          -0.695021          -18.91249
     72       2.00000          -0.681563          -18.54627
     73       2.00000          -0.680573          -18.51935
     74       2.00000          -0.672849          -18.30915
     75       2.00000          -0.666688          -18.14151
     76       2.00000          -0.665491          -18.10893
     77       2.00000          -0.662950          -18.03979
     78       2.00000          -0.653546          -17.78389
     79       2.00000          -0.652267          -17.74909
     80       2.00000          -0.645715          -17.57079
     81       2.00000          -0.640190          -17.42045
     82       2.00000          -0.638806          -17.38279
     83       2.00000          -0.637300          -17.34183
     84       2.00000          -0.635041          -17.28035
     85       2.00000          -0.631176          -17.17516
     86       2.00000          -0.631025          -17.17106
     87       2.00000          -0.628257          -17.09576
     88       2.00000          -0.622742          -16.94566
     89       2.00000          -0.620663          -16.88909
     90       2.00000          -0.619427          -16.85546
     91       2.00000          -0.616052          -16.76363
     92       2.00000          -0.615475          -16.74792
     93       2.00000          -0.613128          -16.68405
     94       2.00000          -0.608468          -16.55726
     95       2.00000          -0.605469          -16.47566
     96       2.00000          -0.585075          -15.92071
     97       2.00000          -0.583608          -15.88077
     98       2.00000          -0.569523          -15.49750
     99       2.00000          -0.568013          -15.45641
    100       2.00000          -0.566643          -15.41915
    101       2.00000          -0.564710          -15.36655
    102       2.00000          -0.562257          -15.29978
    103       2.00000          -0.557419          -15.16814
    104       2.00000          -0.555548          -15.11722
    105       2.00000          -0.552329          -15.02965
    106       2.00000          -0.550894          -14.99059
    107       2.00000          -0.550599          -14.98257
    108       2.00000          -0.544712          -14.82237
    109       2.00000          -0.543929          -14.80106
    110       2.00000          -0.542447          -14.76073
    111       2.00000          -0.540683          -14.71273
    112       2.00000          -0.538587          -14.65570
    113       2.00000          -0.535422          -14.56956
    114       2.00000          -0.533111          -14.50669
    115       2.00000          -0.531642          -14.46671
    116       2.00000          -0.530561          -14.43729
    117       2.00000          -0.523854          -14.25479
    118       2.00000          -0.522277          -14.21187
    119       2.00000          -0.520518          -14.16402
    120       2.00000          -0.519399          -14.13358
    121       2.00000          -0.513803          -13.98129
    122       2.00000          -0.512552          -13.94726
    123       2.00000          -0.509785          -13.87195
    124       2.00000          -0.505702          -13.76085
    125       2.00000          -0.505036          -13.74272
    126       2.00000          -0.504008          -13.71475
    127       2.00000          -0.497970          -13.55045
    128       2.00000          -0.493036          -13.41619
    129       2.00000          -0.488458          -13.29161
    130       2.00000          -0.487682          -13.27050
    131       2.00000          -0.482909          -13.14062
    132       2.00000          -0.482659          -13.13383
    133       2.00000          -0.479885          -13.05835
    134       2.00000          -0.478760          -13.02773
    135       2.00000          -0.477349          -12.98933
    136       2.00000          -0.475505          -12.93916
    137       2.00000          -0.474748          -12.91855
    138       2.00000          -0.472983          -12.87052
    139       2.00000          -0.472554          -12.85886
    140       2.00000          -0.465969          -12.67966
    141       2.00000          -0.464120          -12.62934
    142       2.00000          -0.463031          -12.59972
    143       2.00000          -0.462163          -12.57610
    144       2.00000          -0.460422          -12.52871
    145       2.00000          -0.458177          -12.46762
    146       2.00000          -0.456235          -12.41478
    147       2.00000          -0.455205          -12.38675
    148       2.00000          -0.454281          -12.36162
    149       2.00000          -0.454041          -12.35509
    150       2.00000          -0.453351          -12.33630
    151       2.00000          -0.452047          -12.30083
    152       2.00000          -0.450994          -12.27218
    153       2.00000          -0.450524          -12.25937
    154       2.00000          -0.446979          -12.16291
    155       2.00000          -0.446344          -12.14563
    156       2.00000          -0.445602          -12.12544
    157       2.00000          -0.441497          -12.01374
    158       2.00000          -0.440638          -11.99038
    159       2.00000          -0.439181          -11.95073
    160       2.00000          -0.429344          -11.68305
    161       0.00000          -0.166614           -4.53380
    162       0.00000          -0.114688           -3.12081
    163       0.00000          -0.113575           -3.09053
    164       0.00000          -0.110518           -3.00734
    165       0.00000          -0.108255           -2.94577
    166       0.00000          -0.104989           -2.85689
    167       0.00000          -0.094839           -2.58071
    168       0.00000          -0.074900           -2.03813
    169       0.00000          -0.068500           -1.86398
    170       0.00000          -0.065337           -1.77790
    171       0.00000          -0.060906           -1.65733
    172       0.00000          -0.059146           -1.60943
    173       0.00000          -0.056971           -1.55027
    174       0.00000          -0.054516           -1.48346
    175       0.00000          -0.049248           -1.34012
    176       0.00000          -0.047852           -1.30212
    177       0.00000          -0.042007           -1.14307
    178       0.00000          -0.030732           -0.83626
    179       0.00000          -0.022203           -0.60416
    180       0.00000          -0.016032           -0.43626
    181       0.00000          -0.009741           -0.26506
    182       0.00000          -0.005861           -0.15949
    183       0.00000          -0.001729           -0.04704
    184       0.00000           0.004390            0.11946
    185       0.00000           0.008872            0.24143
    186       0.00000           0.009813            0.26703
    187       0.00000           0.017866            0.48615
    188       0.00000           0.020790            0.56573
    189       0.00000           0.027005            0.73485
    190       0.00000           0.027969            0.76107
    191       0.00000           0.029786            0.81051
    192       0.00000           0.033715            0.91743
    193       0.00000           0.036926            1.00480
    194       0.00000           0.039349            1.07075
    195       0.00000           0.042520            1.15703
    196       0.00000           0.045959            1.25061
    197       0.00000           0.049158            1.33766
    198       0.00000           0.053719            1.46176
    199       0.00000           0.054020            1.46995
    200       0.00000           0.058520            1.59242
    201       0.00000           0.063424            1.72585
    202       0.00000           0.064800            1.76330
    203       0.00000           0.066483            1.80910
    204       0.00000           0.070064            1.90654
    205       0.00000           0.071858            1.95535
    206       0.00000           0.075506            2.05462
    207       0.00000           0.079031            2.15056
    208       0.00000           0.080593            2.19304
    209       0.00000           0.080750            2.19733
    210       0.00000           0.082469            2.24409
    211       0.00000           0.085885            2.33706
    212       0.00000           0.086764            2.36096
    213       0.00000           0.091462            2.48881
    214       0.00000           0.096398            2.62312
    215       0.00000           0.097910            2.66426
    216       0.00000           0.101635            2.76563
    217       0.00000           0.104219            2.83593
    218       0.00000           0.107454            2.92398
    219       0.00000           0.110948            3.01906
    220       0.00000           0.115443            3.14137
    221       0.00000           0.119120            3.24141
    222       0.00000           0.130967            3.56381
    223       0.00000           0.133046            3.62036
    224       0.00000           0.135433            3.68532
    225       0.00000           0.138833            3.77783
    226       0.00000           0.143893            3.91553
    227       0.00000           0.148337            4.03646
    228       0.00000           0.157494            4.28564
    229       0.00000           0.161258            4.38806
    230       0.00000           0.167104            4.54713
    231       0.00000           0.173568            4.72303
    232       0.00000           0.180921            4.92310
    233       0.00000           0.187055            5.09002
    234       0.00000           0.188001            5.11577
    235       0.00000           0.199325            5.42391
    236       0.00000           0.201500            5.48310
    237       0.00000           0.205885            5.60242
    238       0.00000           0.213982            5.82275
    239       0.00000           0.218618            5.94890
    240       0.00000           0.224752            6.11582
    241       0.00000           0.225861            6.14598
    242       0.00000           0.229054            6.23287
    243       0.00000           0.233924            6.36538
    244       0.00000           0.240629            6.54785
    245       0.00000           0.250445            6.81496
    246       0.00000           0.255108            6.94183
    247       0.00000           0.255728            6.95871
    248       0.00000           0.262803            7.15122
    249       0.00000           0.269446            7.33200
    250       0.00000           0.273658            7.44661
    251       0.00000           0.282590            7.68966
    252       0.00000           0.287657            7.82756
    253       0.00000           0.291765            7.93934
    254       0.00000           0.297826            8.10425
    255       0.00000           0.300384            8.17387
    256       0.00000           0.303937            8.27054
    257       0.00000           0.305755            8.32001
    258       0.00000           0.313662            8.53519
[...]
  |    H      0     4.527807 A      4.527807 A        1.268855E-16 a.u.
  |    H      0     4.527807 A      4.583499 A       -4.900954E-17 a.u.
  |    H      0     4.527807 A      4.583499 A        4.713786E-16 a.u.
  |    H      2     3.678162 A  2.180220E+05 A            0.556529 a.u.
  |    H      1     3.958095 A  1.721251E+08 A            0.841931 a.u.
  |    H      0     4.527807 A  3.866455E+16 A            0.581436 a.u.
  |    O      0     2.043000 A      2.043000 A       -1.436841E-16 a.u.
  |    O      3     3.498446 A      3.498446 A        3.043453E-17 a.u.
  |    O      3     3.498446 A      3.498446 A        1.541443E-16 a.u.
  |    O      0     3.905335 A      3.905335 A        2.173090E-16 a.u.
  |    O      0     3.905335 A      3.905335 A        7.213445E-17 a.u.
  |    O      0     4.101052 A      4.101052 A        2.361718E-16 a.u.
  |    O      1     4.101052 A      4.101052 A        3.235185E-17 a.u.
  |    O      0     4.359549 A      4.359549 A       -5.329475E-17 a.u.
  |    O      1     4.413171 A      4.413171 A        3.261883E-17 a.u.
  |    O      1     4.522403 A      4.522403 A        6.417997E-16 a.u.
  |    O      1     4.522403 A      4.522403 A        4.224783E-16 a.u.
  |    O      2     4.522403 A      4.522403 A       -4.387647E-16 a.u.
  |    O      0     4.522403 A      4.578029 A        2.602039E-16 a.u.
  |    O      0     4.578029 A      4.578029 A        1.226235E-16 a.u.
  |    O      1     4.578029 A      4.578029 A       -6.107316E-16 a.u.
  |    O      1     4.578029 A      4.578029 A       -2.224438E-16 a.u.
  |    O      2     4.578029 A      4.578029 A       -7.020279E-16 a.u.
  |    O      2     4.522403 A      4.578029 A        1.323470E-15 a.u.
  |    O      2     4.578029 A      4.578029 A        7.923696E-16 a.u.
  |    O      2     4.522403 A      4.578029 A       -9.951815E-16 a.u.
  |    O      0     4.578029 A      4.634338 A       -8.813582E-18 a.u.
  |    O      1     4.578029 A      4.634338 A       -3.325386E-17 a.u.
  |    O      1     4.634338 A      4.634338 A        9.588032E-16 a.u.
  |    O      2     4.578029 A      4.634338 A        1.064715E-17 a.u.
  |    O      2     4.578029 A      4.634338 A       -3.770343E-15 a.u.
  |    O      4     3.251020 A  1.511584E+03 A            1.513372 a.u.
  |    O      3     3.541477 A  1.434166E+04 A            4.293220 a.u.
  |    O      2     4.634338 A  5.584435E+05 A            9.352428 a.u.
  |    O      1     4.634338 A  2.821283E+08 A            2.261940 a.u.
  |    O      0     4.578029 A  4.264100E+16 A            0.641234 a.u.

  | Shrink_full_auxil_basis : there are       38  radial auxiliary wave functions
                            accepted and       5 rejected.
  | Shrink_full_auxil_basis : there are totally                4544 partial auxiliary wave functions.
 
  | Maximal number of product basis functions per thread :   256   256
 
  | Minimal total memory requirement for three-center overlap :      10.450 Gbs
  | Number of local auxiliary basis functions on task:      0   256
  | Number of local auxiliary basis functions on task:      1   256
  | Number of local auxiliary basis functions on task:      2   256
  | Number of local auxiliary basis functions on task:      3   256
  | Number of local auxiliary basis functions on task:      4   256
  | Number of local auxiliary basis functions on task:      5   256
  | Number of local auxiliary basis functions on task:      6   256
  | Number of local auxiliary basis functions on task:      7   256
  | Number of local auxiliary basis functions on task:      8   256
  | Number of local auxiliary basis functions on task:      9   256
  | Number of local auxiliary basis functions on task:     10   256
  | Number of local auxiliary basis functions on task:     11   256
  | Number of local auxiliary basis functions on task:     12   256
  | Number of local auxiliary basis functions on task:     13   256
  | Number of local auxiliary basis functions on task:     14   240
  | Number of local auxiliary basis functions on task:     15   240
  | Number of local auxiliary basis functions on task:     16   240
  | Number of local auxiliary basis functions on task:     17   240
  | 2D aux task distribution:      3 X      6
  | 2D block size (nb_aux_2d):     64
 
  Basis pair condensation :    295296  -->     209802
 
 --------------------------------------------
  Constructing auxiliary basis (full product) ...
 
  Product basis:
  | charge radius: extent of product basis function
  | field radius: extent of its Coulomb potential
  | Species   l  charge radius    field radius  multipol momen
  |    H      1     3.910002 A      3.910002 A       -2.487223E-16 a.u.
  |    H      1     3.958095 A      3.958095 A       -2.441841E-16 a.u.
  |    H      0     4.527807 A      4.527807 A        1.268855E-16 a.u.
  |    H      0     4.527807 A      4.583499 A       -4.900954E-17 a.u.
  |    H      0     4.527807 A      4.583499 A        4.713786E-16 a.u.
  |    H      2     3.678162 A  2.180220E+05 A            0.556529 a.u.
  |    H      1     3.958095 A  1.721251E+08 A            0.841931 a.u.
  |    H      0     4.527807 A  3.866455E+16 A            0.581436 a.u.
  |    O      0     2.043000 A      2.043000 A       -1.436841E-16 a.u.
  |    O      3     3.498446 A      3.498446 A        3.043453E-17 a.u.
  |    O      3     3.498446 A      3.498446 A        1.541443E-16 a.u.
  |    O      0     3.905335 A      3.905335 A        2.173090E-16 a.u.
  |    O      0     3.905335 A      3.905335 A        7.213445E-17 a.u.
  |    O      0     4.101052 A      4.101052 A        2.361718E-16 a.u.
  |    O      1     4.101052 A      4.101052 A        3.235185E-17 a.u.
  |    O      0     4.359549 A      4.359549 A       -5.329475E-17 a.u.
  |    O      1     4.413171 A      4.413171 A        3.261883E-17 a.u.
  |    O      1     4.522403 A      4.522403 A        6.417997E-16 a.u.
  |    O      1     4.522403 A      4.522403 A        4.224783E-16 a.u.
  |    O      2     4.522403 A      4.522403 A       -4.387647E-16 a.u.
  |    O      0     4.522403 A      4.578029 A        2.602039E-16 a.u.
  |    O      0     4.578029 A      4.578029 A        1.226235E-16 a.u.
  |    O      1     4.578029 A      4.578029 A       -6.107316E-16 a.u.
  |    O      1     4.578029 A      4.578029 A       -2.224438E-16 a.u.
  |    O      2     4.578029 A      4.578029 A       -7.020279E-16 a.u.
  |    O      2     4.522403 A      4.578029 A        1.323470E-15 a.u.
  |    O      2     4.578029 A      4.578029 A        7.923696E-16 a.u.
  |    O      2     4.522403 A      4.578029 A       -9.951815E-16 a.u.
  |    O      0     4.578029 A      4.634338 A       -8.813582E-18 a.u.
  |    O      1     4.578029 A      4.634338 A       -3.325386E-17 a.u.
  |    O      1     4.634338 A      4.634338 A        9.588032E-16 a.u.
  |    O      2     4.578029 A      4.634338 A        1.064715E-17 a.u.
  |    O      2     4.578029 A      4.634338 A       -3.770343E-15 a.u.
  |    O      4     3.251020 A  1.511584E+03 A            1.513372 a.u.
  |    O      3     3.541477 A  1.434166E+04 A            4.293220 a.u.
  |    O      2     4.634338 A  5.584435E+05 A            9.352428 a.u.
  |    O      1     4.634338 A  2.821283E+08 A            2.261940 a.u.
  |    O      0     4.578029 A  4.264100E+16 A            0.641234 a.u.

  | Shrink_full_auxil_basis : there are       38  radial auxiliary wave functions
                            accepted and       5 rejected.
  | Shrink_full_auxil_basis : there are totally                4544 partial auxiliary wave functions.
 
  | Maximal number of product basis functions per thread :   256   256
 
  | Minimal total memory requirement for three-center overlap :      10.450 Gbs
  | Number of local auxiliary basis functions on task:      0   256
  | Number of local auxiliary basis functions on task:      1   256
  | Number of local auxiliary basis functions on task:      2   256
  | Number of local auxiliary basis functions on task:      3   256
  | Number of local auxiliary basis functions on task:      4   256
  | Number of local auxiliary basis functions on task:      5   256
  | Number of local auxiliary basis functions on task:      6   256
  | Number of local auxiliary basis functions on task:      7   256
  | Number of local auxiliary basis functions on task:      8   256
  | Number of local auxiliary basis functions on task:      9   256
  | Number of local auxiliary basis functions on task:     10   256
  | Number of local auxiliary basis functions on task:     11   256
  | Number of local auxiliary basis functions on task:     12   256
  | Number of local auxiliary basis functions on task:     13   256
  | Number of local auxiliary basis functions on task:     14   240
  | Number of local auxiliary basis functions on task:     15   240
  | Number of local auxiliary basis functions on task:     16   240
  | Number of local auxiliary basis functions on task:     17   240
  | 2D aux task distribution:      3 X      6
  | 2D block size (nb_aux_2d):     64
 
  Basis pair condensation :    295296  -->     209802
dP_dE (Bohr^3) at every cycle:--->
 (314.413478822183,0.000000000000000E+000) (1.82204766582516,0.000000000000000E+000) (-3.11483875207588,0.000000000000000E+000)
 (1.80832650285262,0.000000000000000E+000) (333.157530516096,0.000000000000000E+000) (-9.81773970113743,0.000000000000000E+000)
 (-3.10908449122207,0.000000000000000E+000) (-9.83424467729000,0.000000000000000E+000) (327.390431506856,0.000000000000000E+000)
DFPT polarizability (Bohr^3)        xx        yy        zz        xy        xz        yz
  | Polarizability:--->                       314.413478822                  333.157530516                  327.390431507                    1.822047666                   -3.114838752                   -9.817739701

DFPT for dielectric_constant:--->  # PARSE DFPT_dielectric_tensor
               1.520001751443829             0.003013445800710            -0.005151565424651
               0.002990752661712             1.551002139043308            -0.016237350443549
              -0.005142048575267            -0.016264647671832             1.541464056907679

                                               :  max(cpu_time)    wall_clock(cpu1)
  | Time for  dielectric calculation            :        0.000 s           0.001 s
===========================================================================

------------------------------------------------------------------------------
  Final output of selected total energy values:

  The following output summarizes some interesting total energy values
  at the end of a run (AFTER all relaxation, molecular dynamics, etc.).

  | Total energy of the DFT / Hartree-Fock s.c.f. calculation      :         -66105.014084057 eV
  | Final zero-broadening corrected energy (caution - metals only) :         -66105.014084057 eV
  | For reference only, the value of 1 Hartree used in FHI-aims is :             27.211384500 eV
  | For reference only, the overall average (free atom contribution
  | + realspace contribution) of the electrostatic potential after
  | s.c.f. convergence is                                          :             -4.225032618 eV

  Before relying on these values, please be sure to understand exactly which
  total energy value is referred to by a given number. Different objects may
  all carry the same name 'total energy'. Definitions:

  Total energy of the DFT / Hartree-Fock s.c.f. calculation:
  | Note that this energy does not include ANY quantities calculated after the
  | s.c.f. cycle, in particular not ANY RPA, MP2, etc. many-body perturbation terms.

  Final zero-broadening corrected energy:
  | For metallic systems only, a broadening of the occupation numbers at the Fermi
  | level can be extrapolated back to zero broadening by an electron-gas inspired
  | formula. For all systems that are not real metals, this value can be
  | meaningless and should be avoided.

------------------------------------------------------------------------------
  Methods described in the following list of references were used in this FHI-aims run.
  If you publish the results, please make sure to cite these reference if they apply.
  FHI-aims is an academic code, and for our developers (often, Ph.D. students
  and postdocs), scientific credit in the community is essential.
  Thank you for helping us!

  For any use of FHI-aims, please cite:

    Volker Blum, Ralf Gehrke, Felix Hanke, Paula Havu, Ville Havu,
    Xinguo Ren, Karsten Reuter, and Matthias Scheffler
    'Ab initio molecular simulations with numeric atom-centered orbitals'
    Computer Physics Communications 180, 2175-2196 (2009)
    http://doi.org/10.1016/j.cpc.2009.06.022


  For Hartree-Fock, hybrid functionals, or many-body perturbation theory used in your run, please cite:

    Xinguo Ren, Patrick Rinke, Volker Blum, Juergen Wieferink, Alex Tkatchenko,
    Andrea Sanfilippo, Karsten Reuter, and Matthias Scheffler,
    'Resolution-of-identity approach to Hartree-Fock, hybrid density functionals,
    RPA, MP2, and GW with numeric atom-centered orbital basis functions'
    New Journal of Physics 14, 053020 (2012).
    http://doi.org/10.1088/1367-2630/14/5/053020


  The provided symmetry information was generated with SPGlib:

    Atsushi Togo, Yusuke Seto, Dimitar Pashov
    SPGlib 1.7.3 obtained from http://spglib.sourceforge.net
    Copyright (C) 2008 Atsushi Togo


  The DFPT (perturbation by an electric field) part of the code was used.
  Here is the corresponding reference:

    Honghui Shang, Nathaniel Raimbault, Mariana Rossi,
    Christian Carbogno, Patrick Rinke and Matthias Scheffler,
    'All-Electron, Real-Space Perturbation Theory for Homogeneous
    Electric Fields: Theory, Implementation, and Application within dft'
    New Journal of Physics, 20(7):073040, 2018


  The ELSI infrastructure was used in your run to solve the Kohn-Sham electronic structure.
  Please check out http://elsi-interchange.org to learn more.
  If scalability is important for your project, please acknowledge ELSI by citing:

    V. W-z. Yu, F. Corsetti, A. Garcia, W. P. Huhn, M. Jacquelin, W. Jia,
    B. Lange, L. Lin, J. Lu, W. Mi, A. Seifitokaldani, A. Vazquez-Mayagoitia,
    C. Yang, H. Yang, and V. Blum
    'ELSI: A unified software interface for Kohn-Sham electronic structure solvers'
    Computer Physics Communications 222, 267-285 (2018).
    http://doi.org/10.1016/j.cpc.2017.09.007


  For the real-space grid partitioning and parallelization used in this calculation, please cite:

    Ville Havu, Volker Blum, Paula Havu, and Matthias Scheffler,
    'Efficient O(N) integration for all-electron electronic structure calculation'
    'using numerically tabulated basis functions'
    Journal of Computational Physics 228, 8367-8379 (2009).
    http://doi.org/10.1016/j.jcp.2009.08.008


  The high-level electronic structure method used in your calculation
  employed our efficient localized resolution of identity for the Coulomb operator.
  Some calculations, especially large-scale hybrid density functional theory,
  are only possible thanks to this development. For this feature, please cite:

    Arvid Ihrig, Juergen Wieferink, Igor Ying Zhang, Matti Ropo, Xinguo Ren,
    Patrick Rinke, Matthias Scheffler, and Volker Blum,
    'Accurate localized resolution of identity approach for linear-scaling
    hybrid density functionals and for many-body perturbation theory'
    New Journal of Physics 117, 093020 (2015).
    http://doi.org/10.1088/1367-2630/17/9/093020

  Of course, there are many other important community references, e.g., those cited in the
  above references. Our list is limited to references that describe implementations in the
  FHI-aims code. The reason is purely practical (length of this list) - please credit others as well.

------------------------------------------------------------
          Leaving FHI-aims.
          Date     :  20230221, Time     :  131606.476

          Computational steps:
          | Number of self-consistency cycles          :           45
          | Number of SCF (re)initializations          :            1
          | Number of coupled perturbed self-consistency cycles          :            0
          | Number of CPSCF (re)initializations          :            0

          Detailed time accounting                     :  max(cpu_time)    wall_clock(cpu1)
          | Total time                                  :      377.625 s         390.349 s
          | GPU initialization                          :        2.179 s          10.579 s
          | Preparation time                            :        0.069 s           0.061 s
          | Boundary condition initalization            :        1.309 s           1.309 s
          | Grid partitioning                           :        0.417 s           0.417 s
          | Preloading free-atom quantities on grid     :        1.927 s           1.927 s
          | Free-atom superposition energy              :        0.280 s           0.280 s
          | Total time for integrations                 :       11.025 s          11.233 s
          | Product basis setup: Total time             :        0.000 s           0.000 s
          | Product basis: | 2-center integrations     :(       0.000 s)  (       0.000 s)
          | Product basis: | LVL 3-center & coefficient:(       0.000 s)  (       0.000 s)
          | Total time for solution of K.-S. equations  :        2.542 s           5.630 s
          | Total time for density update               :        7.467 s           7.742 s
          | Total time for mixing & preconditioning     :        8.541 s           8.546 s
          | Total time for Hartree multipole update     :        0.100 s           0.100 s
          | Total time for Hartree multipole sum        :       35.862 s          35.870 s
          | Total time for total energy evaluation      :        0.008 s           0.004 s
          | Total time for DFPT                         :      305.414 s         305.538 s
          | Total time first_order_DM                   :        0.259 s           0.260 s
          | Total time first_order_density              :       62.223 s          62.227 s
          | Total time first_order_potential            :       50.708 s          50.729 s
          | Total time first_order_H                    :      120.711 s         120.762 s
          | Total time solving of Sternheimer equations :        0.172 s           0.173 s
          | Total time for dielectric constant          :        0.000 s           0.001 s
          | Total time momentum matrix                  :        0.000 s           0.000 s

          GPU acceleration has been used for charge density update.
          GPU acceleration has been used for real-space Hamiltonian integration.
          Due to GPU usage, wall_clock(cpu1) will give a more reliable estimate for timings.

          Partial memory accounting:
          | Residual value for overall tracked memory usage across tasks:     0.000000 MB (should be 0.000000 MB)
          | Peak values for overall tracked memory usage:
          |   Minimum:      100.979 MB (on task  0 after allocating DFPT_pulay_mixing::pulay_mix::alphas)
          |   Maximum:      100.979 MB (on task  0 after allocating DFPT_pulay_mixing::pulay_mix::alphas)
          |   Average:      100.979 MB
          | Largest tracked array allocation:
          |   Minimum:       35.979 MB (DFPT_pulay_mixing::initialize_pulay_mixing::X_in_diffs on task  0)
          |   Maximum:       35.979 MB (DFPT_pulay_mixing::initialize_pulay_mixing::X_in_diffs on task  0)
          |   Average:       35.979 MB
          Note:  These values currently only include a subset of arrays which are explicitly tracked.
          The "true" memory usage will be greater.

          Have a nice day.
------------------------------------------------------------
