------------------------------------------------------------
          Invoking FHI-aims ...

          When using FHI-aims, please cite the following reference:

            Volker Blum, Ralf Gehrke, Felix Hanke, Paula Havu,
            Ville Havu, Xinguo Ren, Karsten Reuter, and Matthias Scheffler,
            'Ab Initio Molecular Simulations with Numeric Atom-Centered Orbitals',
            Computer Physics Communications 180, 2175-2196 (2009)

          In addition, many other developments in FHI-aims are likely important for
          your particular application. A partial list of references is given at the end of
          this file. Thank you for giving credit to the authors of these developments.

          For any questions about FHI-aims, please visit our slack channel at

            https://fhi-aims.slack.com

          and our main development and support site at

            https://aims-git.rz-berlin.mpg.de .

          The latter site, in particular, has a wiki to collect information, as well
          as an issue tracker to log discussions, suggest improvements, and report issues
          or bugs. https://aims-git.rz-berlin.mpg.de is also the main development site
          of the project and all new and updated code versions can be obtained there.
          Please send an email to aims-coordinators@fhi-berlin.mpg.de and we will add
          you to these sites. They are for you and everyone is welcome there.

------------------------------------------------------------



  Date     :  20230221, Time     :  145538.013
  Time zero on CPU 1             :   0.405419000000000E+00  s.
  Internal wall clock time zero  :           446223338.013  s.

  FHI-aims created a unique identifier for this run for later identification
  aims_uuid : 050A5815-B350-423F-AD4C-8B75C55E5AB5

  Build configuration of the current instance of FHI-aims
  -------------------------------------------------------
  FHI-aims version      : 221103
  Commit number         : 42523251a
  CMake host system     : Linux-5.3.18-150300.59.68-default
  CMake version         : 3.17.0
  Fortran compiler      : /mpcdf/soft/SLE_15/packages/x86_64/intel_oneapi/2021.3/mpi/2021.3.0/bin/mpiifort (Intel) version 20.2.3.20210609
  Fortran compiler flags: -O3 -ip -fp-model precise
  C compiler            : /mpcdf/soft/SLE_15/packages/x86_64/intel/2021.3.0/bin/icc (Intel) version 20.2.3.20210609
  C compiler flags      : -O3 -ip -fp-model precise -std=gnu99
  CUDA compiler         : /mpcdf/soft/SLE_15/packages/x86_64/cuda/11.6.2/bin/nvcc
  CUDA compiler flags   : -O3 -DAdd_ -lcublas
  HIP compiler          :
  HIP compiler flags    :
  HIP GPU arch          :
  ELPA2 kernel          : AVX512
  Using MPI
  Using ScaLAPACK
  Using LibXC
  Using CUDA
  Using i-PI
  Using RLSY
  Linking against: /mpcdf/soft/SLE_15/packages/x86_64/cuda/11.6.2/lib64/libcublas.so
                   /mpcdf/soft/SLE_15/packages/x86_64/cuda/11.6.2/lib64/libcudart.so
                   /mpcdf/soft/SLE_15/packages/x86_64/intel_oneapi/2021.3/mkl/latest/lib/intel64/libmkl_intel_lp64.so
                   /mpcdf/soft/SLE_15/packages/x86_64/intel_oneapi/2021.3/mkl/latest/lib/intel64/libmkl_sequential.so
                   /mpcdf/soft/SLE_15/packages/x86_64/intel_oneapi/2021.3/mkl/latest/lib/intel64/libmkl_core.so
                   /mpcdf/soft/SLE_15/packages/x86_64/intel_oneapi/2021.3/mkl/latest/lib/intel64/libmkl_blacs_intelmpi_lp64.so
                   /mpcdf/soft/SLE_15/packages/x86_64/intel_oneapi/2021.3/mkl/latest/lib/intel64/libmkl_scalapack_lp64.so

  Using       18 parallel tasks.
  Task        0 on host adag040 reporting.
  Task        1 on host adag040 reporting.
  Task        2 on host adag040 reporting.
  Task        3 on host adag040 reporting.
  Task        4 on host adag040 reporting.
  Task        5 on host adag040 reporting.
  Task        6 on host adag040 reporting.
  Task        7 on host adag040 reporting.
  Task        8 on host adag040 reporting.
  Task        9 on host adag040 reporting.
  Task       10 on host adag040 reporting.
  Task       11 on host adag040 reporting.
  Task       12 on host adag040 reporting.
  Task       13 on host adag040 reporting.
  Task       14 on host adag040 reporting.
  Task       15 on host adag040 reporting.
  Task       16 on host adag040 reporting.
  Task       17 on host adag040 reporting.

  Obtaining array dimensions for all initial allocations:
  
  -----------------------------------------------------------------------
  Parsing control.in (first pass over file, find array dimensions only).
  The contents of control.in will be repeated verbatim below
  unless switched off by setting 'verbatim_writeout .false.' .
  in the first line of control.in .
  -----------------------------------------------------------------------
  
  #########################################################################################
  #
  #  Volker Blum, 2017 : Test run input file control.in for simple H2O
  #
  #########################################################################################
  #
  #  Physical model
  #
    xc                 pw-lda
    spin               none
    relativistic       none
    charge             0.
  
    use_gpu
  
    DFPT dielectric
    ri_density_restart write
    ri_rho1 write
  #  ri_density_restart read 0
  #  ri_rho1 read
    ri_full_output .true.
    sc_accuracy_rho    1d-6
  #  use_calculate_fock_matrix_old .false.
  #  wave_threshold 1e-8
    k_grid 1 1 1
  #  output cube eigenstate 160
  #  output cube eigenstate 161
    wave_threshold 1e-8
    default_prodbas_acc 1e-6
    default_max_l_prodbas 6
  #
  #  Relaxation
  #
  #  relax_geometry   bfgs 1.e-2
  #
  
  ################################################################################
  
  
  ################################################################################
  #
  #  FHI-aims code project
  #  VB, Fritz-Haber Institut, 2009
  #
  #  Suggested "light" defaults for H atom (to be pasted into control.in file)
  #  Be sure to double-check any results obtained with these settings for post-processing,
  #  e.g., with the "tight" defaults and larger basis sets.
  #
  ################################################################################
    species        H
  #     global species definitions
      nucleus             1
      mass                1.00794
  #
      l_hartree           4
  #
      cut_pot             3.5  1.5  1.0
      basis_dep_cutoff    1e-4
  #
      radial_base         24 5.0
      radial_multiplier   1
      angular_grids       specified
        division   0.2421   50
        division   0.3822  110
        division   0.4799  194
        division   0.5341  302
  #      division   0.5626  434
  #      division   0.5922  590
  #      division   0.6542  770
  #      division   0.6868 1202
  #      outer_grid  770
        outer_grid  302
  ################################################################################
  #
  #  Definition of "minimal" basis
  #
  ################################################################################
  #     valence basis states
      valence      1  s   1.
  #     ion occupancy
      ion_occ      1  s   0.5
  ################################################################################
  #
  #  Suggested additional basis functions. For production calculations,
  #  uncomment them one after another (the most important basis functions are
  #  listed first).
  #
  #  Basis constructed for dimers: 0.5 A, 0.7 A, 1.0 A, 1.5 A, 2.5 A
  #
  ################################################################################
  #  "First tier" - improvements: -1014.90 meV to -62.69 meV
       hydro 2 s 2.1
       hydro 2 p 3.5
  #  "Second tier" - improvements: -12.89 meV to -1.83 meV
  #     hydro 1 s 0.85
  #     hydro 2 p 3.7
  #     hydro 2 s 1.2
  #     hydro 3 d 7
  #  "Third tier" - improvements: -0.25 meV to -0.12 meV
  #     hydro 4 f 11.2
  #     hydro 3 p 4.8
  #     hydro 4 d 9
  #     hydro 3 s 3.2
  ################################################################################
  #
  #  FHI-aims code project
  #  VB, Fritz-Haber Institut, 2009
  #
  #  Suggested "light" defaults for O atom (to be pasted into control.in file)
  #  Be sure to double-check any results obtained with these settings for post-processing,
  #  e.g., with the "tight" defaults and larger basis sets.
  #
  ################################################################################
    species        O
  #     global species definitions
      nucleus             8
      mass                15.9994
  #
      l_hartree           4
  #
      cut_pot             3.5  1.5  1.0
      basis_dep_cutoff    1e-4
  #
      radial_base         36 5.0
      radial_multiplier   1
       angular_grids specified
        division   0.2659   50
        division   0.4451  110
        division   0.6052  194
        division   0.7543  302
  #      division   0.8014  434
  #      division   0.8507  590
  #      division   0.8762  770
  #      division   0.9023  974
  #      division   1.2339 1202
  #      outer_grid 974
        outer_grid 302
  ################################################################################
  #
  #  Definition of "minimal" basis
  #
  ################################################################################
  #     valence basis states
      valence      2  s   2.
      valence      2  p   4.
  #     ion occupancy
      ion_occ      2  s   1.
      ion_occ      2  p   3.
  ################################################################################
  #
  #  Suggested additional basis functions. For production calculations,
  #  uncomment them one after another (the most important basis functions are
  #  listed first).
  #
  #  Constructed for dimers: 1.0 A, 1.208 A, 1.5 A, 2.0 A, 3.0 A
  #
  ################################################################################
  #  "First tier" - improvements: -699.05 meV to -159.38 meV
       hydro 2 p 1.8
       hydro 3 d 7.6
       hydro 3 s 6.4
  #  "Second tier" - improvements: -49.91 meV to -5.39 meV
  #     hydro 4 f 11.6
  #     hydro 3 p 6.2
  #     hydro 3 d 5.6
  #     hydro 5 g 17.6
  #     hydro 1 s 0.75
  #  "Third tier" - improvements: -2.83 meV to -0.50 meV
  #     ionic 2 p auto
  #     hydro 4 f 10.8
  #     hydro 4 d 4.7
  #     hydro 2 s 6.8
  #  "Fourth tier" - improvements: -0.40 meV to -0.12 meV
  #     hydro 3 p 5
  #     hydro 3 s 3.3
  #     hydro 5 g 15.6
  #     hydro 4 f 17.6
  #     hydro 4 d 14
  # Further basis functions - -0.08 meV and below
  #     hydro 3 s 2.1
  #     hydro 4 d 11.6
  #     hydro 3 p 16
  #     hydro 2 s 17.2
  
  -----------------------------------------------------------------------
  Completed first pass over input file control.in .
  -----------------------------------------------------------------------
  
  
  -----------------------------------------------------------------------
  Parsing geometry.in (first pass over file, find array dimensions only).
  The contents of geometry.in will be repeated verbatim below
  unless switched off by setting 'verbatim_writeout .false.' .
  in the first line of geometry.in .
  -----------------------------------------------------------------------
  
  #=======================================================
  # FHI-aims file: /ada/ptmp/mpsd/alewis/bulk_water/qmdata/data/geoms/469.in
  # Created using the Atomic Simulation Environment (ASE)
  # Tue Feb 21 11:23:37 2023
  #=======================================================
  lattice_vector 10.0783600000000000 0.0000000000000000 0.0000000000000000
  lattice_vector 0.0000000000000000 10.0783600000000000 0.0000000000000000
  lattice_vector 0.0000000000000000 0.0000000000000000 10.0783600000000000
  atom 23.9104999999999990 14.3391000000000002 10.0061999999999998 O
  atom 24.3709999999999987 14.1896000000000004 9.2251300000000001 H
  atom 24.0579999999999998 13.5478000000000005 10.4154999999999998 H
  atom 28.7825999999999986 29.4039999999999999 5.6341099999999997 O
  atom 29.0258000000000003 30.0504999999999995 4.9289199999999997 H
  atom 29.3584999999999994 29.6437999999999988 6.5597899999999996 H
  atom -5.2009100000000004 14.0079999999999991 -2.8268700000000000 O
  atom -4.6666999999999996 13.3999000000000006 -2.6287799999999999 H
  atom -4.6914100000000003 14.5266000000000002 -3.2617400000000001 H
  atom -6.9215900000000001 -29.3148000000000017 8.8389399999999991 O
  atom -6.4077099999999998 -29.3413000000000004 9.6334300000000006 H
  atom -7.6846800000000002 -29.6296999999999997 9.2012900000000002 H
  atom 2.6765699999999999 -13.5503000000000000 16.9640999999999984 O
  atom 3.6356299999999999 -13.0418000000000003 16.9599000000000011 H
  atom 2.3391400000000000 -12.8001000000000005 17.2452000000000005 H
  atom 6.3745300000000000 7.8907299999999996 19.4800000000000004 O
  atom 5.6005399999999996 7.4930300000000001 20.0455000000000005 H
  atom 6.8962300000000001 7.0740999999999996 19.2241999999999997 H
  atom 25.7500999999999998 6.3695800000000000 -4.2919900000000002 O
  atom 26.5497000000000014 6.4445600000000001 -3.6592600000000002 H
  atom 25.9228999999999985 6.8068499999999998 -5.1515100000000000 H
  atom -45.5467000000000013 -21.2618000000000009 -22.9116999999999997 O
  atom -45.9909000000000034 -20.6960000000000015 -22.4713999999999992 H
  atom -45.0086999999999975 -21.7061999999999991 -22.2310000000000016 H
  atom -22.2741000000000007 12.6731999999999996 5.0479500000000002 O
  atom -21.8618999999999986 13.5588999999999995 4.9425100000000004 H
  atom -21.8069999999999986 12.0274999999999999 4.5431499999999998 H
  atom 11.7946000000000009 -20.4635999999999996 25.5585999999999984 O
  atom 11.4283000000000001 -21.0555999999999983 26.3218999999999994 H
  atom 11.5434000000000001 -19.5999000000000017 25.8861999999999988 H
  atom -9.0375899999999998 -7.7272900000000000 7.6927500000000002 O
  atom -8.2038700000000002 -8.0140700000000002 8.0117600000000007 H
  atom -8.5124499999999994 -7.2321900000000001 6.9875299999999996 H
  atom 27.1145999999999994 12.1770999999999994 -2.1800999999999999 O
  atom 27.7484999999999999 12.7814999999999994 -1.8447300000000000 H
  atom 27.2225999999999999 11.9989000000000008 -3.1081900000000000 H
  atom -15.8810000000000002 -8.2771299999999997 -8.8613999999999997 O
  atom -16.8825000000000003 -8.2554099999999995 -8.6506299999999996 H
  atom -15.5336999999999996 -7.5750200000000003 -8.3920300000000001 H
  atom -11.1096000000000004 6.4468600000000000 -8.7528799999999993 O
  atom -11.2759000000000000 6.7533200000000004 -9.5474300000000003 H
  atom -10.6424000000000003 5.7429699999999997 -8.9023699999999995 H
  atom -3.6234799999999998 7.2133399999999996 -16.7182999999999993 O
  atom -2.6168100000000001 7.1280000000000001 -16.6802999999999990 H
  atom -3.6997700000000000 8.1587099999999992 -16.9222000000000001 H
  atom 0.6895250000000001 18.5177000000000014 2.3032599999999999 O
  atom -0.1641470000000000 18.0721999999999987 1.9743800000000000 H
  atom 1.3644700000000001 18.0146000000000015 2.6906599999999998 H
  atom -17.9006000000000007 13.3985000000000003 15.3998000000000008 O
  atom -18.0842999999999989 14.2605000000000004 15.1098999999999997 H
  atom -17.0356999999999985 13.6555000000000000 15.8333999999999993 H
  atom 23.2100000000000009 -22.9204000000000008 13.2224000000000004 O
  atom 23.9985999999999997 -22.6361999999999988 13.8975000000000009 H
  atom 23.7684999999999995 -23.3201000000000001 12.5367999999999995 H
  atom 1.1859200000000001 15.9258000000000006 4.7430099999999999 O
  atom 1.6400600000000001 16.2423999999999999 5.5198499999999999 H
  atom 1.5765100000000001 16.2510000000000012 3.8960300000000001 H
  atom -2.6271000000000000 0.3751550000000000 -18.2045999999999992 O
  atom -2.6200500000000000 0.1816110000000000 -19.1695999999999991 H
  atom -3.5034800000000001 0.8058220000000000 -17.8353999999999999 H
  atom 41.1418000000000035 4.1448200000000002 41.1049999999999969 O
  atom 41.3530000000000015 3.3066499999999999 41.5480000000000018 H
  atom 41.9292999999999978 4.1298599999999999 40.5125999999999991 H
  atom -21.5777000000000001 16.5515000000000008 8.1803600000000003 O
  atom -21.5380000000000003 16.5154999999999994 7.2770999999999999 H
  atom -21.4399000000000015 15.5078999999999994 8.2888800000000007 H
  atom 51.1000999999999976 20.2375000000000007 10.0292999999999992 O
  atom 51.4874000000000009 19.6912999999999982 10.7775999999999996 H
  atom 50.1298000000000030 20.1815999999999995 10.1255000000000006 H
  atom -1.4714100000000001 6.5781499999999999 15.2815999999999992 O
  atom -0.5577390000000000 6.2393500000000000 15.2700999999999993 H
  atom -1.3699500000000000 7.5670299999999999 15.4870000000000001 H
  atom -2.0760900000000002 10.0374999999999996 -20.7235000000000014 O
  atom -2.5278700000000001 9.1544899999999991 -20.9671999999999983 H
  atom -2.4841500000000001 10.7835999999999999 -21.3464999999999989 H
  atom -4.5133999999999999 11.9484999999999992 13.8626000000000005 O
  atom -3.7651100000000000 12.3000000000000007 14.3996999999999993 H
  atom -4.9012099999999998 11.0940999999999992 14.0213000000000001 H
  atom -15.4430999999999994 6.4531200000000002 31.4388000000000005 O
  atom -14.5368999999999993 6.3956000000000000 31.9310000000000009 H
  atom -15.8204999999999991 5.6276599999999997 31.0295999999999985 H
  atom -11.0733999999999995 -6.2462000000000000 -21.5159999999999982 O
  atom -10.3036999999999992 -6.7454799999999997 -21.9617000000000004 H
  atom -10.5919000000000008 -5.9347700000000003 -20.6999999999999993 H
  atom 4.3183999999999996 29.6740999999999993 24.8074000000000012 O
  atom 4.8238599999999998 29.4475000000000016 25.6708999999999996 H
  atom 3.4353099999999999 29.7308999999999983 25.0320999999999998 H
  atom -18.4989999999999988 2.3628600000000000 -17.3752999999999993 O
  atom -19.3942000000000014 1.9802400000000000 -16.9566000000000017 H
  atom -17.9410999999999987 2.7140000000000000 -16.6424999999999983 H
  atom 40.0456999999999965 10.7622000000000000 13.5328999999999997 O
  atom 40.4752999999999972 9.8341899999999995 13.3324999999999996 H
  atom 39.2043000000000035 10.6889000000000003 12.9978999999999996 H
  atom 20.8947000000000003 -1.7294300000000000 -2.3755999999999999 O
  atom 20.9375999999999998 -1.1215999999999999 -1.7359899999999999 H
  atom 20.5839999999999996 -2.5303700000000000 -2.0228799999999998 H
  
  -----------------------------------------------------------------------
  Completed first pass over input file geometry.in .
  -----------------------------------------------------------------------
  

  Basic array size parameters:
  | Number of species                 :        2
  | Number of atoms                   :       96
  | Number of lattice vectors         :        3
  | Max. basis fn. angular momentum   :        2
  | Max. atomic/ionic basis occupied n:        2
  | Max. number of basis fn. types    :        2
  | Max. radial fns per species/type  :        3
  | Max. logarithmic grid size        :     1301
  | Max. radial integration grid size :       36
  | Max. angular integration grid size:      302
  | Max. angular grid division number :        8
  | Radial grid for Hartree potential :     1301
  | Number of spin channels           :        1

------------------------------------------------------------
          Reading file control.in.
------------------------------------------------------------
  XC: Using Perdew-Wang parametrisation of Ceperley-Alder LDA.
  Spin treatment: No spin polarisation.
  Non-relativistic treatment of kinetic energy.
  Charge =   0.000000E+00: Neutral system requested explicitly.
  DFPT calculation will begin after the DFT/HF calculation.
  Convergence accuracy of self-consistent charge density:  0.1000E-05
  Found k-point grid:         1         1         1
  Threshold value for wave function integration:  0.1000E-07
 
  Reading configuration options for species H                   .
  | Found nuclear charge :   1.0000
  | Found atomic mass :    1.00794000000000      amu
  | Found l_max for Hartree potential  :   4
  | Found cutoff potl. onset [A], width [A], scale factor :    3.50000    1.50000    1.00000
  | Threshold for basis-dependent cutoff potential is   0.100000E-03
  | Found data for basic radial integration grid :    24 points, outermost radius =    5.000 A
  | Found multiplier for basic radial grid :   1
  | Found angular grid specification: user-specified.
  | Specified grid contains     5 separate shells.
  | Check grid settings after all constraints further below.
  | Found free-atom valence shell :  1 s   1.000
  | No ionic wave fns used. Skipping ion_occ.
  | Found hydrogenic basis function :  2 s   2.100
  | Found hydrogenic basis function :  2 p   3.500
  Species H                   : Missing cutoff potential type.
  Defaulting to exp(1/x)/(1-x)^2 type cutoff potential.
  Species H : No 'logarithmic' tag. Using default grid for free atom:
  | Default logarithmic grid data [bohr] : 0.1000E-03 0.1000E+03 0.1012E+01
  Species H : On-site basis accuracy parameter (for Gram-Schmidt orthonormalisation) not specified.
  Using default value basis_acc =  0.1000000E-03.
  Species H                   : Using default innermost maximum threshold i_radial=  2 for radial functions.
  Species H                   : Default cutoff onset for free atom density etc. : 0.35000000E+01 AA.
  Species H                   : Basic radial grid will be enhanced according to radial_multiplier =   1, to contain    24 grid points.
 
  Reading configuration options for species O                   .
  | Found nuclear charge :   8.0000
  | Found atomic mass :    15.9994000000000      amu
  | Found l_max for Hartree potential  :   4
  | Found cutoff potl. onset [A], width [A], scale factor :    3.50000    1.50000    1.00000
  | Threshold for basis-dependent cutoff potential is   0.100000E-03
  | Found data for basic radial integration grid :    36 points, outermost radius =    5.000 A
  | Found multiplier for basic radial grid :   1
  | Found angular grid specification: user-specified.
  | Specified grid contains     5 separate shells.
  | Check grid settings after all constraints further below.
  | Found free-atom valence shell :  2 s   2.000
  | Found free-atom valence shell :  2 p   4.000
  | No ionic wave fns used. Skipping ion_occ.
  | No ionic wave fns used. Skipping ion_occ.
  | Found hydrogenic basis function :  2 p   1.800
  | Found hydrogenic basis function :  3 d   7.600
  | Found hydrogenic basis function :  3 s   6.400
  Species O                   : Missing cutoff potential type.
  Defaulting to exp(1/x)/(1-x)^2 type cutoff potential.
  Species O : No 'logarithmic' tag. Using default grid for free atom:
  | Default logarithmic grid data [bohr] : 0.1000E-03 0.1000E+03 0.1012E+01
  Species O : On-site basis accuracy parameter (for Gram-Schmidt orthonormalisation) not specified.
  Using default value basis_acc =  0.1000000E-03.
  Species O                   : Using default innermost maximum threshold i_radial=  2 for radial functions.
  Species O                   : Default cutoff onset for free atom density etc. : 0.35000000E+01 AA.
  Species O                   : Basic radial grid will be enhanced according to radial_multiplier =   1, to contain    36 grid points.
 
  Finished reading input file 'control.in'.
 
------------------------------------------------------------


------------------------------------------------------------
          Reading geometry description geometry.in.
------------------------------------------------------------
  | The smallest distance between any two atoms is         0.83331002 AA.
  | The first atom of this pair is atom number                      8 .
  | The second atom of this pair is atom number                     7 .
  | Wigner-Seitz cell of the first atom image           1     0     0 .
  | (The Wigner-Seitz cell of the second atom is 0 0 0  by definition.)

  Symmetry information by spglib:
  | Precision set to  0.1E-04
  | Number of Operations  : 1
  | Space group           : 1
  | International         : P1        1
  | Schoenflies           : C1^1
  Input structure read successfully.
  The structure contains       96 atoms,  and a total of        320.000 electrons.

  Input geometry:
  | Unit cell:
  |       10.07836000        0.00000000        0.00000000
  |        0.00000000       10.07836000        0.00000000
  |        0.00000000        0.00000000       10.07836000
  | Atomic structure:
  |       Atom                x [A]            y [A]            z [A]
  |    1: Species O            23.91050000       14.33910000       10.00620000
  |    2: Species H            24.37100000       14.18960000        9.22513000
  |    3: Species H            24.05800000       13.54780000       10.41550000
  |    4: Species O            28.78260000       29.40400000        5.63411000
  |    5: Species H            29.02580000       30.05050000        4.92892000
  |    6: Species H            29.35850000       29.64380000        6.55979000
  |    7: Species O            -5.20091000       14.00800000       -2.82687000
  |    8: Species H            -4.66670000       13.39990000       -2.62878000
  |    9: Species H            -4.69141000       14.52660000       -3.26174000
  |   10: Species O            -6.92159000      -29.31480000        8.83894000
  |   11: Species H            -6.40771000      -29.34130000        9.63343000
  |   12: Species H            -7.68468000      -29.62970000        9.20129000
  |   13: Species O             2.67657000      -13.55030000       16.96410000
  |   14: Species H             3.63563000      -13.04180000       16.95990000
  |   15: Species H             2.33914000      -12.80010000       17.24520000
  |   16: Species O             6.37453000        7.89073000       19.48000000
  |   17: Species H             5.60054000        7.49303000       20.04550000
  |   18: Species H             6.89623000        7.07410000       19.22420000
  |   19: Species O            25.75010000        6.36958000       -4.29199000
  |   20: Species H            26.54970000        6.44456000       -3.65926000
  |   21: Species H            25.92290000        6.80685000       -5.15151000
  |   22: Species O           -45.54670000      -21.26180000      -22.91170000
  |   23: Species H           -45.99090000      -20.69600000      -22.47140000
  |   24: Species H           -45.00870000      -21.70620000      -22.23100000
  |   25: Species O           -22.27410000       12.67320000        5.04795000
  |   26: Species H           -21.86190000       13.55890000        4.94251000
  |   27: Species H           -21.80700000       12.02750000        4.54315000
  |   28: Species O            11.79460000      -20.46360000       25.55860000
  |   29: Species H            11.42830000      -21.05560000       26.32190000
  |   30: Species H            11.54340000      -19.59990000       25.88620000
  |   31: Species O            -9.03759000       -7.72729000        7.69275000
  |   32: Species H            -8.20387000       -8.01407000        8.01176000
  |   33: Species H            -8.51245000       -7.23219000        6.98753000
  |   34: Species O            27.11460000       12.17710000       -2.18010000
  |   35: Species H            27.74850000       12.78150000       -1.84473000
  |   36: Species H            27.22260000       11.99890000       -3.10819000
  |   37: Species O           -15.88100000       -8.27713000       -8.86140000
  |   38: Species H           -16.88250000       -8.25541000       -8.65063000
  |   39: Species H           -15.53370000       -7.57502000       -8.39203000
  |   40: Species O           -11.10960000        6.44686000       -8.75288000
  |   41: Species H           -11.27590000        6.75332000       -9.54743000
  |   42: Species H           -10.64240000        5.74297000       -8.90237000
  |   43: Species O            -3.62348000        7.21334000      -16.71830000
  |   44: Species H            -2.61681000        7.12800000      -16.68030000
  |   45: Species H            -3.69977000        8.15871000      -16.92220000
  |   46: Species O             0.68952500       18.51770000        2.30326000
  |   47: Species H            -0.16414700       18.07220000        1.97438000
  |   48: Species H             1.36447000       18.01460000        2.69066000
  |   49: Species O           -17.90060000       13.39850000       15.39980000
  |   50: Species H           -18.08430000       14.26050000       15.10990000
  |   51: Species H           -17.03570000       13.65550000       15.83340000
  |   52: Species O            23.21000000      -22.92040000       13.22240000
  |   53: Species H            23.99860000      -22.63620000       13.89750000
  |   54: Species H            23.76850000      -23.32010000       12.53680000
  |   55: Species O             1.18592000       15.92580000        4.74301000
  |   56: Species H             1.64006000       16.24240000        5.51985000
  |   57: Species H             1.57651000       16.25100000        3.89603000
  |   58: Species O            -2.62710000        0.37515500      -18.20460000
  |   59: Species H            -2.62005000        0.18161100      -19.16960000
  |   60: Species H            -3.50348000        0.80582200      -17.83540000
  |   61: Species O            41.14180000        4.14482000       41.10500000
  |   62: Species H            41.35300000        3.30665000       41.54800000
  |   63: Species H            41.92930000        4.12986000       40.51260000
  |   64: Species O           -21.57770000       16.55150000        8.18036000
  |   65: Species H           -21.53800000       16.51550000        7.27710000
  |   66: Species H           -21.43990000       15.50790000        8.28888000
  |   67: Species O            51.10010000       20.23750000       10.02930000
  |   68: Species H            51.48740000       19.69130000       10.77760000
  |   69: Species H            50.12980000       20.18160000       10.12550000
  |   70: Species O            -1.47141000        6.57815000       15.28160000
  |   71: Species H            -0.55773900        6.23935000       15.27010000
  |   72: Species H            -1.36995000        7.56703000       15.48700000
  |   73: Species O            -2.07609000       10.03750000      -20.72350000
  |   74: Species H            -2.52787000        9.15449000      -20.96720000
  |   75: Species H            -2.48415000       10.78360000      -21.34650000
  |   76: Species O            -4.51340000       11.94850000       13.86260000
  |   77: Species H            -3.76511000       12.30000000       14.39970000
  |   78: Species H            -4.90121000       11.09410000       14.02130000
  |   79: Species O           -15.44310000        6.45312000       31.43880000
  |   80: Species H           -14.53690000        6.39560000       31.93100000
  |   81: Species H           -15.82050000        5.62766000       31.02960000
  |   82: Species O           -11.07340000       -6.24620000      -21.51600000
  |   83: Species H           -10.30370000       -6.74548000      -21.96170000
  |   84: Species H           -10.59190000       -5.93477000      -20.70000000
  |   85: Species O             4.31840000       29.67410000       24.80740000
  |   86: Species H             4.82386000       29.44750000       25.67090000
  |   87: Species H             3.43531000       29.73090000       25.03210000
  |   88: Species O           -18.49900000        2.36286000      -17.37530000
  |   89: Species H           -19.39420000        1.98024000      -16.95660000
  |   90: Species H           -17.94110000        2.71400000      -16.64250000
  |   91: Species O            40.04570000       10.76220000       13.53290000
  |   92: Species H            40.47530000        9.83419000       13.33250000
  |   93: Species H            39.20430000       10.68890000       12.99790000
  |   94: Species O            20.89470000       -1.72943000       -2.37560000
  |   95: Species H            20.93760000       -1.12160000       -1.73599000
  |   96: Species H            20.58400000       -2.53037000       -2.02288000

  Lattice parameters for 3D lattice (in Angstroms) :    10.078360   10.078360   10.078360
  Angle(s) between unit vectors (in degrees)       :    90.000000   90.000000   90.000000


  Quantities derived from the lattice vectors (in Angstrom^-1):
  | Reciprocal lattice vector 1:  0.623433  0.000000  0.000000
  | Reciprocal lattice vector 2:  0.000000  0.623433  0.000000
  | Reciprocal lattice vector 3:  0.000000  0.000000  0.623433
  | Unit cell volume                               :   0.102369E+04  Angstrom^3

  Fractional coordinates:
                         L1                L2                L3
       atom_frac         2.37245941        1.42276124        0.99284010  O
       atom_frac         2.41815137        1.40792748        0.91534039  H
       atom_frac         2.38709473        1.34424648        1.03345187  H
       atom_frac         2.85588131        2.91753817        0.55903044  O
       atom_frac         2.88001222        2.98168551        0.48905973  H
       atom_frac         2.91302355        2.94133172        0.65087871  H
       atom_frac        -0.51604725        1.38990868       -0.28048909  O
       atom_frac        -0.46304161        1.32957148       -0.26083410  H
       atom_frac        -0.46549339        1.44136546       -0.32363797  H
       atom_frac        -0.68677741       -2.90868752        0.87702166  O
       atom_frac        -0.63578896       -2.91131692        0.95585294  H
       atom_frac        -0.76249310       -2.93993269        0.91297493  H
       atom_frac         0.26557595       -1.34449454        1.68322029  O
       atom_frac         0.36073627       -1.29403990        1.68280355  H
       atom_frac         0.23209530       -1.27005783        1.71111173  H
       atom_frac         0.63249676        0.78293790        1.93285415  O
       atom_frac         0.55569954        0.74347711        1.98896447  H
       atom_frac         0.68426113        0.70190983        1.90747304  H
       atom_frac         2.55498911        0.63200560       -0.42586195  O
       atom_frac         2.63432741        0.63944531       -0.36308090  H
       atom_frac         2.57213475        0.67539262       -0.51114566  H
       atom_frac        -4.51925710       -2.10964879       -2.27335598  O
       atom_frac        -4.56333173       -2.05350871       -2.22966832  H
       atom_frac        -4.46587540       -2.15374327       -2.20581523  H
       atom_frac        -2.21009172        1.25746649        0.50087018  O
       atom_frac        -2.16919221        1.34534785        0.49040816  H
       atom_frac        -2.16374490        1.19339853        0.45078267  H
       atom_frac         1.17028961       -2.03044940        2.53598800  O
       atom_frac         1.13394441       -2.08918911        2.61172453  H
       atom_frac         1.14536492       -1.94475093        2.56849329  H
       atom_frac        -0.89673221       -0.76672097        0.76329383  O
       atom_frac        -0.81400843       -0.79517600        0.79494680  H
       atom_frac        -0.84462651       -0.71759592        0.69332014  H
       atom_frac         2.69037820        1.20824221       -0.21631496  O
       atom_frac         2.75327533        1.26821229       -0.18303871  H
       atom_frac         2.70109423        1.19056077       -0.30840236  H
       atom_frac        -1.57575240       -0.82127747       -0.87925020  O
       atom_frac        -1.67512373       -0.81912236       -0.85833707  H
       atom_frac        -1.54129243       -0.75161237       -0.83267813  H
       atom_frac        -1.10232220        0.63967352       -0.86848257  O
       atom_frac        -1.11882290        0.67008124       -0.94731980  H
       atom_frac        -1.05596545        0.56983180       -0.88331534  H
       atom_frac        -0.35953072        0.71572557       -1.65883140  O
       atom_frac        -0.25964641        0.70725793       -1.65506094  H
       atom_frac        -0.36710040        0.80952754       -1.67906286  H
       atom_frac         0.06841639        1.83737235        0.22853520  O
       atom_frac        -0.01628707        1.79316873        0.19590290  H
       atom_frac         0.13538611        1.78745351        0.26697399  H
       atom_frac        -1.77614215        1.32943257        1.52800654  O
       atom_frac        -1.79436932        1.41496235        1.49924194  H
       atom_frac        -1.69032462        1.35493275        1.57102941  H
       atom_frac         2.30295405       -2.27421922        1.31195949  O
       atom_frac         2.38120091       -2.24602019        1.37894459  H
       atom_frac         2.35836981       -2.31387845        1.24393254  H
       atom_frac         0.11766994        1.58019757        0.47061327  O
       atom_frac         0.16273084        1.61161141        0.54769328  H
       atom_frac         0.15642525        1.61246473        0.38657381  H
       atom_frac        -0.26066741        0.03722381       -1.80630579  O
       atom_frac        -0.25996789        0.01801990       -1.90205549  H
       atom_frac        -0.34762402        0.07995567       -1.76967284  H
       atom_frac         4.08219194        0.41125937        4.07854056  O
       atom_frac         4.10314773        0.32809405        4.12249612  H
       atom_frac         4.16032966        0.40977500        4.01976115  H
       atom_frac        -2.14099318        1.64228109        0.81167571  O
       atom_frac        -2.13705404        1.63870908        0.72205200  H
       atom_frac        -2.12732032        1.53873249        0.82244333  H
       atom_frac         5.07027929        2.00801519        0.99513214  O
       atom_frac         5.10870816        1.95381987        1.06938034  H
       atom_frac         4.97400371        2.00246866        1.00467735  H
       atom_frac        -0.14599697        0.65270044        1.51627844  O
       atom_frac        -0.05534025        0.61908386        1.51513738  H
       atom_frac        -0.13592985        0.75081958        1.53665874  H
       atom_frac        -0.20599482        0.99594577       -2.05623732  O
       atom_frac        -0.25082156        0.90833132       -2.08041785  H
       atom_frac        -0.24648355        1.06997567       -2.11805294  H
       atom_frac        -0.44783080        1.18555995        1.37548173  O
       atom_frac        -0.37358360        1.22043666        1.42877413  H
       atom_frac        -0.48631027        1.10078425        1.39122833  H
       atom_frac        -1.53230287        0.64029465        3.11943610  O
       atom_frac        -1.44238745        0.63458737        3.16827341  H
       atom_frac        -1.56974944        0.55839045        3.07883425  H
       atom_frac        -1.09873035       -0.61976353       -2.13487115  O
       atom_frac        -1.02235880       -0.66930334       -2.17909461  H
       atom_frac        -1.05095472       -0.58886267       -2.05390560  H
       atom_frac         0.42848241        2.94433817        2.46145206  O
       atom_frac         0.47863541        2.92185435        2.54713068  H
       atom_frac         0.34086002        2.94997400        2.48374736  H
       atom_frac        -1.83551689        0.23444886       -1.72402057  O
       atom_frac        -1.92434086        0.19648435       -1.68247612  H
       atom_frac        -1.78016066        0.26928984       -1.65131033  H
       atom_frac         3.97343417        1.06785231        1.34276807  O
       atom_frac         4.01606015        0.97577284        1.32288388  H
       atom_frac         3.88994836        1.06057930        1.28968404  H
       atom_frac         2.07322422       -0.17159836       -0.23571295  O
       atom_frac         2.07748086       -0.11128795       -0.17224925  H
       atom_frac         2.04239579       -0.25106962       -0.20071520  H

 
  Finished reading input file 'geometry.in'.
 

 
  Consistency checks for stacksize environment parameter are next.
 
  | Maximum stacksize for task 0: unlimited
  | Maximum stacksize for task 1: unlimited
  | Maximum stacksize for task 2: unlimited
  | Maximum stacksize for task 3: unlimited
  | Maximum stacksize for task 4: unlimited
  | Maximum stacksize for task 5: unlimited
  | Maximum stacksize for task 6: unlimited
  | Maximum stacksize for task 7: unlimited
  | Maximum stacksize for task 8: unlimited
  | Maximum stacksize for task 9: unlimited
  | Maximum stacksize for task 10: unlimited
  | Maximum stacksize for task 11: unlimited
  | Maximum stacksize for task 12: unlimited
  | Maximum stacksize for task 13: unlimited
  | Maximum stacksize for task 14: unlimited
  | Maximum stacksize for task 15: unlimited
  | Maximum stacksize for task 16: unlimited
  | Maximum stacksize for task 17: unlimited
  | Current stacksize for task 0: unlimited
  | Current stacksize for task 1: unlimited
  | Current stacksize for task 2: unlimited
  | Current stacksize for task 3: unlimited
  | Current stacksize for task 4: unlimited
  | Current stacksize for task 5: unlimited
  | Current stacksize for task 6: unlimited
  | Current stacksize for task 7: unlimited
  | Current stacksize for task 8: unlimited
  | Current stacksize for task 9: unlimited
  | Current stacksize for task 10: unlimited
  | Current stacksize for task 11: unlimited
  | Current stacksize for task 12: unlimited
  | Current stacksize for task 13: unlimited
  | Current stacksize for task 14: unlimited
  | Current stacksize for task 15: unlimited
  | Current stacksize for task 16: unlimited
  | Current stacksize for task 17: unlimited
 
  Consistency checks for the contents of control.in are next.
 
  MPI_IN_PLACE appears to work with this MPI implementation.
  | Keeping use_mpi_in_place .true. (see manual).
  Explicit treatment of the Coulomb operator is needed, but the RI method is not specified.
  Coulomb operator: Defaulting to 'LVL fast' resolution of identity - RI_type = LVL_fast
  Species H: Using default value for prodbas_acc =   1.000000E-06.
  Species H: Using default value max_l_prodbas =     6.
  Species O: Using default value for prodbas_acc =   1.000000E-06.
  Species O: Using default value max_l_prodbas =     6.
  Target number of points in a grid batch is not set.  Since GPU acceleration is enabled, defaulting to  200
  Method for grid partitioning is not set. Defaulting to parallel hash+maxmin partitioning.
  Batch size limit is not set. Defaulting to    200
  By default, will store active basis functions for each batch.
  If in need of memory, prune_basis_once .false. can be used to disable this option.
  communication_type for Hartree potential was not specified.
  Defaulting to calc_hartree .
  Defaulting to Pulay charge density mixer.
  Pulay mixer: Number of relevant iterations not set.
  Defaulting to    8 iterations.
  Pulay mixer: Number of initial linear mixing iterations not set.
  Defaulting to    0 iterations.
  Work space size for distributed Hartree potential not set.
  Defaulting to   0.200000E+03 MB.
  Mixing parameter for charge density mixing has not been set.
  Using default: charge_mix_param =     0.0500.
  The mixing parameter will be adjusted in iteration number     2 of the first full s.c.f. cycle only.
  Algorithm-dependent basis array size parameters:
  | n_max_pulay                         :        8
  Maximum number of self-consistency iterations not provided.
  Presetting  1000 iterations.
  Presetting      1001 iterations before the initial mixing cycle
  is restarted anyway using the sc_init_iter criterion / keyword.
  Presetting a factor      1.000 between actual scf density residual
  and density convergence criterion sc_accuracy_rho below which sc_init_iter
  takes no effect.
  Calculation of forces was not defined in control.in. No forces will be calculated.
  Geometry relaxation not requested: no relaxation will be performed.
  No accuracy limit for integral partition fn. given. Defaulting to  0.1000E-14.
  No occupation type (smearing scheme) given. Defaulting to Gaussian broadening, width =  0.1000E-01 eV.
  The width will be adjusted in iteration number     2 of the first full s.c.f. cycle only.
  S.C.F. convergence parameters will be adjusted in iteration number     2 of the first full s.c.f. cycle only.
  No accuracy for occupation numbers given. Defaulting to  0.1000E-12.
  No threshold value for occupation numbers given. Defaulting to  0.0000E+00.
  No accuracy for fermi level given. Defaulting to  0.1000E-19.
  Maximum # of iterations to find E_F not set. Defaulting to  200.
  Preferred method for the eigenvalue solver ('KS_method') not specified in 'control.in'.
  Calling BLACS routine to test compilation state
  Since ScaLAPACK support is enabled, defaulting to ELPA (via ELSI).
  Will not use alltoall communication since running on < 1024 CPUs.
  Threshold for basis singularities not set.
  Default threshold for basis singularities:  0.1000E-04
  partition_type (choice of integration weights) for integrals was not specified.
  | Using a version of the partition function of Stratmann and coworkers ('stratmann_sparse').
  | At each grid point, the set of atoms used to build the partition table is smoothly restricted to
  | only those atoms whose free-atom density would be non-zero at that grid point.
  Partitioning for Hartree potential was not defined. Using partition_type for integrals.
  | Adjusted default value of keyword multip_moments_threshold to:       0.10000000E-11
  | This value may affect high angular momentum components of the Hartree potential in periodic systems.
  Angular momentum expansion for Kerker preconditioner not set explicitly.
  | Using default value of   0
  No explicit requirement for turning off preconditioner.
  | By default, it will be turned off when the charge convergence reaches
  | sc_accuracy_rho  =   0.100000E-05
  No special mixing parameter while Kerker preconditioner is on.
  Using default: charge_mix_param =     0.0500.
  Threshold for auxiliary basis singularities not set.
  Default threshold for auxiliary basis singularities:  0.1000E-04
  No q(lm)/r^(l+1) cutoff set for long-range Hartree potential.
  | Using default value of  0.100000E-09 .
  | Verify using the multipole_threshold keyword.
  Defaulting to new monopole extrapolation.
  Density update method: automatic selection selected.
  Using density matrix based charge density update.
  Using density matrix based charge density update.
  Using packed matrix style: index .
  Defaulting to use time-reversal symmetry for k-point grid.
  Charge integration errors on the 3D integration grid will be compensated
  by explicit normalization and distribution of residual charges.
  Use the "compensate_multipole_errors" flag to change this behaviour.
  Default to 1D ("use_logsbt") integrations for auxiliary 2-center integrals.
  Default onset of logarithmic r-grid for SBT is -38.000000000000
  Default onset of logarithmic k-grid for SBT is -25.000000000000
  Default range of logarithmic r- and k-grid for SBT is  45.000000000000
  Default number of logarithmic r- and k-grid for SBT is   4096
  Default of use_2d_corr is to use the efficient 2D distribution where possible
 
  Consistency checks for the contents of geometry.in are next.
 

  Range separation radius for Ewald summation (hartree_convergence_parameter):      3.05487894 bohr.
  Number of empty states per atom not set in control.in .
  | Since you are using a method that relies on the unoccupied spectrum
  | (MP2,GW,RPA et al.), will use the full Hamiltonian size (see below)
  | as the max. possible number of states (occupied plus empty).

  Structure-dependent array size parameters: 
  | Maximum number of distinct radial functions  :        9
  | Maximum number of basis functions            :      768
  | Number of Kohn-Sham states (occupied + empty):      768
------------------------------------------------------------

  Performing system and environment tests:
  | Environment variable OMP_NUM_THREADS correctly set to 1.
  | Checking for ScaLAPACK...
  | Testing pdtran()...
  | All pdtran() tests passed.
CUDA runtime version: 11060
CUDA driver version: 11060
  Initializing GPUs...

  Number of GPUs available to MPI task         0 :   1
  Number of GPUs available to MPI task         1 :   1
  Number of GPUs available to MPI task         2 :   1
  Number of GPUs available to MPI task         3 :   1
  Number of GPUs available to MPI task         4 :   1
  Number of GPUs available to MPI task         5 :   1
  Number of GPUs available to MPI task         6 :   1
  Number of GPUs available to MPI task         7 :   1
  Number of GPUs available to MPI task         8 :   1
  Number of GPUs available to MPI task         9 :   1
  Number of GPUs available to MPI task        10 :   1
  Number of GPUs available to MPI task        11 :   1
  Number of GPUs available to MPI task        12 :   1
  Number of GPUs available to MPI task        13 :   1
  Number of GPUs available to MPI task        14 :   1
  Number of GPUs available to MPI task        15 :   1
  Number of GPUs available to MPI task        16 :   1
  Number of GPUs available to MPI task        17 :   1

  | MPI task         0, GPU activated = T, Device Name = NVIDIA A100-SXM4-80GB
  | MPI task         1, GPU activated = T, Device Name = NVIDIA A100-SXM4-80GB
  | MPI task         2, GPU activated = T, Device Name = NVIDIA A100-SXM4-80GB
  | MPI task         3, GPU activated = T, Device Name = NVIDIA A100-SXM4-80GB
  | MPI task         4, GPU activated = T, Device Name = NVIDIA A100-SXM4-80GB
  | MPI task         5, GPU activated = T, Device Name = NVIDIA A100-SXM4-80GB
  | MPI task         6, GPU activated = T, Device Name = NVIDIA A100-SXM4-80GB
  | MPI task         7, GPU activated = T, Device Name = NVIDIA A100-SXM4-80GB
  | MPI task         8, GPU activated = T, Device Name = NVIDIA A100-SXM4-80GB
  | MPI task         9, GPU activated = T, Device Name = NVIDIA A100-SXM4-80GB
  | MPI task        10, GPU activated = T, Device Name = NVIDIA A100-SXM4-80GB
  | MPI task        11, GPU activated = T, Device Name = NVIDIA A100-SXM4-80GB
  | MPI task        12, GPU activated = T, Device Name = NVIDIA A100-SXM4-80GB
  | MPI task        13, GPU activated = T, Device Name = NVIDIA A100-SXM4-80GB
  | MPI task        14, GPU activated = T, Device Name = NVIDIA A100-SXM4-80GB
  | MPI task        15, GPU activated = T, Device Name = NVIDIA A100-SXM4-80GB
  | MPI task        16, GPU activated = T, Device Name = NVIDIA A100-SXM4-80GB
  | MPI task        17, GPU activated = T, Device Name = NVIDIA A100-SXM4-80GB

------------------------------------------------------------
          Preparing all fixed parts of the calculation.
------------------------------------------------------------
  Determining machine precision:
    2.225073858507201E-308
  Setting up grids for atomic and cluster calculations.

  Creating wave function, potential, and density for free atoms.
  Runtime choices for atomic solver:
  | atomic solver xc        : PW-LDA
  | compute density gradient: 0
  | compute kinetic density : F

  Species: H

  List of occupied orbitals and eigenvalues:
    n    l              occ      energy [Ha]    energy [eV]
    1    0           1.0000        -0.232375        -6.3233


  Species: O

  List of occupied orbitals and eigenvalues:
    n    l              occ      energy [Ha]    energy [eV]
    1    0           2.0000       -18.757744      -510.4242
    2    0           2.0000        -0.870917       -23.6989
    2    1           4.0000        -0.337950        -9.1961


  Adding cutoff potential to free-atom effective potential.
  Creating fixed part of basis set: Ionic, confined, hydrogenic.
 
  H                    hydrogenic:
 
  List of hydrogenic basis orbitals: 
    n    l      effective z      eigenvalue [eV]  inner max. [A]     outer max. [A]     outer radius [A]   
    2    0         2.100000       -14.9728           0.193243           1.317208           4.696947
    2    1         3.500000       -41.6669           0.602369           0.602369           3.862494
 
 
  O                    hydrogenic:
 
  List of hydrogenic basis orbitals: 
    n    l      effective z      eigenvalue [eV]  inner max. [A]     outer max. [A]     outer radius [A]   
    2    1         1.800000       -10.9749           1.164242           1.164242           4.691341
    3    2         7.600000       -87.3180           0.624125           0.624125           3.413946
    3    0         6.400000       -61.9207           0.061167           1.081902           4.151495
 
  Creating atomic-like basis functions for current effective potential.

  Species H                   :

  List of atomic basis orbitals and eigenvalues:
    n    l      energy [Ha]    energy [eV]    outer radius [A]
    1    0        -0.232375        -6.3233       4.696947


  Species O                   :

  List of atomic basis orbitals and eigenvalues:
    n    l      energy [Ha]    energy [eV]    outer radius [A]
    1    0       -18.757744      -510.4242       1.830144
    2    0        -0.870917       -23.6989       4.578029
    2    1        -0.337950        -9.1961       4.634338

  Assembling full basis from fixed parts.
  | Species H :   atomic orbital   1 s accepted.
  | Species H :    hydro orbital   2 s accepted.
  | Species H :    hydro orbital   2 p accepted.
  | Species O :   atomic orbital   1 s accepted.
  | Species O :    hydro orbital   3 s accepted.
  | Species O :   atomic orbital   2 s accepted.
  | Species O :   atomic orbital   2 p accepted.
  | Species O :    hydro orbital   2 p accepted.
  | Species O :    hydro orbital   3 d accepted.
 
  Basis size parameters after reduction:
  | Total number of radial functions:        9
  | Total number of basis functions :      768
 
  Per-task memory consumption for arrays in subroutine allocate_ext:
  |           2.268304MB.
  Testing on-site integration grid accuracy.
  |  Species  Function  <phi|h_atom|phi> (log., in eV)  <phi|h_atom|phi> (rad., in eV)
           1        1                 -6.3245358373                 -6.3232436907
           1        2                 14.1326137532                 14.1384481100
           1        3                 25.3627025200                 25.3628451197
           2        4               -510.4241781764               -510.4240769407
           2        5                 14.9072942213                 14.9072945271
           2        6                -21.2004736474                -21.2005650551
           2        7                 -9.1962086505                 -9.1963509834
           2        8                  8.1896755006                  8.1702200081
           2        9                 45.7920584937                 45.7920228520

  Preparing densities etc. for the partition functions (integrals / Hartree potential).

  Preparations completed.
  max(cpu_time)          :      0.078 s.
  Wall clock time (cpu1) :      0.071 s.
------------------------------------------------------------

  Initializing index lists of integration centers etc. from given atomic structure:
  Mapping all atomic coordinates to central unit cell.

  Initializing the k-points
  Using symmetry for reducing the k-points
  | k-points reduced from:        1 to        1
  | Number of k-points                             :         1
  | Consuming          0 KiB for k_phase_exx.
  The eigenvectors in the calculations are REAL.
  | Number of basis functions in the Hamiltonian integrals :      4281
  | Number of basis functions in a single unit cell        :       768
  | Number of centers in hartree potential         :      2553
  | Number of centers in hartree multipole         :      1870
  | Number of centers in electron density summation:      1450
  | Number of centers in basis integrals           :      1521
  | Number of centers in integrals                 :       673
  | Number of centers in hamiltonian               :      1451
  | Consuming          0 KiB for k_phase.
  | Number of super-cells (origin) [n_cells]                     :         125
  | Number of super-cells (after PM_index) [n_cells]             :          28
  | Number of super-cells in hamiltonian [n_cells_in_hamiltonian]:          28
  | Size of matrix packed + index [n_hamiltonian_matrix_size] :      742471
  | Size of matrix packed + index (no_symmetry):     1484173

------------------------------------------------------------
          Begin self-consistency loop: Initialization.

          Date     :  20230221, Time     :  145549.190
------------------------------------------------------------
  | Estimated reciprocal-space cutoff momentum G_max:         3.09111502 bohr^-1 .
  | Reciprocal lattice points for long-range Hartree potential:    3406
  Using simple linear distribution as default method for k-point parallelism.
  * Using 18 tasks for Scalapack Eigenvalue solver.
  Detailed listing of tasks and assigned k-points:
   Task     0 k-point     1 on adag040
   Task     1 k-point     1 on adag040
   Task     2 k-point     1 on adag040
   Task     3 k-point     1 on adag040
   Task     4 k-point     1 on adag040
   Task     5 k-point     1 on adag040
   Task     6 k-point     1 on adag040
   Task     7 k-point     1 on adag040
   Task     8 k-point     1 on adag040
   Task     9 k-point     1 on adag040
   Task    10 k-point     1 on adag040
   Task    11 k-point     1 on adag040
   Task    12 k-point     1 on adag040
   Task    13 k-point     1 on adag040
   Task    14 k-point     1 on adag040
   Task    15 k-point     1 on adag040
   Task    16 k-point     1 on adag040
   Task    17 k-point     1 on adag040
  K-point:     1 Tasks:    18 split into      6 X      3 BLACS grid
  Calculating block size based on n_basis =          768  max_nprow =            6  max_npcol =            3
  ScaLAPACK block size set to:           16
  Allocating        0.250 MB for ovlp
  Allocating        0.250 MB for ham
  Allocating        0.250 MB for eigenvec
  Required Scalapack workspace - INTEGER:            1  REAL:             1
  Partitioning the integration grid into batches with parallel hashing+maxmin method.
  | Number of batches:     3968
  | Maximal batch size:     199
  | Minimal batch size:     100
  | Average batch size:     128.419
  | Standard deviation of batch sizes:      21.014

  Integration load balanced across    18 MPI tasks.
  Work distribution over tasks is as follows:
  Task     0 has      28419 integration points.
  Task     1 has      28238 integration points.
  Task     2 has      28249 integration points.
  Task     3 has      28323 integration points.
  Task     4 has      28263 integration points.
  Task     5 has      28260 integration points.
  Task     6 has      28304 integration points.
  Task     7 has      28436 integration points.
  Task     8 has      28276 integration points.
  Task     9 has      28265 integration points.
  Task    10 has      28276 integration points.
  Task    11 has      28346 integration points.
  Task    12 has      28325 integration points.
  Task    13 has      28307 integration points.
  Task    14 has      28399 integration points.
  Task    15 has      28266 integration points.
  Task    16 has      28253 integration points.
  Task    17 has      28363 integration points.
  Initializing partition tables, free-atom densities, potentials, etc. across the integration grid (initialize_grid_storage).
  | initialize_grid_storage: Actual outermost partition radius vs. multipole_radius_free
  | (-- VB: in principle, multipole_radius_free should be larger, hence this output)
  | Species        1: Confinement radius =              4.999999999999999 AA, multipole_radius_free =              5.054417573612229 AA.
  | Species        1: outer_partition_radius set to              5.054417573612229 AA .
  | Species        2: Confinement radius =              4.999999999999999 AA, multipole_radius_free =              5.048384829883283 AA.
  | Species        2: outer_partition_radius set to              5.048384829883283 AA .
  | The sparse table of interatomic distances needs       4768.02 kbyte instead of     18507.53 kbyte of memory.
  | Net number of integration points:   509568
  | of which are non-zero points    :   409490
  | Numerical average free-atom electrostatic potential    :     -5.09070522 eV
  Renormalizing the initial density to the exact electron count on the 3D integration grid.
  | Initial density: Formal number of electrons (from input files) :     320.0000000000
  | Integrated number of electrons on 3D grid     :     320.0000382543
  | Charge integration error                      :       0.0000382543
  | Normalization factor for density and gradient :       0.9999998805
  Renormalizing the free-atom superposition density to the exact electron count on the 3D integration grid.
  | Formal number of electrons (from input files) :     320.0000000000
  | Integrated number of electrons on 3D grid     :     320.0000382543
  | Charge integration error                      :       0.0000382543
  | Normalization factor for density and gradient :       0.9999998805
  Obtaining max. number of non-zero basis functions in each batch (get_n_compute_maxes).
  | Maximal number of non-zero basis functions:      410 in task     0
  | Maximal number of non-zero basis functions:      399 in task     1
  | Maximal number of non-zero basis functions:      397 in task     2
  | Maximal number of non-zero basis functions:      427 in task     3
  | Maximal number of non-zero basis functions:      403 in task     4
  | Maximal number of non-zero basis functions:      440 in task     5
  | Maximal number of non-zero basis functions:      405 in task     6
  | Maximal number of non-zero basis functions:      414 in task     7
  | Maximal number of non-zero basis functions:      409 in task     8
  | Maximal number of non-zero basis functions:      407 in task     9
  | Maximal number of non-zero basis functions:      424 in task    10
  | Maximal number of non-zero basis functions:      409 in task    11
  | Maximal number of non-zero basis functions:      432 in task    12
  | Maximal number of non-zero basis functions:      394 in task    13
  | Maximal number of non-zero basis functions:      410 in task    14
  | Maximal number of non-zero basis functions:      403 in task    15
  | Maximal number of non-zero basis functions:      404 in task    16
  | Maximal number of non-zero basis functions:      405 in task    17
  Integrating Hamiltonian matrix: batch-based integration.
  GPU acceleration will be used when integrating the Hamiltonian matrix.
  Reporting GPU memory usage by myid 0.  Note that it is likely not the only MPI task binding to its GPU!
  Allocating        1.345 MB on GPU for hamiltonian_shell
  Allocating        0.653 MB on GPU for wave
  Allocating        0.002 MB on GPU for partition
  Allocating        0.653 MB on GPU for h_times_psi
  Time summed over all CPUs for integration: real work       14.500 s, elapsed       15.009 s
  Deallocating memory used on GPU for Hamiltonian integration.
  Integrating overlap matrix.
  Time summed over all CPUs for integration: real work       11.423 s, elapsed       11.632 s
  Deallocating overlap matrix.

  Updating Kohn-Sham eigenvalues and eigenvectors using ELSI and the ELPA eigensolver.
  Singularity check in k-point 1 (analysis for other k-points may follow below):
  Overlap matrix is not singular
  | Lowest and highest eigenvalues :  0.2432E-02,  0.7005E+01
  Finished singularity check of overlap matrix
  | Time :     0.181 s
  Starting ELPA eigensolver (GPU)
  Finished Cholesky decomposition
  | Time :     0.008 s
  Finished transformation to standard eigenproblem
  | Time :     0.036 s
  Finished solving standard eigenproblem
  | Time :     0.238 s
  Finished back-transformation of eigenvectors
  | Time :     0.020 s

  Obtaining occupation numbers and electronic chemical potential using ELSI.
  | Note that, for insulating systems, the printed 'chemical potential' value is not uniquely defined.
  | It can be anywhere in the energy gap, as long as it correctly separates occupied and unoccupied states.
  | In systems with a gap, the physically relevant chemical potential is the VBM or HOMO.

  | Chemical potential (Fermi level):    -6.40968434 eV
  Writing Kohn-Sham eigenvalues.

  State    Occupation    Eigenvalue [Ha]    Eigenvalue [eV]
      1       2.00000         -18.941025         -515.41152
      2       2.00000         -18.926789         -515.02414
      3       2.00000         -18.905699         -514.45025
      4       2.00000         -18.904869         -514.42766
      5       2.00000         -18.901924         -514.34752
      6       2.00000         -18.893658         -514.12258
      7       2.00000         -18.884698         -513.87879
      8       2.00000         -18.879234         -513.73011
      9       2.00000         -18.877510         -513.68319
     10       2.00000         -18.876267         -513.64936
     11       2.00000         -18.876026         -513.64280
     12       2.00000         -18.875221         -513.62091
     13       2.00000         -18.875114         -513.61798
     14       2.00000         -18.874114         -513.59078
     15       2.00000         -18.873606         -513.57695
     16       2.00000         -18.871813         -513.52815
     17       2.00000         -18.871811         -513.52811
     18       2.00000         -18.869186         -513.45668
     19       2.00000         -18.867282         -513.40486
     20       2.00000         -18.864529         -513.32995
     21       2.00000         -18.863813         -513.31046
     22       2.00000         -18.862409         -513.27225
     23       2.00000         -18.861311         -513.24237
     24       2.00000         -18.859044         -513.18070
     25       2.00000         -18.858974         -513.17879
     26       2.00000         -18.858061         -513.15396
     27       2.00000         -18.857579         -513.14084
     28       2.00000         -18.856402         -513.10879
     29       2.00000         -18.855453         -513.08298
     30       2.00000         -18.853660         -513.03420
     31       2.00000         -18.852023         -512.98966
     32       2.00000         -18.847430         -512.86467
     33       2.00000          -1.214903          -33.05920
     34       2.00000          -1.189679          -32.37280
     35       2.00000          -1.158095          -31.51337
     36       2.00000          -1.155273          -31.43657
     37       2.00000          -1.152314          -31.35606
     38       2.00000          -1.145120          -31.16031
     39       2.00000          -1.126584          -30.65590
     40       2.00000          -1.121711          -30.52332
     41       2.00000          -1.118361          -30.43214
     42       2.00000          -1.113615          -30.30301
     43       2.00000          -1.110910          -30.22940
     44       2.00000          -1.109998          -30.20457
     45       2.00000          -1.108769          -30.17114
     46       2.00000          -1.105070          -30.07049
     47       2.00000          -1.102785          -30.00830
     48       2.00000          -1.102259          -29.99400
     49       2.00000          -1.099727          -29.92508
     50       2.00000          -1.097637          -29.86822
     51       2.00000          -1.090802          -29.68223
     52       2.00000          -1.087805          -29.60069
     53       2.00000          -1.087124          -29.58214
     54       2.00000          -1.085299          -29.53248
     55       2.00000          -1.082899          -29.46719
     56       2.00000          -1.082131          -29.44628
     57       2.00000          -1.081405          -29.42653
     58       2.00000          -1.077223          -29.31274
     59       2.00000          -1.073419          -29.20922
     60       2.00000          -1.072046          -29.17185
     61       2.00000          -1.065211          -28.98586
     62       2.00000          -1.063942          -28.95133
     63       2.00000          -1.056064          -28.73697
     64       2.00000          -1.053641          -28.67104
     65       2.00000          -0.734796          -19.99482
     66       2.00000          -0.721104          -19.62223
     67       2.00000          -0.703025          -19.13029
     68       2.00000          -0.687461          -18.70678
     69       2.00000          -0.679388          -18.48709
     70       2.00000          -0.678103          -18.45212
     71       2.00000          -0.675362          -18.37754
     72       2.00000          -0.675093          -18.37021
     73       2.00000          -0.669639          -18.22180
     74       2.00000          -0.664379          -18.07867
     75       2.00000          -0.658185          -17.91013
     76       2.00000          -0.654453          -17.80856
     77       2.00000          -0.649260          -17.66727
     78       2.00000          -0.646557          -17.59371
     79       2.00000          -0.640548          -17.43020
     80       2.00000          -0.640328          -17.42421
     81       2.00000          -0.638372          -17.37098
     82       2.00000          -0.636598          -17.32271
     83       2.00000          -0.635314          -17.28777
     84       2.00000          -0.633915          -17.24971
     85       2.00000          -0.627810          -17.08358
     86       2.00000          -0.626753          -17.05481
     87       2.00000          -0.624587          -16.99589
     88       2.00000          -0.623161          -16.95708
     89       2.00000          -0.620380          -16.88141
     90       2.00000          -0.617237          -16.79588
     91       2.00000          -0.615387          -16.74554
     92       2.00000          -0.612476          -16.66633
     93       2.00000          -0.609759          -16.59239
     94       2.00000          -0.605620          -16.47975
     95       2.00000          -0.604388          -16.44624
     96       2.00000          -0.603555          -16.42356
     97       2.00000          -0.581181          -15.81475
     98       2.00000          -0.572816          -15.58712
     99       2.00000          -0.570462          -15.52305
    100       2.00000          -0.568193          -15.46132
    101       2.00000          -0.561814          -15.28773
    102       2.00000          -0.557761          -15.17745
    103       2.00000          -0.555419          -15.11372
    104       2.00000          -0.554823          -15.09751
    105       2.00000          -0.553912          -15.07272
    106       2.00000          -0.546080          -14.85960
    107       2.00000          -0.542044          -14.74977
    108       2.00000          -0.541131          -14.72493
    109       2.00000          -0.538399          -14.65058
    110       2.00000          -0.538252          -14.64659
    111       2.00000          -0.534357          -14.54060
    112       2.00000          -0.530964          -14.44826
    113       2.00000          -0.529628          -14.41190
    114       2.00000          -0.528197          -14.37296
    115       2.00000          -0.525619          -14.30283
    116       2.00000          -0.521702          -14.19622
    117       2.00000          -0.520558          -14.16511
    118       2.00000          -0.515217          -14.01975
    119       2.00000          -0.512660          -13.95019
    120       2.00000          -0.510826          -13.90028
    121       2.00000          -0.508775          -13.84447
    122       2.00000          -0.506127          -13.77242
    123       2.00000          -0.504227          -13.72073
    124       2.00000          -0.503705          -13.70650
    125       2.00000          -0.499945          -13.60419
    126       2.00000          -0.497421          -13.53551
    127       2.00000          -0.496562          -13.51215
    128       2.00000          -0.494965          -13.46869
    129       2.00000          -0.489099          -13.30906
    130       2.00000          -0.484413          -13.18154
    131       2.00000          -0.482072          -13.11784
    132       2.00000          -0.479435          -13.04608
    133       2.00000          -0.477093          -12.98235
    134       2.00000          -0.473446          -12.88311
    135       2.00000          -0.469250          -12.76895
    136       2.00000          -0.465042          -12.65442
    137       2.00000          -0.463724          -12.61858
    138       2.00000          -0.462428          -12.58329
    139       2.00000          -0.461532          -12.55892
    140       2.00000          -0.459705          -12.50920
    141       2.00000          -0.458924          -12.48795
    142       2.00000          -0.458690          -12.48158
    143       2.00000          -0.457221          -12.44162
    144       2.00000          -0.456608          -12.42494
    145       2.00000          -0.456031          -12.40922
    146       2.00000          -0.455867          -12.40478
    147       2.00000          -0.454306          -12.36230
    148       2.00000          -0.453620          -12.34362
    149       2.00000          -0.451508          -12.28617
    150       2.00000          -0.451001          -12.27237
    151       2.00000          -0.450054          -12.24660
    152       2.00000          -0.448522          -12.20490
    153       2.00000          -0.447556          -12.17861
    154       2.00000          -0.446925          -12.16145
    155       2.00000          -0.443189          -12.05977
    156       2.00000          -0.442136          -12.03114
    157       2.00000          -0.440124          -11.97639
    158       2.00000          -0.439659          -11.96374
    159       2.00000          -0.436630          -11.88130
    160       2.00000          -0.433918          -11.80750
    161       0.00000          -0.171061           -4.65479
    162       0.00000          -0.116592           -3.17264
    163       0.00000          -0.112802           -3.06950
    164       0.00000          -0.108076           -2.94091
    165       0.00000          -0.105655           -2.87502
    166       0.00000          -0.102862           -2.79903
    167       0.00000          -0.099273           -2.70136
    168       0.00000          -0.071550           -1.94698
    169       0.00000          -0.069227           -1.88377
    170       0.00000          -0.062664           -1.70517
    171       0.00000          -0.060567           -1.64812
    172       0.00000          -0.057846           -1.57408
    173       0.00000          -0.053238           -1.44869
    174       0.00000          -0.052141           -1.41883
    175       0.00000          -0.048274           -1.31360
    176       0.00000          -0.043134           -1.17373
    177       0.00000          -0.037510           -1.02070
    178       0.00000          -0.033659           -0.91589
    179       0.00000          -0.024252           -0.65993
    180       0.00000          -0.013528           -0.36813
    181       0.00000          -0.010307           -0.28046
    182       0.00000          -0.008369           -0.22773
    183       0.00000          -0.005057           -0.13760
    184       0.00000           0.001144            0.03113
    185       0.00000           0.011736            0.31934
    186       0.00000           0.012225            0.33265
    187       0.00000           0.016445            0.44749
    188       0.00000           0.021879            0.59537
    189       0.00000           0.028794            0.78351
    190       0.00000           0.031077            0.84565
    191       0.00000           0.034153            0.92936
    192       0.00000           0.038215            1.03989
    193       0.00000           0.041028            1.11644
    194       0.00000           0.045833            1.24719
    195       0.00000           0.051140            1.39159
    196       0.00000           0.054534            1.48394
    197       0.00000           0.057337            1.56023
    198       0.00000           0.060415            1.64398
    199       0.00000           0.063191            1.71951
    200       0.00000           0.063612            1.73097
    201       0.00000           0.066531            1.81040
    202       0.00000           0.072123            1.96255
    203       0.00000           0.073673            2.00474
    204       0.00000           0.076272            2.07547
    205       0.00000           0.077382            2.10568
    206       0.00000           0.080814            2.19906
    207       0.00000           0.081858            2.22748
    208       0.00000           0.084916            2.31069
    209       0.00000           0.088109            2.39757
    210       0.00000           0.091983            2.50297
    211       0.00000           0.095974            2.61159
    212       0.00000           0.097904            2.66409
    213       0.00000           0.099000            2.69393
    214       0.00000           0.101617            2.76514
    215       0.00000           0.107183            2.91661
    216       0.00000           0.109044            2.96725
    217       0.00000           0.109766            2.98687
    218       0.00000           0.112209            3.05335
    219       0.00000           0.115987            3.15616
    220       0.00000           0.119003            3.23824
    221       0.00000           0.120152            3.26950
    222       0.00000           0.124803            3.39608
    223       0.00000           0.131506            3.57846
    224       0.00000           0.133720            3.63871
    225       0.00000           0.135994            3.70058
    226       0.00000           0.144882            3.94244
    227       0.00000           0.150746            4.10200
    228       0.00000           0.159270            4.33396
    229       0.00000           0.163301            4.44364
    230       0.00000           0.163580            4.45125
    231       0.00000           0.169687            4.61741
    232       0.00000           0.176009            4.78945
    233       0.00000           0.178483            4.85676
    234       0.00000           0.182946            4.97821
    235       0.00000           0.192625            5.24158
    236       0.00000           0.196885            5.35751
    237       0.00000           0.202256            5.50366
    238       0.00000           0.204803            5.57297
    239       0.00000           0.212290            5.77671
    240       0.00000           0.221254            6.02062
    241       0.00000           0.222635            6.05819
    242       0.00000           0.227291            6.18489
    243       0.00000           0.234794            6.38908
    244       0.00000           0.239987            6.53039
    245       0.00000           0.240995            6.55780
    246       0.00000           0.255824            6.96132
    247       0.00000           0.262566            7.14477
    248       0.00000           0.267500            7.27906
    249       0.00000           0.274425            7.46749
    250       0.00000           0.277007            7.53774
    251       0.00000           0.278583            7.58064
    252       0.00000           0.285855            7.77852
    253       0.00000           0.294573            8.01573
    254       0.00000           0.299339            8.14544
    255       0.00000           0.301648            8.20826
    256       0.00000           0.310657            8.45342
    257       0.00000           0.313521            8.53135
    258       0.00000           0.324216            8.82237
[...]
  |    H      0     4.527807 A      4.527807 A        1.268855E-16 a.u.
  |    H      0     4.527807 A      4.583499 A       -4.900954E-17 a.u.
  |    H      0     4.527807 A      4.583499 A        4.713786E-16 a.u.
  |    H      2     3.678162 A  2.180220E+05 A            0.556529 a.u.
  |    H      1     3.958095 A  1.721251E+08 A            0.841931 a.u.
  |    H      0     4.527807 A  3.866455E+16 A            0.581436 a.u.
  |    O      0     2.043000 A      2.043000 A       -1.436841E-16 a.u.
  |    O      3     3.498446 A      3.498446 A        3.043453E-17 a.u.
  |    O      3     3.498446 A      3.498446 A        1.541443E-16 a.u.
  |    O      0     3.905335 A      3.905335 A        2.173090E-16 a.u.
  |    O      0     3.905335 A      3.905335 A        7.213445E-17 a.u.
  |    O      0     4.101052 A      4.101052 A        2.361718E-16 a.u.
  |    O      1     4.101052 A      4.101052 A        3.235185E-17 a.u.
  |    O      0     4.359549 A      4.359549 A       -5.329475E-17 a.u.
  |    O      1     4.413171 A      4.413171 A        3.261883E-17 a.u.
  |    O      1     4.522403 A      4.522403 A        6.417997E-16 a.u.
  |    O      1     4.522403 A      4.522403 A        4.224783E-16 a.u.
  |    O      2     4.522403 A      4.522403 A       -4.387647E-16 a.u.
  |    O      0     4.522403 A      4.578029 A        2.602039E-16 a.u.
  |    O      0     4.578029 A      4.578029 A        1.226235E-16 a.u.
  |    O      1     4.578029 A      4.578029 A       -6.107316E-16 a.u.
  |    O      1     4.578029 A      4.578029 A       -2.224438E-16 a.u.
  |    O      2     4.578029 A      4.578029 A       -7.020279E-16 a.u.
  |    O      2     4.522403 A      4.578029 A        1.323470E-15 a.u.
  |    O      2     4.578029 A      4.578029 A        7.923696E-16 a.u.
  |    O      2     4.522403 A      4.578029 A       -9.951815E-16 a.u.
  |    O      0     4.578029 A      4.634338 A       -8.813582E-18 a.u.
  |    O      1     4.578029 A      4.634338 A       -3.325386E-17 a.u.
  |    O      1     4.634338 A      4.634338 A        9.588032E-16 a.u.
  |    O      2     4.578029 A      4.634338 A        1.064715E-17 a.u.
  |    O      2     4.578029 A      4.634338 A       -3.770343E-15 a.u.
  |    O      4     3.251020 A  1.511584E+03 A            1.513372 a.u.
  |    O      3     3.541477 A  1.434166E+04 A            4.293220 a.u.
  |    O      2     4.634338 A  5.584435E+05 A            9.352428 a.u.
  |    O      1     4.634338 A  2.821283E+08 A            2.261940 a.u.
  |    O      0     4.578029 A  4.264100E+16 A            0.641234 a.u.

  | Shrink_full_auxil_basis : there are       38  radial auxiliary wave functions
                            accepted and       5 rejected.
  | Shrink_full_auxil_basis : there are totally                4544 partial auxiliary wave functions.
 
  | Maximal number of product basis functions per thread :   256   256
 
  | Minimal total memory requirement for three-center overlap :      10.450 Gbs
  | Number of local auxiliary basis functions on task:      0   256
  | Number of local auxiliary basis functions on task:      1   256
  | Number of local auxiliary basis functions on task:      2   256
  | Number of local auxiliary basis functions on task:      3   256
  | Number of local auxiliary basis functions on task:      4   256
  | Number of local auxiliary basis functions on task:      5   256
  | Number of local auxiliary basis functions on task:      6   256
  | Number of local auxiliary basis functions on task:      7   256
  | Number of local auxiliary basis functions on task:      8   256
  | Number of local auxiliary basis functions on task:      9   256
  | Number of local auxiliary basis functions on task:     10   256
  | Number of local auxiliary basis functions on task:     11   256
  | Number of local auxiliary basis functions on task:     12   256
  | Number of local auxiliary basis functions on task:     13   256
  | Number of local auxiliary basis functions on task:     14   240
  | Number of local auxiliary basis functions on task:     15   240
  | Number of local auxiliary basis functions on task:     16   240
  | Number of local auxiliary basis functions on task:     17   240
  | 2D aux task distribution:      3 X      6
  | 2D block size (nb_aux_2d):     64
 
  Basis pair condensation :    295296  -->     221365
 
 --------------------------------------------
  Constructing auxiliary basis (full product) ...
 
  Product basis:
  | charge radius: extent of product basis function
  | field radius: extent of its Coulomb potential
  | Species   l  charge radius    field radius  multipol momen
  |    H      1     3.910002 A      3.910002 A       -2.487223E-16 a.u.
  |    H      1     3.958095 A      3.958095 A       -2.441841E-16 a.u.
  |    H      0     4.527807 A      4.527807 A        1.268855E-16 a.u.
  |    H      0     4.527807 A      4.583499 A       -4.900954E-17 a.u.
  |    H      0     4.527807 A      4.583499 A        4.713786E-16 a.u.
  |    H      2     3.678162 A  2.180220E+05 A            0.556529 a.u.
  |    H      1     3.958095 A  1.721251E+08 A            0.841931 a.u.
  |    H      0     4.527807 A  3.866455E+16 A            0.581436 a.u.
  |    O      0     2.043000 A      2.043000 A       -1.436841E-16 a.u.
  |    O      3     3.498446 A      3.498446 A        3.043453E-17 a.u.
  |    O      3     3.498446 A      3.498446 A        1.541443E-16 a.u.
  |    O      0     3.905335 A      3.905335 A        2.173090E-16 a.u.
  |    O      0     3.905335 A      3.905335 A        7.213445E-17 a.u.
  |    O      0     4.101052 A      4.101052 A        2.361718E-16 a.u.
  |    O      1     4.101052 A      4.101052 A        3.235185E-17 a.u.
  |    O      0     4.359549 A      4.359549 A       -5.329475E-17 a.u.
  |    O      1     4.413171 A      4.413171 A        3.261883E-17 a.u.
  |    O      1     4.522403 A      4.522403 A        6.417997E-16 a.u.
  |    O      1     4.522403 A      4.522403 A        4.224783E-16 a.u.
  |    O      2     4.522403 A      4.522403 A       -4.387647E-16 a.u.
  |    O      0     4.522403 A      4.578029 A        2.602039E-16 a.u.
  |    O      0     4.578029 A      4.578029 A        1.226235E-16 a.u.
  |    O      1     4.578029 A      4.578029 A       -6.107316E-16 a.u.
  |    O      1     4.578029 A      4.578029 A       -2.224438E-16 a.u.
  |    O      2     4.578029 A      4.578029 A       -7.020279E-16 a.u.
  |    O      2     4.522403 A      4.578029 A        1.323470E-15 a.u.
  |    O      2     4.578029 A      4.578029 A        7.923696E-16 a.u.
  |    O      2     4.522403 A      4.578029 A       -9.951815E-16 a.u.
  |    O      0     4.578029 A      4.634338 A       -8.813582E-18 a.u.
  |    O      1     4.578029 A      4.634338 A       -3.325386E-17 a.u.
  |    O      1     4.634338 A      4.634338 A        9.588032E-16 a.u.
  |    O      2     4.578029 A      4.634338 A        1.064715E-17 a.u.
  |    O      2     4.578029 A      4.634338 A       -3.770343E-15 a.u.
  |    O      4     3.251020 A  1.511584E+03 A            1.513372 a.u.
  |    O      3     3.541477 A  1.434166E+04 A            4.293220 a.u.
  |    O      2     4.634338 A  5.584435E+05 A            9.352428 a.u.
  |    O      1     4.634338 A  2.821283E+08 A            2.261940 a.u.
  |    O      0     4.578029 A  4.264100E+16 A            0.641234 a.u.

  | Shrink_full_auxil_basis : there are       38  radial auxiliary wave functions
                            accepted and       5 rejected.
  | Shrink_full_auxil_basis : there are totally                4544 partial auxiliary wave functions.
 
  | Maximal number of product basis functions per thread :   256   256
 
  | Minimal total memory requirement for three-center overlap :      10.450 Gbs
  | Number of local auxiliary basis functions on task:      0   256
  | Number of local auxiliary basis functions on task:      1   256
  | Number of local auxiliary basis functions on task:      2   256
  | Number of local auxiliary basis functions on task:      3   256
  | Number of local auxiliary basis functions on task:      4   256
  | Number of local auxiliary basis functions on task:      5   256
  | Number of local auxiliary basis functions on task:      6   256
  | Number of local auxiliary basis functions on task:      7   256
  | Number of local auxiliary basis functions on task:      8   256
  | Number of local auxiliary basis functions on task:      9   256
  | Number of local auxiliary basis functions on task:     10   256
  | Number of local auxiliary basis functions on task:     11   256
  | Number of local auxiliary basis functions on task:     12   256
  | Number of local auxiliary basis functions on task:     13   256
  | Number of local auxiliary basis functions on task:     14   240
  | Number of local auxiliary basis functions on task:     15   240
  | Number of local auxiliary basis functions on task:     16   240
  | Number of local auxiliary basis functions on task:     17   240
  | 2D aux task distribution:      3 X      6
  | 2D block size (nb_aux_2d):     64
 
  Basis pair condensation :    295296  -->     221365
dP_dE (Bohr^3) at every cycle:--->
 (351.671670250480,0.000000000000000E+000) (1.57638564602442,0.000000000000000E+000) (3.11600364795233,0.000000000000000E+000)
 (1.57861139917358,0.000000000000000E+000) (328.198728244728,0.000000000000000E+000) (-3.35064505936613,0.000000000000000E+000)
 (3.11386670338561,0.000000000000000E+000) (-3.36481176634039,0.000000000000000E+000) (352.009284821317,0.000000000000000E+000)
DFPT polarizability (Bohr^3)        xx        yy        zz        xy        xz        yz
  | Polarizability:--->                       351.671670250                  328.198728245                  352.009284821                    1.576385646                    3.116003648                   -3.350645059

DFPT for dielectric_constant:--->  # PARSE DFPT_dielectric_tensor
               1.639706911252609             0.002867517852214             0.005668153672042
               0.002871566599363             1.597008552246846            -0.006094977170337
               0.005664266471781            -0.006120747060629             1.640321047654754

                                               :  max(cpu_time)    wall_clock(cpu1)
  | Time for  dielectric calculation            :        0.001 s           0.001 s
===========================================================================

------------------------------------------------------------------------------
  Final output of selected total energy values:

  The following output summarizes some interesting total energy values
  at the end of a run (AFTER all relaxation, molecular dynamics, etc.).

  | Total energy of the DFT / Hartree-Fock s.c.f. calculation      :         -66111.351825155 eV
  | Final zero-broadening corrected energy (caution - metals only) :         -66111.351825155 eV
  | For reference only, the value of 1 Hartree used in FHI-aims is :             27.211384500 eV
  | For reference only, the overall average (free atom contribution
  | + realspace contribution) of the electrostatic potential after
  | s.c.f. convergence is                                          :             -4.683793568 eV

  Before relying on these values, please be sure to understand exactly which
  total energy value is referred to by a given number. Different objects may
  all carry the same name 'total energy'. Definitions:

  Total energy of the DFT / Hartree-Fock s.c.f. calculation:
  | Note that this energy does not include ANY quantities calculated after the
  | s.c.f. cycle, in particular not ANY RPA, MP2, etc. many-body perturbation terms.

  Final zero-broadening corrected energy:
  | For metallic systems only, a broadening of the occupation numbers at the Fermi
  | level can be extrapolated back to zero broadening by an electron-gas inspired
  | formula. For all systems that are not real metals, this value can be
  | meaningless and should be avoided.

------------------------------------------------------------------------------
  Methods described in the following list of references were used in this FHI-aims run.
  If you publish the results, please make sure to cite these reference if they apply.
  FHI-aims is an academic code, and for our developers (often, Ph.D. students
  and postdocs), scientific credit in the community is essential.
  Thank you for helping us!

  For any use of FHI-aims, please cite:

    Volker Blum, Ralf Gehrke, Felix Hanke, Paula Havu, Ville Havu,
    Xinguo Ren, Karsten Reuter, and Matthias Scheffler
    'Ab initio molecular simulations with numeric atom-centered orbitals'
    Computer Physics Communications 180, 2175-2196 (2009)
    http://doi.org/10.1016/j.cpc.2009.06.022


  For Hartree-Fock, hybrid functionals, or many-body perturbation theory used in your run, please cite:

    Xinguo Ren, Patrick Rinke, Volker Blum, Juergen Wieferink, Alex Tkatchenko,
    Andrea Sanfilippo, Karsten Reuter, and Matthias Scheffler,
    'Resolution-of-identity approach to Hartree-Fock, hybrid density functionals,
    RPA, MP2, and GW with numeric atom-centered orbital basis functions'
    New Journal of Physics 14, 053020 (2012).
    http://doi.org/10.1088/1367-2630/14/5/053020


  The provided symmetry information was generated with SPGlib:

    Atsushi Togo, Yusuke Seto, Dimitar Pashov
    SPGlib 1.7.3 obtained from http://spglib.sourceforge.net
    Copyright (C) 2008 Atsushi Togo


  The DFPT (perturbation by an electric field) part of the code was used.
  Here is the corresponding reference:

    Honghui Shang, Nathaniel Raimbault, Mariana Rossi,
    Christian Carbogno, Patrick Rinke and Matthias Scheffler,
    'All-Electron, Real-Space Perturbation Theory for Homogeneous
    Electric Fields: Theory, Implementation, and Application within dft'
    New Journal of Physics, 20(7):073040, 2018


  The ELSI infrastructure was used in your run to solve the Kohn-Sham electronic structure.
  Please check out http://elsi-interchange.org to learn more.
  If scalability is important for your project, please acknowledge ELSI by citing:

    V. W-z. Yu, F. Corsetti, A. Garcia, W. P. Huhn, M. Jacquelin, W. Jia,
    B. Lange, L. Lin, J. Lu, W. Mi, A. Seifitokaldani, A. Vazquez-Mayagoitia,
    C. Yang, H. Yang, and V. Blum
    'ELSI: A unified software interface for Kohn-Sham electronic structure solvers'
    Computer Physics Communications 222, 267-285 (2018).
    http://doi.org/10.1016/j.cpc.2017.09.007


  For the real-space grid partitioning and parallelization used in this calculation, please cite:

    Ville Havu, Volker Blum, Paula Havu, and Matthias Scheffler,
    'Efficient O(N) integration for all-electron electronic structure calculation'
    'using numerically tabulated basis functions'
    Journal of Computational Physics 228, 8367-8379 (2009).
    http://doi.org/10.1016/j.jcp.2009.08.008


  The high-level electronic structure method used in your calculation
  employed our efficient localized resolution of identity for the Coulomb operator.
  Some calculations, especially large-scale hybrid density functional theory,
  are only possible thanks to this development. For this feature, please cite:

    Arvid Ihrig, Juergen Wieferink, Igor Ying Zhang, Matti Ropo, Xinguo Ren,
    Patrick Rinke, Matthias Scheffler, and Volker Blum,
    'Accurate localized resolution of identity approach for linear-scaling
    hybrid density functionals and for many-body perturbation theory'
    New Journal of Physics 117, 093020 (2015).
    http://doi.org/10.1088/1367-2630/17/9/093020

  Of course, there are many other important community references, e.g., those cited in the
  above references. Our list is limited to references that describe implementations in the
  FHI-aims code. The reason is purely practical (length of this list) - please credit others as well.

------------------------------------------------------------
          Leaving FHI-aims.
          Date     :  20230221, Time     :  150326.899

          Computational steps:
          | Number of self-consistency cycles          :           45
          | Number of SCF (re)initializations          :            1
          | Number of coupled perturbed self-consistency cycles          :            0
          | Number of CPSCF (re)initializations          :            0

          Detailed time accounting                     :  max(cpu_time)    wall_clock(cpu1)
          | Total time                                  :      447.103 s         468.886 s
          | GPU initialization                          :        2.594 s           9.661 s
          | Preparation time                            :        0.078 s           0.071 s
          | Boundary condition initalization            :        1.337 s           1.338 s
          | Grid partitioning                           :        0.414 s           0.415 s
          | Preloading free-atom quantities on grid     :        2.223 s           2.224 s
          | Free-atom superposition energy              :        0.303 s           0.303 s
          | Total time for integrations                 :       12.001 s          12.809 s
          | Product basis setup: Total time             :        0.000 s           0.000 s
          | Product basis: | 2-center integrations     :(       0.000 s)  (       0.000 s)
          | Product basis: | LVL 3-center & coefficient:(       0.000 s)  (       0.000 s)
          | Total time for solution of K.-S. equations  :        5.485 s          17.434 s
          | Total time for density update               :        8.249 s           9.395 s
          | Total time for mixing & preconditioning     :        8.647 s           8.651 s
          | Total time for Hartree multipole update     :        0.106 s           0.106 s
          | Total time for Hartree multipole sum        :       36.726 s          36.737 s
          | Total time for total energy evaluation      :        0.011 s           0.011 s
          | Total time for DFPT                         :      368.393 s         368.532 s
          | Total time first_order_DM                   :        0.292 s           0.292 s
          | Total time first_order_density              :       77.946 s          77.979 s
          | Total time first_order_potential            :       51.843 s          51.861 s
          | Total time first_order_H                    :      155.595 s         155.651 s
          | Total time solving of Sternheimer equations :        0.195 s           0.195 s
          | Total time for dielectric constant          :        0.001 s           0.001 s
          | Total time momentum matrix                  :        0.000 s           0.000 s

          GPU acceleration has been used for charge density update.
          GPU acceleration has been used for real-space Hamiltonian integration.
          Due to GPU usage, wall_clock(cpu1) will give a more reliable estimate for timings.

          Partial memory accounting:
          | Residual value for overall tracked memory usage across tasks:     0.000000 MB (should be 0.000000 MB)
          | Peak values for overall tracked memory usage:
          |   Minimum:      111.212 MB (on task  0 after allocating DFPT_pulay_mixing::pulay_mix::alphas)
          |   Maximum:      111.212 MB (on task  0 after allocating DFPT_pulay_mixing::pulay_mix::alphas)
          |   Average:      111.212 MB
          | Largest tracked array allocation:
          |   Minimum:       39.652 MB (DFPT_pulay_mixing::initialize_pulay_mixing::X_in_diffs on task  0)
          |   Maximum:       39.652 MB (DFPT_pulay_mixing::initialize_pulay_mixing::X_in_diffs on task  0)
          |   Average:       39.652 MB
          Note:  These values currently only include a subset of arrays which are explicitly tracked.
          The "true" memory usage will be greater.

          Have a nice day.
------------------------------------------------------------
