------------------------------------------------------------
          Invoking FHI-aims ...

          When using FHI-aims, please cite the following reference:

            Volker Blum, Ralf Gehrke, Felix Hanke, Paula Havu,
            Ville Havu, Xinguo Ren, Karsten Reuter, and Matthias Scheffler,
            'Ab Initio Molecular Simulations with Numeric Atom-Centered Orbitals',
            Computer Physics Communications 180, 2175-2196 (2009)

          In addition, many other developments in FHI-aims are likely important for
          your particular application. A partial list of references is given at the end of
          this file. Thank you for giving credit to the authors of these developments.

          For any questions about FHI-aims, please visit our slack channel at

            https://fhi-aims.slack.com

          and our main development and support site at

            https://aims-git.rz-berlin.mpg.de .

          The latter site, in particular, has a wiki to collect information, as well
          as an issue tracker to log discussions, suggest improvements, and report issues
          or bugs. https://aims-git.rz-berlin.mpg.de is also the main development site
          of the project and all new and updated code versions can be obtained there.
          Please send an email to aims-coordinators@fhi-berlin.mpg.de and we will add
          you to these sites. They are for you and everyone is welcome there.

------------------------------------------------------------



  Date     :  20230221, Time     :  155212.572
  Time zero on CPU 1             :   0.344813000000000E+00  s.
  Internal wall clock time zero  :           446226732.572  s.

  FHI-aims created a unique identifier for this run for later identification
  aims_uuid : F58BE2D7-732B-4883-A53D-F9D684C05962

  Build configuration of the current instance of FHI-aims
  -------------------------------------------------------
  FHI-aims version      : 221103
  Commit number         : 42523251a
  CMake host system     : Linux-5.3.18-150300.59.68-default
  CMake version         : 3.17.0
  Fortran compiler      : /mpcdf/soft/SLE_15/packages/x86_64/intel_oneapi/2021.3/mpi/2021.3.0/bin/mpiifort (Intel) version 20.2.3.20210609
  Fortran compiler flags: -O3 -ip -fp-model precise
  C compiler            : /mpcdf/soft/SLE_15/packages/x86_64/intel/2021.3.0/bin/icc (Intel) version 20.2.3.20210609
  C compiler flags      : -O3 -ip -fp-model precise -std=gnu99
  CUDA compiler         : /mpcdf/soft/SLE_15/packages/x86_64/cuda/11.6.2/bin/nvcc
  CUDA compiler flags   : -O3 -DAdd_ -lcublas
  HIP compiler          :
  HIP compiler flags    :
  HIP GPU arch          :
  ELPA2 kernel          : AVX512
  Using MPI
  Using ScaLAPACK
  Using LibXC
  Using CUDA
  Using i-PI
  Using RLSY
  Linking against: /mpcdf/soft/SLE_15/packages/x86_64/cuda/11.6.2/lib64/libcublas.so
                   /mpcdf/soft/SLE_15/packages/x86_64/cuda/11.6.2/lib64/libcudart.so
                   /mpcdf/soft/SLE_15/packages/x86_64/intel_oneapi/2021.3/mkl/latest/lib/intel64/libmkl_intel_lp64.so
                   /mpcdf/soft/SLE_15/packages/x86_64/intel_oneapi/2021.3/mkl/latest/lib/intel64/libmkl_sequential.so
                   /mpcdf/soft/SLE_15/packages/x86_64/intel_oneapi/2021.3/mkl/latest/lib/intel64/libmkl_core.so
                   /mpcdf/soft/SLE_15/packages/x86_64/intel_oneapi/2021.3/mkl/latest/lib/intel64/libmkl_blacs_intelmpi_lp64.so
                   /mpcdf/soft/SLE_15/packages/x86_64/intel_oneapi/2021.3/mkl/latest/lib/intel64/libmkl_scalapack_lp64.so

  Using       18 parallel tasks.
  Task        0 on host adag040 reporting.
  Task        1 on host adag040 reporting.
  Task        2 on host adag040 reporting.
  Task        3 on host adag040 reporting.
  Task        4 on host adag040 reporting.
  Task        5 on host adag040 reporting.
  Task        6 on host adag040 reporting.
  Task        7 on host adag040 reporting.
  Task        8 on host adag040 reporting.
  Task        9 on host adag040 reporting.
  Task       10 on host adag040 reporting.
  Task       11 on host adag040 reporting.
  Task       12 on host adag040 reporting.
  Task       13 on host adag040 reporting.
  Task       14 on host adag040 reporting.
  Task       15 on host adag040 reporting.
  Task       16 on host adag040 reporting.
  Task       17 on host adag040 reporting.

  Obtaining array dimensions for all initial allocations:
  
  -----------------------------------------------------------------------
  Parsing control.in (first pass over file, find array dimensions only).
  The contents of control.in will be repeated verbatim below
  unless switched off by setting 'verbatim_writeout .false.' .
  in the first line of control.in .
  -----------------------------------------------------------------------
  
  #########################################################################################
  #
  #  Volker Blum, 2017 : Test run input file control.in for simple H2O
  #
  #########################################################################################
  #
  #  Physical model
  #
    xc                 pw-lda
    spin               none
    relativistic       none
    charge             0.
  
    use_gpu
  
    DFPT dielectric
    ri_density_restart write
    ri_rho1 write
  #  ri_density_restart read 0
  #  ri_rho1 read
    ri_full_output .true.
    sc_accuracy_rho    1d-6
  #  use_calculate_fock_matrix_old .false.
  #  wave_threshold 1e-8
    k_grid 1 1 1
  #  output cube eigenstate 160
  #  output cube eigenstate 161
    wave_threshold 1e-8
    default_prodbas_acc 1e-6
    default_max_l_prodbas 6
  #
  #  Relaxation
  #
  #  relax_geometry   bfgs 1.e-2
  #
  
  ################################################################################
  
  
  ################################################################################
  #
  #  FHI-aims code project
  #  VB, Fritz-Haber Institut, 2009
  #
  #  Suggested "light" defaults for H atom (to be pasted into control.in file)
  #  Be sure to double-check any results obtained with these settings for post-processing,
  #  e.g., with the "tight" defaults and larger basis sets.
  #
  ################################################################################
    species        H
  #     global species definitions
      nucleus             1
      mass                1.00794
  #
      l_hartree           4
  #
      cut_pot             3.5  1.5  1.0
      basis_dep_cutoff    1e-4
  #
      radial_base         24 5.0
      radial_multiplier   1
      angular_grids       specified
        division   0.2421   50
        division   0.3822  110
        division   0.4799  194
        division   0.5341  302
  #      division   0.5626  434
  #      division   0.5922  590
  #      division   0.6542  770
  #      division   0.6868 1202
  #      outer_grid  770
        outer_grid  302
  ################################################################################
  #
  #  Definition of "minimal" basis
  #
  ################################################################################
  #     valence basis states
      valence      1  s   1.
  #     ion occupancy
      ion_occ      1  s   0.5
  ################################################################################
  #
  #  Suggested additional basis functions. For production calculations,
  #  uncomment them one after another (the most important basis functions are
  #  listed first).
  #
  #  Basis constructed for dimers: 0.5 A, 0.7 A, 1.0 A, 1.5 A, 2.5 A
  #
  ################################################################################
  #  "First tier" - improvements: -1014.90 meV to -62.69 meV
       hydro 2 s 2.1
       hydro 2 p 3.5
  #  "Second tier" - improvements: -12.89 meV to -1.83 meV
  #     hydro 1 s 0.85
  #     hydro 2 p 3.7
  #     hydro 2 s 1.2
  #     hydro 3 d 7
  #  "Third tier" - improvements: -0.25 meV to -0.12 meV
  #     hydro 4 f 11.2
  #     hydro 3 p 4.8
  #     hydro 4 d 9
  #     hydro 3 s 3.2
  ################################################################################
  #
  #  FHI-aims code project
  #  VB, Fritz-Haber Institut, 2009
  #
  #  Suggested "light" defaults for O atom (to be pasted into control.in file)
  #  Be sure to double-check any results obtained with these settings for post-processing,
  #  e.g., with the "tight" defaults and larger basis sets.
  #
  ################################################################################
    species        O
  #     global species definitions
      nucleus             8
      mass                15.9994
  #
      l_hartree           4
  #
      cut_pot             3.5  1.5  1.0
      basis_dep_cutoff    1e-4
  #
      radial_base         36 5.0
      radial_multiplier   1
       angular_grids specified
        division   0.2659   50
        division   0.4451  110
        division   0.6052  194
        division   0.7543  302
  #      division   0.8014  434
  #      division   0.8507  590
  #      division   0.8762  770
  #      division   0.9023  974
  #      division   1.2339 1202
  #      outer_grid 974
        outer_grid 302
  ################################################################################
  #
  #  Definition of "minimal" basis
  #
  ################################################################################
  #     valence basis states
      valence      2  s   2.
      valence      2  p   4.
  #     ion occupancy
      ion_occ      2  s   1.
      ion_occ      2  p   3.
  ################################################################################
  #
  #  Suggested additional basis functions. For production calculations,
  #  uncomment them one after another (the most important basis functions are
  #  listed first).
  #
  #  Constructed for dimers: 1.0 A, 1.208 A, 1.5 A, 2.0 A, 3.0 A
  #
  ################################################################################
  #  "First tier" - improvements: -699.05 meV to -159.38 meV
       hydro 2 p 1.8
       hydro 3 d 7.6
       hydro 3 s 6.4
  #  "Second tier" - improvements: -49.91 meV to -5.39 meV
  #     hydro 4 f 11.6
  #     hydro 3 p 6.2
  #     hydro 3 d 5.6
  #     hydro 5 g 17.6
  #     hydro 1 s 0.75
  #  "Third tier" - improvements: -2.83 meV to -0.50 meV
  #     ionic 2 p auto
  #     hydro 4 f 10.8
  #     hydro 4 d 4.7
  #     hydro 2 s 6.8
  #  "Fourth tier" - improvements: -0.40 meV to -0.12 meV
  #     hydro 3 p 5
  #     hydro 3 s 3.3
  #     hydro 5 g 15.6
  #     hydro 4 f 17.6
  #     hydro 4 d 14
  # Further basis functions - -0.08 meV and below
  #     hydro 3 s 2.1
  #     hydro 4 d 11.6
  #     hydro 3 p 16
  #     hydro 2 s 17.2
  
  -----------------------------------------------------------------------
  Completed first pass over input file control.in .
  -----------------------------------------------------------------------
  
  
  -----------------------------------------------------------------------
  Parsing geometry.in (first pass over file, find array dimensions only).
  The contents of geometry.in will be repeated verbatim below
  unless switched off by setting 'verbatim_writeout .false.' .
  in the first line of geometry.in .
  -----------------------------------------------------------------------
  
  #=======================================================
  # FHI-aims file: /ada/ptmp/mpsd/alewis/bulk_water/qmdata/data/geoms/471.in
  # Created using the Atomic Simulation Environment (ASE)
  # Tue Feb 21 11:23:37 2023
  #=======================================================
  lattice_vector 9.9075799999999994 0.0000000000000000 0.0000000000000000
  lattice_vector 0.0000000000000000 9.9075799999999994 0.0000000000000000
  lattice_vector 0.0000000000000000 0.0000000000000000 9.9075799999999994
  atom 3.8558300000000001 18.1513999999999989 10.0876999999999999 O
  atom 2.8553500000000001 18.0225000000000009 9.9151500000000006 H
  atom 4.0821199999999997 18.3061000000000007 9.0322300000000002 H
  atom 13.7113999999999994 25.9020000000000010 -14.3721999999999994 O
  atom 14.4802000000000000 25.4323000000000015 -14.4488000000000003 H
  atom 13.7340000000000000 26.4023000000000003 -15.2836999999999996 H
  atom 18.3232999999999997 7.3879799999999998 -3.8417800000000000 O
  atom 18.0138999999999996 6.6568500000000004 -2.9996999999999998 H
  atom 18.6615000000000002 8.0264600000000002 -3.2523300000000002 H
  atom 2.1984300000000001 5.3937400000000002 -32.3275000000000006 O
  atom 2.6496300000000002 5.6982100000000004 -33.2053999999999974 H
  atom 2.9366900000000000 4.9437800000000003 -31.7837999999999994 H
  atom -18.1997000000000000 -1.1756599999999999 31.9669999999999987 O
  atom -18.3645999999999994 -0.1627480000000000 31.5596999999999994 H
  atom -19.1551000000000009 -1.3449199999999999 32.3175000000000026 H
  atom 3.8691800000000001 1.1531499999999999 -3.1452700000000000 O
  atom 4.4033499999999997 0.5844370000000000 -3.7249400000000001 H
  atom 2.9798800000000001 1.2005200000000000 -3.3803000000000001 H
  atom -12.6242000000000001 -0.5111869999999999 -0.6538350000000001 O
  atom -12.8041000000000000 -0.6686440000000000 0.3719940000000000 H
  atom -12.7407000000000004 0.2815610000000000 -1.1006100000000001 H
  atom -18.1348999999999982 -1.9865999999999999 8.3315500000000000 O
  atom -18.7555000000000014 -1.4936600000000000 7.8584300000000002 H
  atom -17.8445999999999998 -2.7855500000000002 7.9101699999999999 H
  atom 7.3734700000000002 -7.8856799999999998 17.9982000000000006 O
  atom 8.2326599999999992 -7.3972400000000000 18.2118000000000002 H
  atom 6.9504999999999999 -7.7742699999999996 17.2595999999999989 H
  atom 5.7291499999999997 -0.4330750000000000 -4.2809299999999997 O
  atom 5.2614299999999998 -0.8302310000000001 -5.1355599999999999 H
  atom 6.7335200000000004 -0.3775710000000000 -4.5616099999999999 H
  atom 13.9398999999999997 -11.0546000000000006 3.6971200000000000 O
  atom 14.5114999999999998 -10.6326000000000001 3.0287400000000000 H
  atom 13.0427999999999997 -10.8178999999999998 3.2767599999999999 H
  atom 12.2723999999999993 -4.8312900000000001 -17.6488000000000014 O
  atom 13.1877999999999993 -4.4696699999999998 -17.6658000000000008 H
  atom 11.5414999999999992 -4.4529699999999997 -18.1844999999999999 H
  atom 6.5362499999999999 18.6844000000000001 21.9255999999999993 O
  atom 7.4701599999999999 18.4285999999999994 21.8343999999999987 H
  atom 6.0273700000000003 17.8786999999999985 22.0076000000000001 H
  atom -12.5799000000000003 -4.1968699999999997 18.1402000000000001 O
  atom -13.2700999999999993 -3.5378900000000000 18.0060000000000002 H
  atom -12.5855999999999995 -4.3969699999999996 19.0157999999999987 H
  atom 1.0498900000000000 -8.4235600000000002 -17.7317999999999998 O
  atom 1.5362700000000000 -7.7141400000000004 -18.3760000000000012 H
  atom 0.9585350000000000 -7.9391299999999996 -16.9400000000000013 H
  atom 10.4382000000000001 36.1445000000000007 20.3614999999999995 O
  atom 10.9014000000000006 36.6250000000000000 19.7393000000000001 H
  atom 9.6908799999999999 36.5090000000000003 20.2989999999999995 H
  atom -13.2859999999999996 -24.3114999999999988 -4.9235499999999996 O
  atom -12.7577999999999996 -23.5056000000000012 -4.4912900000000002 H
  atom -13.0947999999999993 -25.3383000000000003 -4.5437900000000004 H
  atom -8.9380199999999999 13.4353999999999996 33.7937999999999974 O
  atom -8.4883900000000008 13.9898000000000007 33.2867000000000033 H
  atom -8.7961899999999993 13.6785999999999994 34.6548999999999978 H
  atom -0.8632830000000000 27.8097999999999992 2.7960400000000001 O
  atom -0.6304630000000000 28.0680000000000014 3.7435999999999998 H
  atom -0.7530690000000000 26.8566000000000003 3.0167899999999999 H
  atom -5.9944100000000002 -18.8148000000000017 -10.2223000000000006 O
  atom -5.6570200000000002 -18.8235999999999990 -11.2378000000000000 H
  atom -6.1504500000000002 -19.5138999999999996 -9.7232299999999992 H
  atom 15.3946000000000005 7.8918499999999998 -11.9625000000000004 O
  atom 15.2132000000000005 8.3156099999999995 -12.8577999999999992 H
  atom 16.0017999999999994 8.3837700000000002 -11.3089999999999993 H
  atom 18.1153000000000013 41.5966000000000022 13.1417000000000002 O
  atom 17.4605999999999995 41.4425999999999988 12.4124999999999996 H
  atom 18.8240000000000016 41.3581000000000003 12.6532000000000000 H
  atom -10.2643000000000004 23.3749000000000002 8.7399799999999992 O
  atom -9.5776800000000009 23.5811999999999991 9.4766700000000004 H
  atom -10.2387999999999995 24.0468000000000011 8.0713699999999999 H
  atom -12.6171000000000006 4.9059100000000004 0.7713150000000000 O
  atom -12.5127000000000006 4.0047800000000002 0.7414930000000000 H
  atom -12.2308000000000003 5.0353800000000000 1.6866500000000000 H
  atom 19.2580999999999989 19.3126999999999995 17.2189000000000014 O
  atom 19.5547000000000004 20.2546999999999997 16.9981000000000009 H
  atom 18.8093000000000004 19.5520999999999994 18.0021999999999984 H
  atom -1.1792800000000001 -4.4004500000000002 -6.7159199999999997 O
  atom -0.6341059999999999 -5.1350300000000004 -6.3600700000000003 H
  atom -1.8190599999999999 -4.2448499999999996 -6.1552100000000003 H
  atom -13.1693999999999996 2.6509900000000002 35.1623000000000019 O
  atom -12.4617000000000004 2.2789899999999998 34.5777000000000001 H
  atom -13.9135000000000009 2.2483499999999998 35.0833000000000013 H
  atom -3.6117900000000001 -7.6159800000000004 10.3895000000000000 O
  atom -3.2955199999999998 -7.5705400000000003 9.5245999999999995 H
  atom -4.6375500000000001 -7.7204400000000000 10.5738000000000003 H
  atom 12.0790000000000006 -6.5584800000000003 -19.6788999999999987 O
  atom 12.2453000000000003 -5.9929899999999998 -18.8726999999999983 H
  atom 12.9178999999999995 -7.0711300000000001 -19.6639000000000017 H
  atom 14.9042999999999992 -3.5547200000000001 -7.7746599999999999 O
  atom 14.6646000000000001 -2.9483999999999999 -8.4960699999999996 H
  atom 15.6187000000000005 -4.1101200000000002 -8.1782400000000006 H
  atom 30.8989000000000011 -8.1996400000000005 37.1736000000000004 O
  atom 30.5172999999999988 -7.4712100000000001 37.6214999999999975 H
  atom 31.6317999999999984 -8.1687499999999993 37.7486999999999995 H
  atom 14.3409999999999993 3.7030900000000000 7.8719700000000001 O
  atom 14.9575999999999993 4.2031000000000001 7.1872199999999999 H
  atom 13.9842999999999993 3.1725900000000000 7.2214700000000001 H
  
  -----------------------------------------------------------------------
  Completed first pass over input file geometry.in .
  -----------------------------------------------------------------------
  

  Basic array size parameters:
  | Number of species                 :        2
  | Number of atoms                   :       96
  | Number of lattice vectors         :        3
  | Max. basis fn. angular momentum   :        2
  | Max. atomic/ionic basis occupied n:        2
  | Max. number of basis fn. types    :        2
  | Max. radial fns per species/type  :        3
  | Max. logarithmic grid size        :     1301
  | Max. radial integration grid size :       36
  | Max. angular integration grid size:      302
  | Max. angular grid division number :        8
  | Radial grid for Hartree potential :     1301
  | Number of spin channels           :        1

------------------------------------------------------------
          Reading file control.in.
------------------------------------------------------------
  XC: Using Perdew-Wang parametrisation of Ceperley-Alder LDA.
  Spin treatment: No spin polarisation.
  Non-relativistic treatment of kinetic energy.
  Charge =   0.000000E+00: Neutral system requested explicitly.
  DFPT calculation will begin after the DFT/HF calculation.
  Convergence accuracy of self-consistent charge density:  0.1000E-05
  Found k-point grid:         1         1         1
  Threshold value for wave function integration:  0.1000E-07
 
  Reading configuration options for species H                   .
  | Found nuclear charge :   1.0000
  | Found atomic mass :    1.00794000000000      amu
  | Found l_max for Hartree potential  :   4
  | Found cutoff potl. onset [A], width [A], scale factor :    3.50000    1.50000    1.00000
  | Threshold for basis-dependent cutoff potential is   0.100000E-03
  | Found data for basic radial integration grid :    24 points, outermost radius =    5.000 A
  | Found multiplier for basic radial grid :   1
  | Found angular grid specification: user-specified.
  | Specified grid contains     5 separate shells.
  | Check grid settings after all constraints further below.
  | Found free-atom valence shell :  1 s   1.000
  | No ionic wave fns used. Skipping ion_occ.
  | Found hydrogenic basis function :  2 s   2.100
  | Found hydrogenic basis function :  2 p   3.500
  Species H                   : Missing cutoff potential type.
  Defaulting to exp(1/x)/(1-x)^2 type cutoff potential.
  Species H : No 'logarithmic' tag. Using default grid for free atom:
  | Default logarithmic grid data [bohr] : 0.1000E-03 0.1000E+03 0.1012E+01
  Species H : On-site basis accuracy parameter (for Gram-Schmidt orthonormalisation) not specified.
  Using default value basis_acc =  0.1000000E-03.
  Species H                   : Using default innermost maximum threshold i_radial=  2 for radial functions.
  Species H                   : Default cutoff onset for free atom density etc. : 0.35000000E+01 AA.
  Species H                   : Basic radial grid will be enhanced according to radial_multiplier =   1, to contain    24 grid points.
 
  Reading configuration options for species O                   .
  | Found nuclear charge :   8.0000
  | Found atomic mass :    15.9994000000000      amu
  | Found l_max for Hartree potential  :   4
  | Found cutoff potl. onset [A], width [A], scale factor :    3.50000    1.50000    1.00000
  | Threshold for basis-dependent cutoff potential is   0.100000E-03
  | Found data for basic radial integration grid :    36 points, outermost radius =    5.000 A
  | Found multiplier for basic radial grid :   1
  | Found angular grid specification: user-specified.
  | Specified grid contains     5 separate shells.
  | Check grid settings after all constraints further below.
  | Found free-atom valence shell :  2 s   2.000
  | Found free-atom valence shell :  2 p   4.000
  | No ionic wave fns used. Skipping ion_occ.
  | No ionic wave fns used. Skipping ion_occ.
  | Found hydrogenic basis function :  2 p   1.800
  | Found hydrogenic basis function :  3 d   7.600
  | Found hydrogenic basis function :  3 s   6.400
  Species O                   : Missing cutoff potential type.
  Defaulting to exp(1/x)/(1-x)^2 type cutoff potential.
  Species O : No 'logarithmic' tag. Using default grid for free atom:
  | Default logarithmic grid data [bohr] : 0.1000E-03 0.1000E+03 0.1012E+01
  Species O : On-site basis accuracy parameter (for Gram-Schmidt orthonormalisation) not specified.
  Using default value basis_acc =  0.1000000E-03.
  Species O                   : Using default innermost maximum threshold i_radial=  2 for radial functions.
  Species O                   : Default cutoff onset for free atom density etc. : 0.35000000E+01 AA.
  Species O                   : Basic radial grid will be enhanced according to radial_multiplier =   1, to contain    36 grid points.
 
  Finished reading input file 'control.in'.
 
------------------------------------------------------------


------------------------------------------------------------
          Reading geometry description geometry.in.
------------------------------------------------------------
  | The smallest distance between any two atoms is         0.83381873 AA.
  | The first atom of this pair is atom number                     46 .
  | The second atom of this pair is atom number                    48 .
  | Wigner-Seitz cell of the first atom image           0     0     0 .
  | (The Wigner-Seitz cell of the second atom is 0 0 0  by definition.)

  Symmetry information by spglib:
  | Precision set to  0.1E-04
  | Number of Operations  : 1
  | Space group           : 1
  | International         : P1       F6
  | Schoenflies           : C1^1
  Input structure read successfully.
  The structure contains       96 atoms,  and a total of        320.000 electrons.

  Input geometry:
  | Unit cell:
  |        9.90758000        0.00000000        0.00000000
  |        0.00000000        9.90758000        0.00000000
  |        0.00000000        0.00000000        9.90758000
  | Atomic structure:
  |       Atom                x [A]            y [A]            z [A]
  |    1: Species O             3.85583000       18.15140000       10.08770000
  |    2: Species H             2.85535000       18.02250000        9.91515000
  |    3: Species H             4.08212000       18.30610000        9.03223000
  |    4: Species O            13.71140000       25.90200000      -14.37220000
  |    5: Species H            14.48020000       25.43230000      -14.44880000
  |    6: Species H            13.73400000       26.40230000      -15.28370000
  |    7: Species O            18.32330000        7.38798000       -3.84178000
  |    8: Species H            18.01390000        6.65685000       -2.99970000
  |    9: Species H            18.66150000        8.02646000       -3.25233000
  |   10: Species O             2.19843000        5.39374000      -32.32750000
  |   11: Species H             2.64963000        5.69821000      -33.20540000
  |   12: Species H             2.93669000        4.94378000      -31.78380000
  |   13: Species O           -18.19970000       -1.17566000       31.96700000
  |   14: Species H           -18.36460000       -0.16274800       31.55970000
  |   15: Species H           -19.15510000       -1.34492000       32.31750000
  |   16: Species O             3.86918000        1.15315000       -3.14527000
  |   17: Species H             4.40335000        0.58443700       -3.72494000
  |   18: Species H             2.97988000        1.20052000       -3.38030000
  |   19: Species O           -12.62420000       -0.51118700       -0.65383500
  |   20: Species H           -12.80410000       -0.66864400        0.37199400
  |   21: Species H           -12.74070000        0.28156100       -1.10061000
  |   22: Species O           -18.13490000       -1.98660000        8.33155000
  |   23: Species H           -18.75550000       -1.49366000        7.85843000
  |   24: Species H           -17.84460000       -2.78555000        7.91017000
  |   25: Species O             7.37347000       -7.88568000       17.99820000
  |   26: Species H             8.23266000       -7.39724000       18.21180000
  |   27: Species H             6.95050000       -7.77427000       17.25960000
  |   28: Species O             5.72915000       -0.43307500       -4.28093000
  |   29: Species H             5.26143000       -0.83023100       -5.13556000
  |   30: Species H             6.73352000       -0.37757100       -4.56161000
  |   31: Species O            13.93990000      -11.05460000        3.69712000
  |   32: Species H            14.51150000      -10.63260000        3.02874000
  |   33: Species H            13.04280000      -10.81790000        3.27676000
  |   34: Species O            12.27240000       -4.83129000      -17.64880000
  |   35: Species H            13.18780000       -4.46967000      -17.66580000
  |   36: Species H            11.54150000       -4.45297000      -18.18450000
  |   37: Species O             6.53625000       18.68440000       21.92560000
  |   38: Species H             7.47016000       18.42860000       21.83440000
  |   39: Species H             6.02737000       17.87870000       22.00760000
  |   40: Species O           -12.57990000       -4.19687000       18.14020000
  |   41: Species H           -13.27010000       -3.53789000       18.00600000
  |   42: Species H           -12.58560000       -4.39697000       19.01580000
  |   43: Species O             1.04989000       -8.42356000      -17.73180000
  |   44: Species H             1.53627000       -7.71414000      -18.37600000
  |   45: Species H             0.95853500       -7.93913000      -16.94000000
  |   46: Species O            10.43820000       36.14450000       20.36150000
  |   47: Species H            10.90140000       36.62500000       19.73930000
  |   48: Species H             9.69088000       36.50900000       20.29900000
  |   49: Species O           -13.28600000      -24.31150000       -4.92355000
  |   50: Species H           -12.75780000      -23.50560000       -4.49129000
  |   51: Species H           -13.09480000      -25.33830000       -4.54379000
  |   52: Species O            -8.93802000       13.43540000       33.79380000
  |   53: Species H            -8.48839000       13.98980000       33.28670000
  |   54: Species H            -8.79619000       13.67860000       34.65490000
  |   55: Species O            -0.86328300       27.80980000        2.79604000
  |   56: Species H            -0.63046300       28.06800000        3.74360000
  |   57: Species H            -0.75306900       26.85660000        3.01679000
  |   58: Species O            -5.99441000      -18.81480000      -10.22230000
  |   59: Species H            -5.65702000      -18.82360000      -11.23780000
  |   60: Species H            -6.15045000      -19.51390000       -9.72323000
  |   61: Species O            15.39460000        7.89185000      -11.96250000
  |   62: Species H            15.21320000        8.31561000      -12.85780000
  |   63: Species H            16.00180000        8.38377000      -11.30900000
  |   64: Species O            18.11530000       41.59660000       13.14170000
  |   65: Species H            17.46060000       41.44260000       12.41250000
  |   66: Species H            18.82400000       41.35810000       12.65320000
  |   67: Species O           -10.26430000       23.37490000        8.73998000
  |   68: Species H            -9.57768000       23.58120000        9.47667000
  |   69: Species H           -10.23880000       24.04680000        8.07137000
  |   70: Species O           -12.61710000        4.90591000        0.77131500
  |   71: Species H           -12.51270000        4.00478000        0.74149300
  |   72: Species H           -12.23080000        5.03538000        1.68665000
  |   73: Species O            19.25810000       19.31270000       17.21890000
  |   74: Species H            19.55470000       20.25470000       16.99810000
  |   75: Species H            18.80930000       19.55210000       18.00220000
  |   76: Species O            -1.17928000       -4.40045000       -6.71592000
  |   77: Species H            -0.63410600       -5.13503000       -6.36007000
  |   78: Species H            -1.81906000       -4.24485000       -6.15521000
  |   79: Species O           -13.16940000        2.65099000       35.16230000
  |   80: Species H           -12.46170000        2.27899000       34.57770000
  |   81: Species H           -13.91350000        2.24835000       35.08330000
  |   82: Species O            -3.61179000       -7.61598000       10.38950000
  |   83: Species H            -3.29552000       -7.57054000        9.52460000
  |   84: Species H            -4.63755000       -7.72044000       10.57380000
  |   85: Species O            12.07900000       -6.55848000      -19.67890000
  |   86: Species H            12.24530000       -5.99299000      -18.87270000
  |   87: Species H            12.91790000       -7.07113000      -19.66390000
  |   88: Species O            14.90430000       -3.55472000       -7.77466000
  |   89: Species H            14.66460000       -2.94840000       -8.49607000
  |   90: Species H            15.61870000       -4.11012000       -8.17824000
  |   91: Species O            30.89890000       -8.19964000       37.17360000
  |   92: Species H            30.51730000       -7.47121000       37.62150000
  |   93: Species H            31.63180000       -8.16875000       37.74870000
  |   94: Species O            14.34100000        3.70309000        7.87197000
  |   95: Species H            14.95760000        4.20310000        7.18722000
  |   96: Species H            13.98430000        3.17259000        7.22147000

  Lattice parameters for 3D lattice (in Angstroms) :     9.907580    9.907580    9.907580
  Angle(s) between unit vectors (in degrees)       :    90.000000   90.000000   90.000000


  Quantities derived from the lattice vectors (in Angstrom^-1):
  | Reciprocal lattice vector 1:  0.634180  0.000000  0.000000
  | Reciprocal lattice vector 2:  0.000000  0.634180  0.000000
  | Reciprocal lattice vector 3:  0.000000  0.000000  0.634180
  | Unit cell volume                               :   0.972529E+03  Angstrom^3

  Fractional coordinates:
                         L1                L2                L3
       atom_frac         0.38917980        1.83207201        1.01818002  O
       atom_frac         0.28819853        1.81906177        1.00076406  H
       atom_frac         0.41201989        1.84768632        0.91164846  H
       atom_frac         1.38393028        2.61436193       -1.45062669  O
       atom_frac         1.46152744        2.56695379       -1.45835815  H
       atom_frac         1.38621137        2.66485862       -1.54262696  H
       atom_frac         1.84942236        0.74568966       -0.38776169  O
       atom_frac         1.81819375        0.67189465       -0.30276818  H
       atom_frac         1.88355784        0.81013325       -0.32826684  H
       atom_frac         0.22189374        0.54440539       -3.26290578  O
       atom_frac         0.26743463        0.57513641       -3.35151470  H
       atom_frac         0.29640841        0.49898966       -3.20802860  H
       atom_frac        -1.83694706       -0.11866268        3.22651949  O
       atom_frac        -1.85359089       -0.01642661        3.18540956  H
       atom_frac        -1.93337828       -0.13574657        3.26189645  H
       atom_frac         0.39052725        0.11639068       -0.31746097  O
       atom_frac         0.44444254        0.05898888       -0.37596870  H
       atom_frac         0.30076770        0.12117187       -0.34118322  H
       atom_frac        -1.27419612       -0.05159555       -0.06599341  O
       atom_frac        -1.29235394       -0.06748813        0.03754640  H
       atom_frac        -1.28595479        0.02841875       -0.11108767  H
       atom_frac        -1.83040662       -0.20051314        0.84092685  O
       atom_frac        -1.89304553       -0.15075932        0.79317351  H
       atom_frac        -1.80110582       -0.28115342        0.79839577  H
       atom_frac         0.74422513       -0.79592393        1.81660910  O
       atom_frac         0.83094560       -0.74662430        1.83816835  H
       atom_frac         0.70153357       -0.78467900        1.74206012  H
       atom_frac         0.57825927       -0.04371148       -0.43208634  O
       atom_frac         0.53105097       -0.08379756       -0.51834656  H
       atom_frac         0.67963317       -0.03810931       -0.46041617  H
       atom_frac         1.40699343       -1.11577196        0.37316075  O
       atom_frac         1.46468663       -1.07317831        0.30569927  H
       atom_frac         1.31644660       -1.09188117        0.33073263  H
       atom_frac         1.23868795       -0.48763573       -1.78134317  O
       atom_frac         1.33108186       -0.45113640       -1.78305903  H
       atom_frac         1.16491616       -0.44945082       -1.83541289  H
       atom_frac         0.65972215        1.88586920        2.21301266  O
       atom_frac         0.75398432        1.86005059        2.20380759  H
       atom_frac         0.60835946        1.80454763        2.22128915  H
       atom_frac        -1.26972480       -0.42360193        1.83094156  O
       atom_frac        -1.33938863       -0.35708922        1.81739638  H
       atom_frac        -1.27030011       -0.44379859        1.91931834  H
       atom_frac         0.10596836       -0.85021367       -1.78972060  O
       atom_frac         0.15506007       -0.77860991       -1.85474152  H
       atom_frac         0.09674764       -0.80131879       -1.70980199  H
       atom_frac         1.05355697        3.64816635        2.05514364  O
       atom_frac         1.10030906        3.69666457        1.99234324  H
       atom_frac         0.97812786        3.68495637        2.04883534  H
       atom_frac        -1.34099346       -2.45382828       -0.49694779  O
       atom_frac        -1.28768075       -2.37248652       -0.45331857  H
       atom_frac        -1.32169511       -2.55746610       -0.45861754  H
       atom_frac        -0.90213957        1.35607283        3.41090357  O
       atom_frac        -0.85675715        1.41202998        3.35972054  H
       atom_frac        -0.88782427        1.38061969        3.49781682  H
       atom_frac        -0.08713359        2.80692157        0.28221221  O
       atom_frac        -0.06363441        2.83298242        0.37785211  H
       atom_frac        -0.07600938        2.71071240        0.30449313  H
       atom_frac        -0.60503271       -1.89903084       -1.03176558  O
       atom_frac        -0.57097899       -1.89991905       -1.13426286  H
       atom_frac        -0.62078227       -1.96959298       -0.98139303  H
       atom_frac         1.55382041        0.79654668       -1.20740887  O
       atom_frac         1.53551119        0.83931798       -1.29777403  H
       atom_frac         1.61510682        0.84619756       -1.14144927  H
       atom_frac         1.82842833        4.19846219        1.32642886  O
       atom_frac         1.76234762        4.18291853        1.25282864  H
       atom_frac         1.89995943        4.17438971        1.27712317  H
       atom_frac        -1.03600476        2.35929460        0.88215084  O
       atom_frac        -0.96670226        2.38011704        0.95650704  H
       atom_frac        -1.03343097        2.42711136        0.81466614  H
       atom_frac        -1.27347950        0.49516734        0.07785100  O
       atom_frac        -1.26294211        0.40421374        0.07484098  H
       atom_frac        -1.23448915        0.50823511        0.17023834  H
       atom_frac         1.94377436        1.94928529        1.73795215  O
       atom_frac         1.97371104        2.04436401        1.71566619  H
       atom_frac         1.89847571        1.97344861        1.81701283  H
       atom_frac        -0.11902806       -0.44414983       -0.67785675  O
       atom_frac        -0.06400211       -0.51829306       -0.64193981  H
       atom_frac        -0.18360286       -0.42844469       -0.62126271  H
       atom_frac        -1.32922469        0.26757190        3.54903014  O
       atom_frac        -1.25779454        0.23002489        3.49002481  H
       atom_frac        -1.40432881        0.22693231        3.54105644  H
       atom_frac        -0.36454815       -0.76870235        1.04864155  O
       atom_frac        -0.33262613       -0.76411596        0.96134475  H
       atom_frac        -0.46808100       -0.77924579        1.06724346  H
       atom_frac         1.21916755       -0.66196589       -1.98624689  O
       atom_frac         1.23595267       -0.60488939       -1.90487485  H
       atom_frac         1.30384009       -0.71370910       -1.98473290  H
       atom_frac         1.50433305       -0.35878792       -0.78471837  O
       atom_frac         1.48013945       -0.29759033       -0.85753231  H
       atom_frac         1.57643945       -0.41484601       -0.82545284  H
       atom_frac         3.11871315       -0.82761280        3.75203632  O
       atom_frac         3.08019718       -0.75409030        3.79724413  H
       atom_frac         3.19268681       -0.82449498        3.81008279  H
       atom_frac         1.44747759        0.37376332        0.79454014  O
       atom_frac         1.50971277        0.42423074        0.72542639  H
       atom_frac         1.41147485        0.32021846        0.72888334  H

 
  Finished reading input file 'geometry.in'.
 

 
  Consistency checks for stacksize environment parameter are next.
 
  | Maximum stacksize for task 0: unlimited
  | Maximum stacksize for task 1: unlimited
  | Maximum stacksize for task 2: unlimited
  | Maximum stacksize for task 3: unlimited
  | Maximum stacksize for task 4: unlimited
  | Maximum stacksize for task 5: unlimited
  | Maximum stacksize for task 6: unlimited
  | Maximum stacksize for task 7: unlimited
  | Maximum stacksize for task 8: unlimited
  | Maximum stacksize for task 9: unlimited
  | Maximum stacksize for task 10: unlimited
  | Maximum stacksize for task 11: unlimited
  | Maximum stacksize for task 12: unlimited
  | Maximum stacksize for task 13: unlimited
  | Maximum stacksize for task 14: unlimited
  | Maximum stacksize for task 15: unlimited
  | Maximum stacksize for task 16: unlimited
  | Maximum stacksize for task 17: unlimited
  | Current stacksize for task 0: unlimited
  | Current stacksize for task 1: unlimited
  | Current stacksize for task 2: unlimited
  | Current stacksize for task 3: unlimited
  | Current stacksize for task 4: unlimited
  | Current stacksize for task 5: unlimited
  | Current stacksize for task 6: unlimited
  | Current stacksize for task 7: unlimited
  | Current stacksize for task 8: unlimited
  | Current stacksize for task 9: unlimited
  | Current stacksize for task 10: unlimited
  | Current stacksize for task 11: unlimited
  | Current stacksize for task 12: unlimited
  | Current stacksize for task 13: unlimited
  | Current stacksize for task 14: unlimited
  | Current stacksize for task 15: unlimited
  | Current stacksize for task 16: unlimited
  | Current stacksize for task 17: unlimited
 
  Consistency checks for the contents of control.in are next.
 
  MPI_IN_PLACE appears to work with this MPI implementation.
  | Keeping use_mpi_in_place .true. (see manual).
  Explicit treatment of the Coulomb operator is needed, but the RI method is not specified.
  Coulomb operator: Defaulting to 'LVL fast' resolution of identity - RI_type = LVL_fast
  Species H: Using default value for prodbas_acc =   1.000000E-06.
  Species H: Using default value max_l_prodbas =     6.
  Species O: Using default value for prodbas_acc =   1.000000E-06.
  Species O: Using default value max_l_prodbas =     6.
  Target number of points in a grid batch is not set.  Since GPU acceleration is enabled, defaulting to  200
  Method for grid partitioning is not set. Defaulting to parallel hash+maxmin partitioning.
  Batch size limit is not set. Defaulting to    200
  By default, will store active basis functions for each batch.
  If in need of memory, prune_basis_once .false. can be used to disable this option.
  communication_type for Hartree potential was not specified.
  Defaulting to calc_hartree .
  Defaulting to Pulay charge density mixer.
  Pulay mixer: Number of relevant iterations not set.
  Defaulting to    8 iterations.
  Pulay mixer: Number of initial linear mixing iterations not set.
  Defaulting to    0 iterations.
  Work space size for distributed Hartree potential not set.
  Defaulting to   0.200000E+03 MB.
  Mixing parameter for charge density mixing has not been set.
  Using default: charge_mix_param =     0.0500.
  The mixing parameter will be adjusted in iteration number     2 of the first full s.c.f. cycle only.
  Algorithm-dependent basis array size parameters:
  | n_max_pulay                         :        8
  Maximum number of self-consistency iterations not provided.
  Presetting  1000 iterations.
  Presetting      1001 iterations before the initial mixing cycle
  is restarted anyway using the sc_init_iter criterion / keyword.
  Presetting a factor      1.000 between actual scf density residual
  and density convergence criterion sc_accuracy_rho below which sc_init_iter
  takes no effect.
  Calculation of forces was not defined in control.in. No forces will be calculated.
  Geometry relaxation not requested: no relaxation will be performed.
  No accuracy limit for integral partition fn. given. Defaulting to  0.1000E-14.
  No occupation type (smearing scheme) given. Defaulting to Gaussian broadening, width =  0.1000E-01 eV.
  The width will be adjusted in iteration number     2 of the first full s.c.f. cycle only.
  S.C.F. convergence parameters will be adjusted in iteration number     2 of the first full s.c.f. cycle only.
  No accuracy for occupation numbers given. Defaulting to  0.1000E-12.
  No threshold value for occupation numbers given. Defaulting to  0.0000E+00.
  No accuracy for fermi level given. Defaulting to  0.1000E-19.
  Maximum # of iterations to find E_F not set. Defaulting to  200.
  Preferred method for the eigenvalue solver ('KS_method') not specified in 'control.in'.
  Calling BLACS routine to test compilation state
  Since ScaLAPACK support is enabled, defaulting to ELPA (via ELSI).
  Will not use alltoall communication since running on < 1024 CPUs.
  Threshold for basis singularities not set.
  Default threshold for basis singularities:  0.1000E-04
  partition_type (choice of integration weights) for integrals was not specified.
  | Using a version of the partition function of Stratmann and coworkers ('stratmann_sparse').
  | At each grid point, the set of atoms used to build the partition table is smoothly restricted to
  | only those atoms whose free-atom density would be non-zero at that grid point.
  Partitioning for Hartree potential was not defined. Using partition_type for integrals.
  | Adjusted default value of keyword multip_moments_threshold to:       0.10000000E-11
  | This value may affect high angular momentum components of the Hartree potential in periodic systems.
  Angular momentum expansion for Kerker preconditioner not set explicitly.
  | Using default value of   0
  No explicit requirement for turning off preconditioner.
  | By default, it will be turned off when the charge convergence reaches
  | sc_accuracy_rho  =   0.100000E-05
  No special mixing parameter while Kerker preconditioner is on.
  Using default: charge_mix_param =     0.0500.
  Threshold for auxiliary basis singularities not set.
  Default threshold for auxiliary basis singularities:  0.1000E-04
  No q(lm)/r^(l+1) cutoff set for long-range Hartree potential.
  | Using default value of  0.100000E-09 .
  | Verify using the multipole_threshold keyword.
  Defaulting to new monopole extrapolation.
  Density update method: automatic selection selected.
  Using density matrix based charge density update.
  Using density matrix based charge density update.
  Using packed matrix style: index .
  Defaulting to use time-reversal symmetry for k-point grid.
  Charge integration errors on the 3D integration grid will be compensated
  by explicit normalization and distribution of residual charges.
  Use the "compensate_multipole_errors" flag to change this behaviour.
  Default to 1D ("use_logsbt") integrations for auxiliary 2-center integrals.
  Default onset of logarithmic r-grid for SBT is -38.000000000000
  Default onset of logarithmic k-grid for SBT is -25.000000000000
  Default range of logarithmic r- and k-grid for SBT is  45.000000000000
  Default number of logarithmic r- and k-grid for SBT is   4096
  Default of use_2d_corr is to use the efficient 2D distribution where possible
 
  Consistency checks for the contents of geometry.in are next.
 

  Range separation radius for Ewald summation (hartree_convergence_parameter):      2.99195448 bohr.
  Number of empty states per atom not set in control.in .
  | Since you are using a method that relies on the unoccupied spectrum
  | (MP2,GW,RPA et al.), will use the full Hamiltonian size (see below)
  | as the max. possible number of states (occupied plus empty).

  Structure-dependent array size parameters: 
  | Maximum number of distinct radial functions  :        9
  | Maximum number of basis functions            :      768
  | Number of Kohn-Sham states (occupied + empty):      768
------------------------------------------------------------

  Performing system and environment tests:
  | Environment variable OMP_NUM_THREADS correctly set to 1.
  | Checking for ScaLAPACK...
  | Testing pdtran()...
  | All pdtran() tests passed.
CUDA runtime version: 11060
CUDA driver version: 11060
  Initializing GPUs...

  Number of GPUs available to MPI task         0 :   1
  Number of GPUs available to MPI task         1 :   1
  Number of GPUs available to MPI task         2 :   1
  Number of GPUs available to MPI task         3 :   1
  Number of GPUs available to MPI task         4 :   1
  Number of GPUs available to MPI task         5 :   1
  Number of GPUs available to MPI task         6 :   1
  Number of GPUs available to MPI task         7 :   1
  Number of GPUs available to MPI task         8 :   1
  Number of GPUs available to MPI task         9 :   1
  Number of GPUs available to MPI task        10 :   1
  Number of GPUs available to MPI task        11 :   1
  Number of GPUs available to MPI task        12 :   1
  Number of GPUs available to MPI task        13 :   1
  Number of GPUs available to MPI task        14 :   1
  Number of GPUs available to MPI task        15 :   1
  Number of GPUs available to MPI task        16 :   1
  Number of GPUs available to MPI task        17 :   1

  | MPI task         0, GPU activated = T, Device Name = NVIDIA A100-SXM4-80GB
  | MPI task         1, GPU activated = T, Device Name = NVIDIA A100-SXM4-80GB
  | MPI task         2, GPU activated = T, Device Name = NVIDIA A100-SXM4-80GB
  | MPI task         3, GPU activated = T, Device Name = NVIDIA A100-SXM4-80GB
  | MPI task         4, GPU activated = T, Device Name = NVIDIA A100-SXM4-80GB
  | MPI task         5, GPU activated = T, Device Name = NVIDIA A100-SXM4-80GB
  | MPI task         6, GPU activated = T, Device Name = NVIDIA A100-SXM4-80GB
  | MPI task         7, GPU activated = T, Device Name = NVIDIA A100-SXM4-80GB
  | MPI task         8, GPU activated = T, Device Name = NVIDIA A100-SXM4-80GB
  | MPI task         9, GPU activated = T, Device Name = NVIDIA A100-SXM4-80GB
  | MPI task        10, GPU activated = T, Device Name = NVIDIA A100-SXM4-80GB
  | MPI task        11, GPU activated = T, Device Name = NVIDIA A100-SXM4-80GB
  | MPI task        12, GPU activated = T, Device Name = NVIDIA A100-SXM4-80GB
  | MPI task        13, GPU activated = T, Device Name = NVIDIA A100-SXM4-80GB
  | MPI task        14, GPU activated = T, Device Name = NVIDIA A100-SXM4-80GB
  | MPI task        15, GPU activated = T, Device Name = NVIDIA A100-SXM4-80GB
  | MPI task        16, GPU activated = T, Device Name = NVIDIA A100-SXM4-80GB
  | MPI task        17, GPU activated = T, Device Name = NVIDIA A100-SXM4-80GB

------------------------------------------------------------
          Preparing all fixed parts of the calculation.
------------------------------------------------------------
  Determining machine precision:
    2.225073858507201E-308
  Setting up grids for atomic and cluster calculations.

  Creating wave function, potential, and density for free atoms.
  Runtime choices for atomic solver:
  | atomic solver xc        : PW-LDA
  | compute density gradient: 0
  | compute kinetic density : F

  Species: H

  List of occupied orbitals and eigenvalues:
    n    l              occ      energy [Ha]    energy [eV]
    1    0           1.0000        -0.232375        -6.3233


  Species: O

  List of occupied orbitals and eigenvalues:
    n    l              occ      energy [Ha]    energy [eV]
    1    0           2.0000       -18.757744      -510.4242
    2    0           2.0000        -0.870917       -23.6989
    2    1           4.0000        -0.337950        -9.1961


  Adding cutoff potential to free-atom effective potential.
  Creating fixed part of basis set: Ionic, confined, hydrogenic.
 
  H                    hydrogenic:
 
  List of hydrogenic basis orbitals: 
    n    l      effective z      eigenvalue [eV]  inner max. [A]     outer max. [A]     outer radius [A]   
    2    0         2.100000       -14.9728           0.193243           1.317208           4.696947
    2    1         3.500000       -41.6669           0.602369           0.602369           3.862494
 
 
  O                    hydrogenic:
 
  List of hydrogenic basis orbitals: 
    n    l      effective z      eigenvalue [eV]  inner max. [A]     outer max. [A]     outer radius [A]   
    2    1         1.800000       -10.9749           1.164242           1.164242           4.691341
    3    2         7.600000       -87.3180           0.624125           0.624125           3.413946
    3    0         6.400000       -61.9207           0.061167           1.081902           4.151495
 
  Creating atomic-like basis functions for current effective potential.

  Species H                   :

  List of atomic basis orbitals and eigenvalues:
    n    l      energy [Ha]    energy [eV]    outer radius [A]
    1    0        -0.232375        -6.3233       4.696947


  Species O                   :

  List of atomic basis orbitals and eigenvalues:
    n    l      energy [Ha]    energy [eV]    outer radius [A]
    1    0       -18.757744      -510.4242       1.830144
    2    0        -0.870917       -23.6989       4.578029
    2    1        -0.337950        -9.1961       4.634338

  Assembling full basis from fixed parts.
  | Species H :   atomic orbital   1 s accepted.
  | Species H :    hydro orbital   2 s accepted.
  | Species H :    hydro orbital   2 p accepted.
  | Species O :   atomic orbital   1 s accepted.
  | Species O :    hydro orbital   3 s accepted.
  | Species O :   atomic orbital   2 s accepted.
  | Species O :   atomic orbital   2 p accepted.
  | Species O :    hydro orbital   2 p accepted.
  | Species O :    hydro orbital   3 d accepted.
 
  Basis size parameters after reduction:
  | Total number of radial functions:        9
  | Total number of basis functions :      768
 
  Per-task memory consumption for arrays in subroutine allocate_ext:
  |           2.268304MB.
  Testing on-site integration grid accuracy.
  |  Species  Function  <phi|h_atom|phi> (log., in eV)  <phi|h_atom|phi> (rad., in eV)
           1        1                 -6.3245358373                 -6.3232436907
           1        2                 14.1326137532                 14.1384481100
           1        3                 25.3627025200                 25.3628451197
           2        4               -510.4241781764               -510.4240769407
           2        5                 14.9072942213                 14.9072945271
           2        6                -21.2004736474                -21.2005650551
           2        7                 -9.1962086505                 -9.1963509834
           2        8                  8.1896755006                  8.1702200081
           2        9                 45.7920584937                 45.7920228520

  Preparing densities etc. for the partition functions (integrals / Hartree potential).

  Preparations completed.
  max(cpu_time)          :      0.070 s.
  Wall clock time (cpu1) :      0.063 s.
------------------------------------------------------------

  Initializing index lists of integration centers etc. from given atomic structure:
  Mapping all atomic coordinates to central unit cell.

  Initializing the k-points
  Using symmetry for reducing the k-points
  | k-points reduced from:        1 to        1
  | Number of k-points                             :         1
  | Consuming          0 KiB for k_phase_exx.
  The eigenvectors in the calculations are REAL.
  | Number of basis functions in the Hamiltonian integrals :      4506
  | Number of basis functions in a single unit cell        :       768
  | Number of centers in hartree potential         :      2583
  | Number of centers in hartree multipole         :      1907
  | Number of centers in electron density summation:      1497
  | Number of centers in basis integrals           :      1568
  | Number of centers in integrals                 :       701
  | Number of centers in hamiltonian               :      1499
  | Consuming          0 KiB for k_phase.
  | Number of super-cells (origin) [n_cells]                     :         125
  | Number of super-cells (after PM_index) [n_cells]             :          28
  | Number of super-cells in hamiltonian [n_cells_in_hamiltonian]:          28
  | Size of matrix packed + index [n_hamiltonian_matrix_size] :      779139
  | Size of matrix packed + index (no_symmetry):     1557509

------------------------------------------------------------
          Begin self-consistency loop: Initialization.

          Date     :  20230221, Time     :  155223.417
------------------------------------------------------------
  | Estimated reciprocal-space cutoff momentum G_max:         3.15920837 bohr^-1 .
  | Reciprocal lattice points for long-range Hartree potential:    3430
  Using simple linear distribution as default method for k-point parallelism.
  * Using 18 tasks for Scalapack Eigenvalue solver.
  Detailed listing of tasks and assigned k-points:
   Task     0 k-point     1 on adag040
   Task     1 k-point     1 on adag040
   Task     2 k-point     1 on adag040
   Task     3 k-point     1 on adag040
   Task     4 k-point     1 on adag040
   Task     5 k-point     1 on adag040
   Task     6 k-point     1 on adag040
   Task     7 k-point     1 on adag040
   Task     8 k-point     1 on adag040
   Task     9 k-point     1 on adag040
   Task    10 k-point     1 on adag040
   Task    11 k-point     1 on adag040
   Task    12 k-point     1 on adag040
   Task    13 k-point     1 on adag040
   Task    14 k-point     1 on adag040
   Task    15 k-point     1 on adag040
   Task    16 k-point     1 on adag040
   Task    17 k-point     1 on adag040
  K-point:     1 Tasks:    18 split into      6 X      3 BLACS grid
  Calculating block size based on n_basis =          768  max_nprow =            6  max_npcol =            3
  ScaLAPACK block size set to:           16
  Allocating        0.250 MB for ovlp
  Allocating        0.250 MB for ham
  Allocating        0.250 MB for eigenvec
  Required Scalapack workspace - INTEGER:            1  REAL:             1
  Partitioning the integration grid into batches with parallel hashing+maxmin method.
  | Number of batches:     3998
  | Maximal batch size:     200
  | Minimal batch size:      99
  | Average batch size:     127.456
  | Standard deviation of batch sizes:      28.529

  Integration load balanced across    18 MPI tasks.
  Work distribution over tasks is as follows:
  Task     0 has      28403 integration points.
  Task     1 has      28307 integration points.
  Task     2 has      28227 integration points.
  Task     3 has      28310 integration points.
  Task     4 has      28281 integration points.
  Task     5 has      28342 integration points.
  Task     6 has      28316 integration points.
  Task     7 has      28281 integration points.
  Task     8 has      28403 integration points.
  Task     9 has      28412 integration points.
  Task    10 has      28318 integration points.
  Task    11 has      28253 integration points.
  Task    12 has      28241 integration points.
  Task    13 has      28296 integration points.
  Task    14 has      28295 integration points.
  Task    15 has      28383 integration points.
  Task    16 has      28245 integration points.
  Task    17 has      28255 integration points.
  Initializing partition tables, free-atom densities, potentials, etc. across the integration grid (initialize_grid_storage).
  | initialize_grid_storage: Actual outermost partition radius vs. multipole_radius_free
  | (-- VB: in principle, multipole_radius_free should be larger, hence this output)
  | Species        1: Confinement radius =              4.999999999999999 AA, multipole_radius_free =              5.054417573612229 AA.
  | Species        1: outer_partition_radius set to              5.054417573612229 AA .
  | Species        2: Confinement radius =              4.999999999999999 AA, multipole_radius_free =              5.048384829883283 AA.
  | Species        2: outer_partition_radius set to              5.048384829883283 AA .
  | The sparse table of interatomic distances needs       5156.77 kbyte instead of     19668.99 kbyte of memory.
  | Net number of integration points:   509568
  | of which are non-zero points    :   406905
  | Numerical average free-atom electrostatic potential    :     -5.35852226 eV
  Renormalizing the initial density to the exact electron count on the 3D integration grid.
  | Initial density: Formal number of electrons (from input files) :     320.0000000000
  | Integrated number of electrons on 3D grid     :     319.9998968740
  | Charge integration error                      :      -0.0001031260
  | Normalization factor for density and gradient :       1.0000003223
  Renormalizing the free-atom superposition density to the exact electron count on the 3D integration grid.
  | Formal number of electrons (from input files) :     320.0000000000
  | Integrated number of electrons on 3D grid     :     319.9998968740
  | Charge integration error                      :      -0.0001031260
  | Normalization factor for density and gradient :       1.0000003223
  Obtaining max. number of non-zero basis functions in each batch (get_n_compute_maxes).
  | Maximal number of non-zero basis functions:      415 in task     0
  | Maximal number of non-zero basis functions:      411 in task     1
  | Maximal number of non-zero basis functions:      411 in task     2
  | Maximal number of non-zero basis functions:      438 in task     3
  | Maximal number of non-zero basis functions:      415 in task     4
  | Maximal number of non-zero basis functions:      417 in task     5
  | Maximal number of non-zero basis functions:      416 in task     6
  | Maximal number of non-zero basis functions:      442 in task     7
  | Maximal number of non-zero basis functions:      420 in task     8
  | Maximal number of non-zero basis functions:      430 in task     9
  | Maximal number of non-zero basis functions:      417 in task    10
  | Maximal number of non-zero basis functions:      451 in task    11
  | Maximal number of non-zero basis functions:      409 in task    12
  | Maximal number of non-zero basis functions:      435 in task    13
  | Maximal number of non-zero basis functions:      413 in task    14
  | Maximal number of non-zero basis functions:      419 in task    15
  | Maximal number of non-zero basis functions:      427 in task    16
  | Maximal number of non-zero basis functions:      414 in task    17
  Integrating Hamiltonian matrix: batch-based integration.
  GPU acceleration will be used when integrating the Hamiltonian matrix.
  Reporting GPU memory usage by myid 0.  Note that it is likely not the only MPI task binding to its GPU!
  Allocating        1.378 MB on GPU for hamiltonian_shell
  Allocating        0.664 MB on GPU for wave
  Allocating        0.002 MB on GPU for partition
  Allocating        0.664 MB on GPU for h_times_psi
  Time summed over all CPUs for integration: real work       11.889 s, elapsed       12.456 s
  Deallocating memory used on GPU for Hamiltonian integration.
  Integrating overlap matrix.
  Time summed over all CPUs for integration: real work        9.505 s, elapsed        9.834 s
  Deallocating overlap matrix.

  Updating Kohn-Sham eigenvalues and eigenvectors using ELSI and the ELPA eigensolver.
  Singularity check in k-point 1 (analysis for other k-points may follow below):
  Overlap matrix is not singular
  | Lowest and highest eigenvalues :  0.2161E-02,  0.7316E+01
  Finished singularity check of overlap matrix
  | Time :     0.146 s
  Starting ELPA eigensolver (GPU)
  Finished Cholesky decomposition
  | Time :     0.007 s
  Finished transformation to standard eigenproblem
  | Time :     0.024 s
  Finished solving standard eigenproblem
  | Time :     0.185 s
  Finished back-transformation of eigenvectors
  | Time :     0.015 s

  Obtaining occupation numbers and electronic chemical potential using ELSI.
  | Note that, for insulating systems, the printed 'chemical potential' value is not uniquely defined.
  | It can be anywhere in the energy gap, as long as it correctly separates occupied and unoccupied states.
  | In systems with a gap, the physically relevant chemical potential is the VBM or HOMO.

  | Chemical potential (Fermi level):    -5.49704333 eV
  Writing Kohn-Sham eigenvalues.

  State    Occupation    Eigenvalue [Ha]    Eigenvalue [eV]
      1       2.00000         -18.922976         -514.92036
      2       2.00000         -18.910832         -514.58992
      3       2.00000         -18.902467         -514.36230
      4       2.00000         -18.901985         -514.34919
      5       2.00000         -18.897874         -514.23731
      6       2.00000         -18.890801         -514.04485
      7       2.00000         -18.888389         -513.97921
      8       2.00000         -18.888309         -513.97704
      9       2.00000         -18.886173         -513.91891
     10       2.00000         -18.884254         -513.86670
     11       2.00000         -18.884099         -513.86248
     12       2.00000         -18.879427         -513.73536
     13       2.00000         -18.879290         -513.73161
     14       2.00000         -18.876502         -513.65574
     15       2.00000         -18.875263         -513.62205
     16       2.00000         -18.872838         -513.55606
     17       2.00000         -18.871029         -513.50684
     18       2.00000         -18.870434         -513.49063
     19       2.00000         -18.870077         -513.48092
     20       2.00000         -18.868826         -513.44689
     21       2.00000         -18.868700         -513.44345
     22       2.00000         -18.867341         -513.40647
     23       2.00000         -18.865885         -513.36684
     24       2.00000         -18.865022         -513.34337
     25       2.00000         -18.864714         -513.33498
     26       2.00000         -18.857844         -513.14804
     27       2.00000         -18.852707         -513.00826
     28       2.00000         -18.851174         -512.96655
     29       2.00000         -18.848172         -512.88485
     30       2.00000         -18.843105         -512.74696
     31       2.00000         -18.839434         -512.64710
     32       2.00000         -18.835030         -512.52725
     33       2.00000          -1.187077          -32.30201
     34       2.00000          -1.162477          -31.63261
     35       2.00000          -1.150638          -31.31046
     36       2.00000          -1.147581          -31.22727
     37       2.00000          -1.142271          -31.08277
     38       2.00000          -1.137750          -30.95975
     39       2.00000          -1.135273          -30.89234
     40       2.00000          -1.130563          -30.76419
     41       2.00000          -1.123558          -30.57356
     42       2.00000          -1.121537          -30.51858
     43       2.00000          -1.118263          -30.42947
     44       2.00000          -1.115958          -30.36676
     45       2.00000          -1.113931          -30.31159
     46       2.00000          -1.112175          -30.26382
     47       2.00000          -1.107668          -30.14117
     48       2.00000          -1.107235          -30.12940
     49       2.00000          -1.102970          -30.01333
     50       2.00000          -1.100959          -29.95861
     51       2.00000          -1.096919          -29.84868
     52       2.00000          -1.094417          -29.78061
     53       2.00000          -1.093154          -29.74624
     54       2.00000          -1.092594          -29.73101
     55       2.00000          -1.090167          -29.66497
     56       2.00000          -1.087641          -29.59622
     57       2.00000          -1.082756          -29.46328
     58       2.00000          -1.073329          -29.20675
     59       2.00000          -1.071846          -29.16642
     60       2.00000          -1.063566          -28.94109
     61       2.00000          -1.056399          -28.74607
     62       2.00000          -1.052626          -28.64340
     63       2.00000          -1.044275          -28.41618
     64       2.00000          -1.031945          -28.08064
     65       2.00000          -0.710265          -19.32730
     66       2.00000          -0.709154          -19.29706
     67       2.00000          -0.707961          -19.26460
     68       2.00000          -0.700058          -19.04953
     69       2.00000          -0.690014          -18.77623
     70       2.00000          -0.688676          -18.73982
     71       2.00000          -0.687584          -18.71010
     72       2.00000          -0.686162          -18.67143
     73       2.00000          -0.680590          -18.51980
     74       2.00000          -0.678597          -18.46556
     75       2.00000          -0.672378          -18.29634
     76       2.00000          -0.663848          -18.06422
     77       2.00000          -0.661510          -18.00061
     78       2.00000          -0.649369          -17.67022
     79       2.00000          -0.647027          -17.60649
     80       2.00000          -0.646612          -17.59521
     81       2.00000          -0.645800          -17.57310
     82       2.00000          -0.639832          -17.41071
     83       2.00000          -0.639342          -17.39739
     84       2.00000          -0.632842          -17.22050
     85       2.00000          -0.631250          -17.17718
     86       2.00000          -0.629729          -17.13581
     87       2.00000          -0.626625          -17.05133
     88       2.00000          -0.626353          -17.04394
     89       2.00000          -0.625210          -17.01283
     90       2.00000          -0.623903          -16.97726
     91       2.00000          -0.623326          -16.96158
     92       2.00000          -0.616028          -16.76297
     93       2.00000          -0.599386          -16.31012
     94       2.00000          -0.597070          -16.24710
     95       2.00000          -0.590380          -16.06504
     96       2.00000          -0.581069          -15.81170
     97       2.00000          -0.575824          -15.66897
     98       2.00000          -0.567290          -15.43676
     99       2.00000          -0.565200          -15.37987
    100       2.00000          -0.561411          -15.27676
    101       2.00000          -0.560578          -15.25410
    102       2.00000          -0.558515          -15.19796
    103       2.00000          -0.555839          -15.12515
    104       2.00000          -0.549447          -14.95123
    105       2.00000          -0.547030          -14.88545
    106       2.00000          -0.543134          -14.77942
    107       2.00000          -0.542351          -14.75812
    108       2.00000          -0.540053          -14.69558
    109       2.00000          -0.537834          -14.63521
    110       2.00000          -0.536211          -14.59105
    111       2.00000          -0.535789          -14.57957
    112       2.00000          -0.532861          -14.49988
    113       2.00000          -0.529117          -14.39801
    114       2.00000          -0.528501          -14.38125
    115       2.00000          -0.525265          -14.29317
    116       2.00000          -0.523418          -14.24292
    117       2.00000          -0.517530          -14.08272
    118       2.00000          -0.514539          -14.00132
    119       2.00000          -0.509948          -13.87640
    120       2.00000          -0.509013          -13.85095
    121       2.00000          -0.506374          -13.77913
    122       2.00000          -0.502747          -13.68043
    123       2.00000          -0.499916          -13.60340
    124       2.00000          -0.494478          -13.45543
    125       2.00000          -0.493376          -13.42544
    126       2.00000          -0.492421          -13.39945
    127       2.00000          -0.490863          -13.35706
    128       2.00000          -0.487197          -13.25730
    129       2.00000          -0.484617          -13.18710
    130       2.00000          -0.482507          -13.12969
    131       2.00000          -0.481165          -13.09317
    132       2.00000          -0.477011          -12.98014
    133       2.00000          -0.473499          -12.88456
    134       2.00000          -0.472306          -12.85209
    135       2.00000          -0.469388          -12.77271
    136       2.00000          -0.468883          -12.75897
    137       2.00000          -0.466871          -12.70421
    138       2.00000          -0.465441          -12.66528
    139       2.00000          -0.464112          -12.62913
    140       2.00000          -0.463270          -12.60623
    141       2.00000          -0.461547          -12.55932
    142       2.00000          -0.460549          -12.53217
    143       2.00000          -0.459429          -12.50169
    144       2.00000          -0.459307          -12.49838
    145       2.00000          -0.457933          -12.46099
    146       2.00000          -0.455960          -12.40730
    147       2.00000          -0.455370          -12.39126
    148       2.00000          -0.453778          -12.34793
    149       2.00000          -0.451985          -12.29915
    150       2.00000          -0.451544          -12.28715
    151       2.00000          -0.451311          -12.28079
    152       2.00000          -0.450215          -12.25098
    153       2.00000          -0.447914          -12.18837
    154       2.00000          -0.444893          -12.10616
    155       2.00000          -0.439931          -11.97112
    156       2.00000          -0.438803          -11.94043
    157       2.00000          -0.434930          -11.83506
    158       2.00000          -0.432754          -11.77583
    159       2.00000          -0.430110          -11.70389
    160       2.00000          -0.427764          -11.64004
    161       0.00000          -0.172173           -4.68505
    162       0.00000          -0.115918           -3.15429
    163       0.00000          -0.114046           -3.10334
    164       0.00000          -0.108175           -2.94358
    165       0.00000          -0.103352           -2.81234
    166       0.00000          -0.100909           -2.74589
    167       0.00000          -0.094517           -2.57195
    168       0.00000          -0.072639           -1.97661
    169       0.00000          -0.068571           -1.86590
    170       0.00000          -0.063629           -1.73143
    171       0.00000          -0.057481           -1.56413
    172       0.00000          -0.056748           -1.54420
    173       0.00000          -0.052054           -1.41647
    174       0.00000          -0.050780           -1.38180
    175       0.00000          -0.050318           -1.36923
    176       0.00000          -0.043395           -1.18083
    177       0.00000          -0.040410           -1.09962
    178       0.00000          -0.034356           -0.93487
    179       0.00000          -0.032224           -0.87685
    180       0.00000          -0.021621           -0.58834
    181       0.00000          -0.012971           -0.35297
    182       0.00000          -0.010166           -0.27664
    183       0.00000          -0.005148           -0.14009
    184       0.00000          -0.001116           -0.03037
    185       0.00000           0.005778            0.15723
    186       0.00000           0.012943            0.35219
    187       0.00000           0.017998            0.48975
    188       0.00000           0.019096            0.51964
    189       0.00000           0.024171            0.65773
    190       0.00000           0.025472            0.69313
    191       0.00000           0.028697            0.78089
    192       0.00000           0.034259            0.93224
    193       0.00000           0.041060            1.11729
    194       0.00000           0.042044            1.14407
    195       0.00000           0.050825            1.38302
    196       0.00000           0.053626            1.45924
    197       0.00000           0.054819            1.49171
    198       0.00000           0.057448            1.56324
    199       0.00000           0.061465            1.67254
    200       0.00000           0.062763            1.70787
    201       0.00000           0.067198            1.82854
    202       0.00000           0.068847            1.87343
    203       0.00000           0.072545            1.97405
    204       0.00000           0.075405            2.05187
    205       0.00000           0.078016            2.12292
    206       0.00000           0.083642            2.27600
    207       0.00000           0.085980            2.33963
    208       0.00000           0.086898            2.36462
    209       0.00000           0.093420            2.54209
    210       0.00000           0.095397            2.59589
    211       0.00000           0.097205            2.64509
    212       0.00000           0.100791            2.74266
    213       0.00000           0.102778            2.79672
    214       0.00000           0.106375            2.89461
    215       0.00000           0.107518            2.92570
    216       0.00000           0.108048            2.94013
    217       0.00000           0.108939            2.96439
    218       0.00000           0.115764            3.15010
    219       0.00000           0.117947            3.20950
    220       0.00000           0.121896            3.31696
    221       0.00000           0.124530            3.38863
    222       0.00000           0.130965            3.56373
    223       0.00000           0.135421            3.68499
    224       0.00000           0.141438            3.84871
    225       0.00000           0.150616            4.09846
    226       0.00000           0.152109            4.13909
    227       0.00000           0.153152            4.16748
    228       0.00000           0.162508            4.42206
    229       0.00000           0.168117            4.57470
    230       0.00000           0.173668            4.72576
    231       0.00000           0.179711            4.89018
    232       0.00000           0.188871            5.13943
    233       0.00000           0.192997            5.25171
    234       0.00000           0.195824            5.32864
    235       0.00000           0.199917            5.44002
    236       0.00000           0.208011            5.66028
    237       0.00000           0.210055            5.71589
    238       0.00000           0.218029            5.93287
    239       0.00000           0.221157            6.01798
    240       0.00000           0.225170            6.12719
    241       0.00000           0.232962            6.33922
    242       0.00000           0.235793            6.41625
    243       0.00000           0.239829            6.52607
    244       0.00000           0.242710            6.60448
    245       0.00000           0.252851            6.88043
    246       0.00000           0.257148            6.99735
    247       0.00000           0.264043            7.18497
    248       0.00000           0.271175            7.37905
    249       0.00000           0.275057            7.48468
    250       0.00000           0.280546            7.63404
    251       0.00000           0.286479            7.79550
    252       0.00000           0.290244            7.89794
    253       0.00000           0.297477            8.09477
    254       0.00000           0.303004            8.24516
    255       0.00000           0.308125            8.38452
    256       0.00000           0.315326            8.58045
    257       0.00000           0.316698            8.61778
    258       0.00000           0.323419            8.80069
    259       0.00000           0.331424            9.01851
[...]
  |    H      0     4.527807 A      4.527807 A        1.268855E-16 a.u.
  |    H      0     4.527807 A      4.583499 A       -4.900954E-17 a.u.
  |    H      0     4.527807 A      4.583499 A        4.713786E-16 a.u.
  |    H      2     3.678162 A  2.180220E+05 A            0.556529 a.u.
  |    H      1     3.958095 A  1.721251E+08 A            0.841931 a.u.
  |    H      0     4.527807 A  3.866455E+16 A            0.581436 a.u.
  |    O      0     2.043000 A      2.043000 A       -1.436841E-16 a.u.
  |    O      3     3.498446 A      3.498446 A        3.043453E-17 a.u.
  |    O      3     3.498446 A      3.498446 A        1.541443E-16 a.u.
  |    O      0     3.905335 A      3.905335 A        2.173090E-16 a.u.
  |    O      0     3.905335 A      3.905335 A        7.213445E-17 a.u.
  |    O      0     4.101052 A      4.101052 A        2.361718E-16 a.u.
  |    O      1     4.101052 A      4.101052 A        3.235185E-17 a.u.
  |    O      0     4.359549 A      4.359549 A       -5.329475E-17 a.u.
  |    O      1     4.413171 A      4.413171 A        3.261883E-17 a.u.
  |    O      1     4.522403 A      4.522403 A        6.417997E-16 a.u.
  |    O      1     4.522403 A      4.522403 A        4.224783E-16 a.u.
  |    O      2     4.522403 A      4.522403 A       -4.387647E-16 a.u.
  |    O      0     4.522403 A      4.578029 A        2.602039E-16 a.u.
  |    O      0     4.578029 A      4.578029 A        1.226235E-16 a.u.
  |    O      1     4.578029 A      4.578029 A       -6.107316E-16 a.u.
  |    O      1     4.578029 A      4.578029 A       -2.224438E-16 a.u.
  |    O      2     4.578029 A      4.578029 A       -7.020279E-16 a.u.
  |    O      2     4.522403 A      4.578029 A        1.323470E-15 a.u.
  |    O      2     4.578029 A      4.578029 A        7.923696E-16 a.u.
  |    O      2     4.522403 A      4.578029 A       -9.951815E-16 a.u.
  |    O      0     4.578029 A      4.634338 A       -8.813582E-18 a.u.
  |    O      1     4.578029 A      4.634338 A       -3.325386E-17 a.u.
  |    O      1     4.634338 A      4.634338 A        9.588032E-16 a.u.
  |    O      2     4.578029 A      4.634338 A        1.064715E-17 a.u.
  |    O      2     4.578029 A      4.634338 A       -3.770343E-15 a.u.
  |    O      4     3.251020 A  1.511584E+03 A            1.513372 a.u.
  |    O      3     3.541477 A  1.434166E+04 A            4.293220 a.u.
  |    O      2     4.634338 A  5.584435E+05 A            9.352428 a.u.
  |    O      1     4.634338 A  2.821283E+08 A            2.261940 a.u.
  |    O      0     4.578029 A  4.264100E+16 A            0.641234 a.u.

  | Shrink_full_auxil_basis : there are       38  radial auxiliary wave functions
                            accepted and       5 rejected.
  | Shrink_full_auxil_basis : there are totally                4544 partial auxiliary wave functions.
 
  | Maximal number of product basis functions per thread :   256   256
 
  | Minimal total memory requirement for three-center overlap :      10.450 Gbs
  | Number of local auxiliary basis functions on task:      0   256
  | Number of local auxiliary basis functions on task:      1   256
  | Number of local auxiliary basis functions on task:      2   256
  | Number of local auxiliary basis functions on task:      3   256
  | Number of local auxiliary basis functions on task:      4   256
  | Number of local auxiliary basis functions on task:      5   256
  | Number of local auxiliary basis functions on task:      6   256
  | Number of local auxiliary basis functions on task:      7   256
  | Number of local auxiliary basis functions on task:      8   256
  | Number of local auxiliary basis functions on task:      9   256
  | Number of local auxiliary basis functions on task:     10   256
  | Number of local auxiliary basis functions on task:     11   256
  | Number of local auxiliary basis functions on task:     12   256
  | Number of local auxiliary basis functions on task:     13   256
  | Number of local auxiliary basis functions on task:     14   240
  | Number of local auxiliary basis functions on task:     15   240
  | Number of local auxiliary basis functions on task:     16   240
  | Number of local auxiliary basis functions on task:     17   240
  | 2D aux task distribution:      3 X      6
  | 2D block size (nb_aux_2d):     64
 
  Basis pair condensation :    295296  -->     226150
 
 --------------------------------------------
  Constructing auxiliary basis (full product) ...
 
  Product basis:
  | charge radius: extent of product basis function
  | field radius: extent of its Coulomb potential
  | Species   l  charge radius    field radius  multipol momen
  |    H      1     3.910002 A      3.910002 A       -2.487223E-16 a.u.
  |    H      1     3.958095 A      3.958095 A       -2.441841E-16 a.u.
  |    H      0     4.527807 A      4.527807 A        1.268855E-16 a.u.
  |    H      0     4.527807 A      4.583499 A       -4.900954E-17 a.u.
  |    H      0     4.527807 A      4.583499 A        4.713786E-16 a.u.
  |    H      2     3.678162 A  2.180220E+05 A            0.556529 a.u.
  |    H      1     3.958095 A  1.721251E+08 A            0.841931 a.u.
  |    H      0     4.527807 A  3.866455E+16 A            0.581436 a.u.
  |    O      0     2.043000 A      2.043000 A       -1.436841E-16 a.u.
  |    O      3     3.498446 A      3.498446 A        3.043453E-17 a.u.
  |    O      3     3.498446 A      3.498446 A        1.541443E-16 a.u.
  |    O      0     3.905335 A      3.905335 A        2.173090E-16 a.u.
  |    O      0     3.905335 A      3.905335 A        7.213445E-17 a.u.
  |    O      0     4.101052 A      4.101052 A        2.361718E-16 a.u.
  |    O      1     4.101052 A      4.101052 A        3.235185E-17 a.u.
  |    O      0     4.359549 A      4.359549 A       -5.329475E-17 a.u.
  |    O      1     4.413171 A      4.413171 A        3.261883E-17 a.u.
  |    O      1     4.522403 A      4.522403 A        6.417997E-16 a.u.
  |    O      1     4.522403 A      4.522403 A        4.224783E-16 a.u.
  |    O      2     4.522403 A      4.522403 A       -4.387647E-16 a.u.
  |    O      0     4.522403 A      4.578029 A        2.602039E-16 a.u.
  |    O      0     4.578029 A      4.578029 A        1.226235E-16 a.u.
  |    O      1     4.578029 A      4.578029 A       -6.107316E-16 a.u.
  |    O      1     4.578029 A      4.578029 A       -2.224438E-16 a.u.
  |    O      2     4.578029 A      4.578029 A       -7.020279E-16 a.u.
  |    O      2     4.522403 A      4.578029 A        1.323470E-15 a.u.
  |    O      2     4.578029 A      4.578029 A        7.923696E-16 a.u.
  |    O      2     4.522403 A      4.578029 A       -9.951815E-16 a.u.
  |    O      0     4.578029 A      4.634338 A       -8.813582E-18 a.u.
  |    O      1     4.578029 A      4.634338 A       -3.325386E-17 a.u.
  |    O      1     4.634338 A      4.634338 A        9.588032E-16 a.u.
  |    O      2     4.578029 A      4.634338 A        1.064715E-17 a.u.
  |    O      2     4.578029 A      4.634338 A       -3.770343E-15 a.u.
  |    O      4     3.251020 A  1.511584E+03 A            1.513372 a.u.
  |    O      3     3.541477 A  1.434166E+04 A            4.293220 a.u.
  |    O      2     4.634338 A  5.584435E+05 A            9.352428 a.u.
  |    O      1     4.634338 A  2.821283E+08 A            2.261940 a.u.
  |    O      0     4.578029 A  4.264100E+16 A            0.641234 a.u.

  | Shrink_full_auxil_basis : there are       38  radial auxiliary wave functions
                            accepted and       5 rejected.
  | Shrink_full_auxil_basis : there are totally                4544 partial auxiliary wave functions.
 
  | Maximal number of product basis functions per thread :   256   256
 
  | Minimal total memory requirement for three-center overlap :      10.450 Gbs
  | Number of local auxiliary basis functions on task:      0   256
  | Number of local auxiliary basis functions on task:      1   256
  | Number of local auxiliary basis functions on task:      2   256
  | Number of local auxiliary basis functions on task:      3   256
  | Number of local auxiliary basis functions on task:      4   256
  | Number of local auxiliary basis functions on task:      5   256
  | Number of local auxiliary basis functions on task:      6   256
  | Number of local auxiliary basis functions on task:      7   256
  | Number of local auxiliary basis functions on task:      8   256
  | Number of local auxiliary basis functions on task:      9   256
  | Number of local auxiliary basis functions on task:     10   256
  | Number of local auxiliary basis functions on task:     11   256
  | Number of local auxiliary basis functions on task:     12   256
  | Number of local auxiliary basis functions on task:     13   256
  | Number of local auxiliary basis functions on task:     14   240
  | Number of local auxiliary basis functions on task:     15   240
  | Number of local auxiliary basis functions on task:     16   240
  | Number of local auxiliary basis functions on task:     17   240
  | 2D aux task distribution:      3 X      6
  | 2D block size (nb_aux_2d):     64
 
  Basis pair condensation :    295296  -->     226150
dP_dE (Bohr^3) at every cycle:--->
 (355.497708949637,0.000000000000000E+000) (8.96188316029701,0.000000000000000E+000) (-10.4815390337636,0.000000000000000E+000)
 (8.97049153139918,0.000000000000000E+000) (350.360168194287,0.000000000000000E+000) (-5.72461725008002,0.000000000000000E+000)
 (-10.4668399940132,0.000000000000000E+000) (-5.71856722637626,0.000000000000000E+000) (343.592532524621,0.000000000000000E+000)
DFPT polarizability (Bohr^3)        xx        yy        zz        xy        xz        yz
  | Polarizability:--->                       355.497708950                  350.360168194                  343.592532525                    8.961883160                  -10.481539034                   -5.724617250

DFPT for dielectric_constant:--->  # PARSE DFPT_dielectric_tensor
               1.680686760441866             0.017159703318103            -0.020069453810034
               0.017176186136672             1.670849690088503            -0.010961170979807
              -0.020041308926122            -0.010949586739088             1.657891406859485

                                               :  max(cpu_time)    wall_clock(cpu1)
  | Time for  dielectric calculation            :        0.000 s           0.000 s
===========================================================================

------------------------------------------------------------------------------
  Final output of selected total energy values:

  The following output summarizes some interesting total energy values
  at the end of a run (AFTER all relaxation, molecular dynamics, etc.).

  | Total energy of the DFT / Hartree-Fock s.c.f. calculation      :         -66109.448251883 eV
  | Final zero-broadening corrected energy (caution - metals only) :         -66109.448251883 eV
  | For reference only, the value of 1 Hartree used in FHI-aims is :             27.211384500 eV
  | For reference only, the overall average (free atom contribution
  | + realspace contribution) of the electrostatic potential after
  | s.c.f. convergence is                                          :             -4.954722955 eV

  Before relying on these values, please be sure to understand exactly which
  total energy value is referred to by a given number. Different objects may
  all carry the same name 'total energy'. Definitions:

  Total energy of the DFT / Hartree-Fock s.c.f. calculation:
  | Note that this energy does not include ANY quantities calculated after the
  | s.c.f. cycle, in particular not ANY RPA, MP2, etc. many-body perturbation terms.

  Final zero-broadening corrected energy:
  | For metallic systems only, a broadening of the occupation numbers at the Fermi
  | level can be extrapolated back to zero broadening by an electron-gas inspired
  | formula. For all systems that are not real metals, this value can be
  | meaningless and should be avoided.

------------------------------------------------------------------------------
  Methods described in the following list of references were used in this FHI-aims run.
  If you publish the results, please make sure to cite these reference if they apply.
  FHI-aims is an academic code, and for our developers (often, Ph.D. students
  and postdocs), scientific credit in the community is essential.
  Thank you for helping us!

  For any use of FHI-aims, please cite:

    Volker Blum, Ralf Gehrke, Felix Hanke, Paula Havu, Ville Havu,
    Xinguo Ren, Karsten Reuter, and Matthias Scheffler
    'Ab initio molecular simulations with numeric atom-centered orbitals'
    Computer Physics Communications 180, 2175-2196 (2009)
    http://doi.org/10.1016/j.cpc.2009.06.022


  For Hartree-Fock, hybrid functionals, or many-body perturbation theory used in your run, please cite:

    Xinguo Ren, Patrick Rinke, Volker Blum, Juergen Wieferink, Alex Tkatchenko,
    Andrea Sanfilippo, Karsten Reuter, and Matthias Scheffler,
    'Resolution-of-identity approach to Hartree-Fock, hybrid density functionals,
    RPA, MP2, and GW with numeric atom-centered orbital basis functions'
    New Journal of Physics 14, 053020 (2012).
    http://doi.org/10.1088/1367-2630/14/5/053020


  The provided symmetry information was generated with SPGlib:

    Atsushi Togo, Yusuke Seto, Dimitar Pashov
    SPGlib 1.7.3 obtained from http://spglib.sourceforge.net
    Copyright (C) 2008 Atsushi Togo


  The DFPT (perturbation by an electric field) part of the code was used.
  Here is the corresponding reference:

    Honghui Shang, Nathaniel Raimbault, Mariana Rossi,
    Christian Carbogno, Patrick Rinke and Matthias Scheffler,
    'All-Electron, Real-Space Perturbation Theory for Homogeneous
    Electric Fields: Theory, Implementation, and Application within dft'
    New Journal of Physics, 20(7):073040, 2018


  The ELSI infrastructure was used in your run to solve the Kohn-Sham electronic structure.
  Please check out http://elsi-interchange.org to learn more.
  If scalability is important for your project, please acknowledge ELSI by citing:

    V. W-z. Yu, F. Corsetti, A. Garcia, W. P. Huhn, M. Jacquelin, W. Jia,
    B. Lange, L. Lin, J. Lu, W. Mi, A. Seifitokaldani, A. Vazquez-Mayagoitia,
    C. Yang, H. Yang, and V. Blum
    'ELSI: A unified software interface for Kohn-Sham electronic structure solvers'
    Computer Physics Communications 222, 267-285 (2018).
    http://doi.org/10.1016/j.cpc.2017.09.007


  For the real-space grid partitioning and parallelization used in this calculation, please cite:

    Ville Havu, Volker Blum, Paula Havu, and Matthias Scheffler,
    'Efficient O(N) integration for all-electron electronic structure calculation'
    'using numerically tabulated basis functions'
    Journal of Computational Physics 228, 8367-8379 (2009).
    http://doi.org/10.1016/j.jcp.2009.08.008


  The high-level electronic structure method used in your calculation
  employed our efficient localized resolution of identity for the Coulomb operator.
  Some calculations, especially large-scale hybrid density functional theory,
  are only possible thanks to this development. For this feature, please cite:

    Arvid Ihrig, Juergen Wieferink, Igor Ying Zhang, Matti Ropo, Xinguo Ren,
    Patrick Rinke, Matthias Scheffler, and Volker Blum,
    'Accurate localized resolution of identity approach for linear-scaling
    hybrid density functionals and for many-body perturbation theory'
    New Journal of Physics 117, 093020 (2015).
    http://doi.org/10.1088/1367-2630/17/9/093020

  Of course, there are many other important community references, e.g., those cited in the
  above references. Our list is limited to references that describe implementations in the
  FHI-aims code. The reason is purely practical (length of this list) - please credit others as well.

------------------------------------------------------------
          Leaving FHI-aims.
          Date     :  20230221, Time     :  160039.490

          Computational steps:
          | Number of self-consistency cycles          :           45
          | Number of SCF (re)initializations          :            1
          | Number of coupled perturbed self-consistency cycles          :            0
          | Number of CPSCF (re)initializations          :            0

          Detailed time accounting                     :  max(cpu_time)    wall_clock(cpu1)
          | Total time                                  :      496.141 s         506.918 s
          | GPU initialization                          :        2.072 s           9.424 s
          | Preparation time                            :        0.070 s           0.063 s
          | Boundary condition initalization            :        1.260 s           1.260 s
          | Grid partitioning                           :        0.429 s           0.429 s
          | Preloading free-atom quantities on grid     :        2.361 s           2.361 s
          | Free-atom superposition energy              :        0.312 s           0.312 s
          | Total time for integrations                 :       11.969 s          12.122 s
          | Product basis setup: Total time             :        0.000 s           0.000 s
          | Product basis: | 2-center integrations     :(       0.000 s)  (       0.000 s)
          | Product basis: | LVL 3-center & coefficient:(       0.000 s)  (       0.000 s)
          | Total time for solution of K.-S. equations  :        2.257 s           4.482 s
          | Total time for density update               :        8.642 s           8.928 s
          | Total time for mixing & preconditioning     :        8.562 s           8.567 s
          | Total time for Hartree multipole update     :        0.108 s           0.110 s
          | Total time for Hartree multipole sum        :       35.595 s          35.608 s
          | Total time for total energy evaluation      :        0.007 s           0.012 s
          | Total time for DFPT                         :      405.558 s         405.698 s
          | Total time first_order_DM                   :        0.310 s           0.312 s
          | Total time first_order_density              :       86.618 s          86.629 s
          | Total time first_order_potential            :       52.412 s          52.427 s
          | Total time first_order_H                    :      174.926 s         174.988 s
          | Total time solving of Sternheimer equations :        0.202 s           0.199 s
          | Total time for dielectric constant          :        0.000 s           0.000 s
          | Total time momentum matrix                  :        0.000 s           0.000 s

          GPU acceleration has been used for charge density update.
          GPU acceleration has been used for real-space Hamiltonian integration.
          Due to GPU usage, wall_clock(cpu1) will give a more reliable estimate for timings.

          Partial memory accounting:
          | Residual value for overall tracked memory usage across tasks:     0.000000 MB (should be 0.000000 MB)
          | Peak values for overall tracked memory usage:
          |   Minimum:      116.667 MB (on task  0 after allocating DFPT_pulay_mixing::pulay_mix::alphas)
          |   Maximum:      116.667 MB (on task  0 after allocating DFPT_pulay_mixing::pulay_mix::alphas)
          |   Average:      116.667 MB
          | Largest tracked array allocation:
          |   Minimum:       41.611 MB (DFPT_pulay_mixing::initialize_pulay_mixing::X_in_diffs on task  0)
          |   Maximum:       41.611 MB (DFPT_pulay_mixing::initialize_pulay_mixing::X_in_diffs on task  0)
          |   Average:       41.611 MB
          Note:  These values currently only include a subset of arrays which are explicitly tracked.
          The "true" memory usage will be greater.

          Have a nice day.
------------------------------------------------------------
