------------------------------------------------------------
          Invoking FHI-aims ...

          When using FHI-aims, please cite the following reference:

            Volker Blum, Ralf Gehrke, Felix Hanke, Paula Havu,
            Ville Havu, Xinguo Ren, Karsten Reuter, and Matthias Scheffler,
            'Ab Initio Molecular Simulations with Numeric Atom-Centered Orbitals',
            Computer Physics Communications 180, 2175-2196 (2009)

          In addition, many other developments in FHI-aims are likely important for
          your particular application. A partial list of references is given at the end of
          this file. Thank you for giving credit to the authors of these developments.

          For any questions about FHI-aims, please visit our slack channel at

            https://fhi-aims.slack.com

          and our main development and support site at

            https://aims-git.rz-berlin.mpg.de .

          The latter site, in particular, has a wiki to collect information, as well
          as an issue tracker to log discussions, suggest improvements, and report issues
          or bugs. https://aims-git.rz-berlin.mpg.de is also the main development site
          of the project and all new and updated code versions can be obtained there.
          Please send an email to aims-coordinators@fhi-berlin.mpg.de and we will add
          you to these sites. They are for you and everyone is welcome there.

------------------------------------------------------------



  Date     :  20230221, Time     :  154204.045
  Time zero on CPU 1             :   0.424715000000000E+00  s.
  Internal wall clock time zero  :           446226124.045  s.

  FHI-aims created a unique identifier for this run for later identification
  aims_uuid : 6DC85C07-0F6D-45DD-A95B-61B22C73C8FC

  Build configuration of the current instance of FHI-aims
  -------------------------------------------------------
  FHI-aims version      : 221103
  Commit number         : 42523251a
  CMake host system     : Linux-5.3.18-150300.59.68-default
  CMake version         : 3.17.0
  Fortran compiler      : /mpcdf/soft/SLE_15/packages/x86_64/intel_oneapi/2021.3/mpi/2021.3.0/bin/mpiifort (Intel) version 20.2.3.20210609
  Fortran compiler flags: -O3 -ip -fp-model precise
  C compiler            : /mpcdf/soft/SLE_15/packages/x86_64/intel/2021.3.0/bin/icc (Intel) version 20.2.3.20210609
  C compiler flags      : -O3 -ip -fp-model precise -std=gnu99
  CUDA compiler         : /mpcdf/soft/SLE_15/packages/x86_64/cuda/11.6.2/bin/nvcc
  CUDA compiler flags   : -O3 -DAdd_ -lcublas
  HIP compiler          :
  HIP compiler flags    :
  HIP GPU arch          :
  ELPA2 kernel          : AVX512
  Using MPI
  Using ScaLAPACK
  Using LibXC
  Using CUDA
  Using i-PI
  Using RLSY
  Linking against: /mpcdf/soft/SLE_15/packages/x86_64/cuda/11.6.2/lib64/libcublas.so
                   /mpcdf/soft/SLE_15/packages/x86_64/cuda/11.6.2/lib64/libcudart.so
                   /mpcdf/soft/SLE_15/packages/x86_64/intel_oneapi/2021.3/mkl/latest/lib/intel64/libmkl_intel_lp64.so
                   /mpcdf/soft/SLE_15/packages/x86_64/intel_oneapi/2021.3/mkl/latest/lib/intel64/libmkl_sequential.so
                   /mpcdf/soft/SLE_15/packages/x86_64/intel_oneapi/2021.3/mkl/latest/lib/intel64/libmkl_core.so
                   /mpcdf/soft/SLE_15/packages/x86_64/intel_oneapi/2021.3/mkl/latest/lib/intel64/libmkl_blacs_intelmpi_lp64.so
                   /mpcdf/soft/SLE_15/packages/x86_64/intel_oneapi/2021.3/mkl/latest/lib/intel64/libmkl_scalapack_lp64.so

  Using       18 parallel tasks.
  Task        0 on host adag037 reporting.
  Task        1 on host adag037 reporting.
  Task        2 on host adag037 reporting.
  Task        3 on host adag037 reporting.
  Task        4 on host adag037 reporting.
  Task        5 on host adag037 reporting.
  Task        6 on host adag037 reporting.
  Task        7 on host adag037 reporting.
  Task        8 on host adag037 reporting.
  Task        9 on host adag037 reporting.
  Task       10 on host adag037 reporting.
  Task       11 on host adag037 reporting.
  Task       12 on host adag037 reporting.
  Task       13 on host adag037 reporting.
  Task       14 on host adag037 reporting.
  Task       15 on host adag037 reporting.
  Task       16 on host adag037 reporting.
  Task       17 on host adag037 reporting.

  Obtaining array dimensions for all initial allocations:
  
  -----------------------------------------------------------------------
  Parsing control.in (first pass over file, find array dimensions only).
  The contents of control.in will be repeated verbatim below
  unless switched off by setting 'verbatim_writeout .false.' .
  in the first line of control.in .
  -----------------------------------------------------------------------
  
  #########################################################################################
  #
  #  Volker Blum, 2017 : Test run input file control.in for simple H2O
  #
  #########################################################################################
  #
  #  Physical model
  #
    xc                 pw-lda
    spin               none
    relativistic       none
    charge             0.
  
    use_gpu
  
    DFPT dielectric
    ri_density_restart write
    ri_rho1 write
  #  ri_density_restart read 0
  #  ri_rho1 read
    ri_full_output .true.
    sc_accuracy_rho    1d-6
  #  use_calculate_fock_matrix_old .false.
  #  wave_threshold 1e-8
    k_grid 1 1 1
  #  output cube eigenstate 160
  #  output cube eigenstate 161
    wave_threshold 1e-8
    default_prodbas_acc 1e-6
    default_max_l_prodbas 6
  #
  #  Relaxation
  #
  #  relax_geometry   bfgs 1.e-2
  #
  
  ################################################################################
  
  
  ################################################################################
  #
  #  FHI-aims code project
  #  VB, Fritz-Haber Institut, 2009
  #
  #  Suggested "light" defaults for H atom (to be pasted into control.in file)
  #  Be sure to double-check any results obtained with these settings for post-processing,
  #  e.g., with the "tight" defaults and larger basis sets.
  #
  ################################################################################
    species        H
  #     global species definitions
      nucleus             1
      mass                1.00794
  #
      l_hartree           4
  #
      cut_pot             3.5  1.5  1.0
      basis_dep_cutoff    1e-4
  #
      radial_base         24 5.0
      radial_multiplier   1
      angular_grids       specified
        division   0.2421   50
        division   0.3822  110
        division   0.4799  194
        division   0.5341  302
  #      division   0.5626  434
  #      division   0.5922  590
  #      division   0.6542  770
  #      division   0.6868 1202
  #      outer_grid  770
        outer_grid  302
  ################################################################################
  #
  #  Definition of "minimal" basis
  #
  ################################################################################
  #     valence basis states
      valence      1  s   1.
  #     ion occupancy
      ion_occ      1  s   0.5
  ################################################################################
  #
  #  Suggested additional basis functions. For production calculations,
  #  uncomment them one after another (the most important basis functions are
  #  listed first).
  #
  #  Basis constructed for dimers: 0.5 A, 0.7 A, 1.0 A, 1.5 A, 2.5 A
  #
  ################################################################################
  #  "First tier" - improvements: -1014.90 meV to -62.69 meV
       hydro 2 s 2.1
       hydro 2 p 3.5
  #  "Second tier" - improvements: -12.89 meV to -1.83 meV
  #     hydro 1 s 0.85
  #     hydro 2 p 3.7
  #     hydro 2 s 1.2
  #     hydro 3 d 7
  #  "Third tier" - improvements: -0.25 meV to -0.12 meV
  #     hydro 4 f 11.2
  #     hydro 3 p 4.8
  #     hydro 4 d 9
  #     hydro 3 s 3.2
  ################################################################################
  #
  #  FHI-aims code project
  #  VB, Fritz-Haber Institut, 2009
  #
  #  Suggested "light" defaults for O atom (to be pasted into control.in file)
  #  Be sure to double-check any results obtained with these settings for post-processing,
  #  e.g., with the "tight" defaults and larger basis sets.
  #
  ################################################################################
    species        O
  #     global species definitions
      nucleus             8
      mass                15.9994
  #
      l_hartree           4
  #
      cut_pot             3.5  1.5  1.0
      basis_dep_cutoff    1e-4
  #
      radial_base         36 5.0
      radial_multiplier   1
       angular_grids specified
        division   0.2659   50
        division   0.4451  110
        division   0.6052  194
        division   0.7543  302
  #      division   0.8014  434
  #      division   0.8507  590
  #      division   0.8762  770
  #      division   0.9023  974
  #      division   1.2339 1202
  #      outer_grid 974
        outer_grid 302
  ################################################################################
  #
  #  Definition of "minimal" basis
  #
  ################################################################################
  #     valence basis states
      valence      2  s   2.
      valence      2  p   4.
  #     ion occupancy
      ion_occ      2  s   1.
      ion_occ      2  p   3.
  ################################################################################
  #
  #  Suggested additional basis functions. For production calculations,
  #  uncomment them one after another (the most important basis functions are
  #  listed first).
  #
  #  Constructed for dimers: 1.0 A, 1.208 A, 1.5 A, 2.0 A, 3.0 A
  #
  ################################################################################
  #  "First tier" - improvements: -699.05 meV to -159.38 meV
       hydro 2 p 1.8
       hydro 3 d 7.6
       hydro 3 s 6.4
  #  "Second tier" - improvements: -49.91 meV to -5.39 meV
  #     hydro 4 f 11.6
  #     hydro 3 p 6.2
  #     hydro 3 d 5.6
  #     hydro 5 g 17.6
  #     hydro 1 s 0.75
  #  "Third tier" - improvements: -2.83 meV to -0.50 meV
  #     ionic 2 p auto
  #     hydro 4 f 10.8
  #     hydro 4 d 4.7
  #     hydro 2 s 6.8
  #  "Fourth tier" - improvements: -0.40 meV to -0.12 meV
  #     hydro 3 p 5
  #     hydro 3 s 3.3
  #     hydro 5 g 15.6
  #     hydro 4 f 17.6
  #     hydro 4 d 14
  # Further basis functions - -0.08 meV and below
  #     hydro 3 s 2.1
  #     hydro 4 d 11.6
  #     hydro 3 p 16
  #     hydro 2 s 17.2
  
  -----------------------------------------------------------------------
  Completed first pass over input file control.in .
  -----------------------------------------------------------------------
  
  
  -----------------------------------------------------------------------
  Parsing geometry.in (first pass over file, find array dimensions only).
  The contents of geometry.in will be repeated verbatim below
  unless switched off by setting 'verbatim_writeout .false.' .
  in the first line of geometry.in .
  -----------------------------------------------------------------------
  
  #=======================================================
  # FHI-aims file: /ada/ptmp/mpsd/alewis/bulk_water/qmdata/data/geoms/480.in
  # Created using the Atomic Simulation Environment (ASE)
  # Tue Feb 21 11:23:37 2023
  #=======================================================
  lattice_vector 9.8441100000000006 0.0000000000000000 0.0000000000000000
  lattice_vector 0.0000000000000000 9.8441100000000006 0.0000000000000000
  lattice_vector 0.0000000000000000 0.0000000000000000 9.8441100000000006
  atom 0.8281440000000000 -1.8797299999999999 -14.1965000000000003 O
  atom 0.8371600000000000 -1.1553300000000000 -13.6037999999999997 H
  atom 1.9099500000000000 -2.0289899999999998 -14.2154000000000007 H
  atom 12.4094999999999995 21.1264000000000003 -14.4943000000000008 O
  atom 12.7739999999999991 20.9179999999999993 -15.4370999999999992 H
  atom 12.8327000000000009 21.9850999999999992 -14.1250999999999998 H
  atom 8.2292500000000004 -9.3634000000000004 22.6113999999999997 O
  atom 8.7768300000000004 -10.1760999999999999 22.4572000000000003 H
  atom 7.3553300000000004 -9.7581199999999999 22.4891000000000005 H
  atom -3.6781799999999998 -5.5034799999999997 -3.2189299999999998 O
  atom -4.1533899999999999 -4.8128599999999997 -3.7410700000000001 H
  atom -2.8194499999999998 -5.4044699999999999 -2.6104400000000001 H
  atom 5.3362400000000001 -7.0516399999999999 23.6668999999999983 O
  atom 4.9378700000000002 -7.0682000000000000 22.8504000000000005 H
  atom 5.8253399999999997 -6.1724100000000002 23.7413999999999987 H
  atom 0.3232530000000000 -11.7078000000000007 21.9603000000000002 O
  atom 1.2421000000000000 -11.9036000000000008 22.1418999999999997 H
  atom 0.1514700000000000 -12.3110999999999997 21.2034999999999982 H
  atom -22.5353999999999992 8.0375399999999999 17.7012000000000000 O
  atom -23.4294000000000011 7.7414100000000001 17.7907000000000011 H
  atom -22.3276000000000003 7.9674800000000001 16.7640999999999991 H
  atom 6.4604499999999998 -4.4553000000000003 23.5051999999999985 O
  atom 7.3664600000000000 -4.7156700000000003 23.7386000000000017 H
  atom 6.8608599999999997 -3.5924600000000000 23.4376999999999995 H
  atom -5.6141699999999997 -12.4205000000000005 -18.4142000000000010 O
  atom -6.2847099999999996 -12.7393000000000001 -17.8068999999999988 H
  atom -6.0453599999999996 -12.2051999999999996 -19.1968999999999994 H
  atom -0.2027940000000000 -12.3298000000000005 -0.7195279999999999 O
  atom -1.0150900000000000 -11.7683999999999997 -1.0279400000000001 H
  atom 0.6780330000000000 -11.9931999999999999 -1.3560500000000000 H
  atom 0.7161520000000000 15.2614000000000001 -22.8534000000000006 O
  atom -0.2462690000000000 14.9208999999999996 -22.9304999999999986 H
  atom 0.6247210000000000 16.2665000000000006 -23.1001000000000012 H
  atom -15.1661000000000001 -5.2973900000000000 0.0723600000000000 O
  atom -14.4985999999999997 -4.6918100000000003 0.4941730000000000 H
  atom -15.7827999999999999 -5.2622400000000003 0.7429470000000000 H
  atom 19.9989999999999988 10.8146000000000004 6.6764099999999997 O
  atom 19.5305000000000000 11.4606999999999992 6.2215699999999998 H
  atom 20.9031999999999982 11.3043999999999993 6.4565000000000001 H
  atom -1.3929300000000000 12.2017000000000007 24.5995999999999988 O
  atom -2.3994200000000001 12.3664000000000005 25.0283000000000015 H
  atom -1.7089399999999999 11.6556999999999995 23.7749999999999986 H
  atom -5.0058499999999997 1.7084999999999999 -29.1500999999999983 O
  atom -5.2607400000000002 2.5229200000000001 -29.7136999999999993 H
  atom -5.1971999999999996 0.8624210000000000 -29.7063999999999986 H
  atom -12.2416000000000000 7.9380699999999997 4.9820099999999998 O
  atom -11.3827999999999996 8.4141600000000007 5.1507500000000004 H
  atom -12.9982000000000006 8.5536100000000008 4.8804299999999996 H
  atom -26.8795000000000002 16.1524000000000001 3.1999399999999998 O
  atom -26.5704999999999991 16.3721999999999994 3.9151699999999998 H
  atom -26.6049000000000007 15.3137000000000008 3.2492800000000002 H
  atom 9.3283299999999993 -24.2328000000000010 -5.8520099999999999 O
  atom 9.7266399999999997 -24.7314000000000007 -5.2338800000000001 H
  atom 9.9801800000000007 -23.4627000000000017 -5.8724699999999999 H
  atom 29.5271000000000008 31.4695999999999998 18.9819999999999993 O
  atom 28.6041999999999987 31.8104000000000013 19.3104000000000013 H
  atom 29.5658999999999992 30.8187999999999995 18.2253000000000007 H
  atom -26.6346999999999987 23.3206999999999987 -2.2752699999999999 O
  atom -27.4750000000000014 23.8704000000000001 -2.3054500000000000 H
  atom -25.9085000000000001 23.8629999999999995 -1.8642000000000001 H
  atom -5.2540399999999998 -3.1107399999999998 17.7488999999999990 O
  atom -4.9135900000000001 -3.7376499999999999 18.4279000000000011 H
  atom -5.9405599999999996 -2.4996999999999998 18.1931000000000012 H
  atom 9.8452699999999993 44.0670000000000002 11.2256000000000000 O
  atom 9.3581199999999995 44.1869000000000014 11.8981999999999992 H
  atom 10.0100999999999996 43.2531000000000034 10.9709000000000003 H
  atom 23.7800000000000011 20.2817000000000007 -21.7171999999999983 O
  atom 24.7058999999999997 20.6192999999999991 -21.9295000000000009 H
  atom 23.1827000000000005 20.6632999999999996 -22.2519999999999989 H
  atom 24.9784000000000006 -0.1860560000000000 14.4674999999999994 O
  atom 24.5782999999999987 0.2732190000000000 13.7640999999999991 H
  atom 25.1190999999999995 0.5458270000000000 14.7461000000000002 H
  atom -2.5155400000000001 -9.1453000000000007 -10.1720000000000006 O
  atom -2.5338099999999999 -10.2566000000000006 -10.3873999999999995 H
  atom -3.3106000000000000 -8.8756799999999991 -9.6909100000000006 H
  atom 18.0551999999999992 -25.1111000000000004 8.4784600000000001 O
  atom 18.6729999999999983 -25.8181000000000012 8.2855000000000008 H
  atom 18.5162000000000013 -24.5280999999999985 8.9761100000000003 H
  atom 22.3563000000000009 23.2891000000000012 31.7867999999999995 O
  atom 22.1428000000000011 22.6133999999999986 32.3059000000000012 H
  atom 21.6835999999999984 23.6540999999999997 31.1297999999999995 H
  atom 45.6893999999999991 11.4595000000000002 16.8428000000000004 O
  atom 45.6991999999999976 12.4624000000000006 16.8529000000000018 H
  atom 45.9742000000000033 11.1660000000000004 17.7786000000000008 H
  atom -6.2171900000000004 -2.2692999999999999 15.3835999999999995 O
  atom -5.7346899999999996 -1.4304500000000000 15.0053000000000001 H
  atom -5.6481700000000004 -2.5775399999999999 16.1721000000000004 H
  atom -46.6422000000000025 18.3898000000000010 -10.9695000000000000 O
  atom -47.1880999999999986 18.9668999999999990 -10.4423999999999992 H
  atom -46.0416000000000025 19.0220999999999982 -11.5256000000000007 H
  atom 33.1375999999999991 20.4562999999999988 -7.2175799999999999 O
  atom 32.2697999999999965 20.2072000000000003 -7.7662800000000001 H
  atom 33.7030999999999992 20.7528000000000006 -7.9497099999999996 H
  atom 1.5525700000000000 -9.5534300000000005 20.5774000000000008 O
  atom 0.8668090000000001 -10.2837999999999994 21.0615999999999985 H
  atom 0.9613699999999999 -8.8606300000000005 20.1139000000000010 H
  
  -----------------------------------------------------------------------
  Completed first pass over input file geometry.in .
  -----------------------------------------------------------------------
  

  Basic array size parameters:
  | Number of species                 :        2
  | Number of atoms                   :       96
  | Number of lattice vectors         :        3
  | Max. basis fn. angular momentum   :        2
  | Max. atomic/ionic basis occupied n:        2
  | Max. number of basis fn. types    :        2
  | Max. radial fns per species/type  :        3
  | Max. logarithmic grid size        :     1301
  | Max. radial integration grid size :       36
  | Max. angular integration grid size:      302
  | Max. angular grid division number :        8
  | Radial grid for Hartree potential :     1301
  | Number of spin channels           :        1

------------------------------------------------------------
          Reading file control.in.
------------------------------------------------------------
  XC: Using Perdew-Wang parametrisation of Ceperley-Alder LDA.
  Spin treatment: No spin polarisation.
  Non-relativistic treatment of kinetic energy.
  Charge =   0.000000E+00: Neutral system requested explicitly.
  DFPT calculation will begin after the DFT/HF calculation.
  Convergence accuracy of self-consistent charge density:  0.1000E-05
  Found k-point grid:         1         1         1
  Threshold value for wave function integration:  0.1000E-07
 
  Reading configuration options for species H                   .
  | Found nuclear charge :   1.0000
  | Found atomic mass :    1.00794000000000      amu
  | Found l_max for Hartree potential  :   4
  | Found cutoff potl. onset [A], width [A], scale factor :    3.50000    1.50000    1.00000
  | Threshold for basis-dependent cutoff potential is   0.100000E-03
  | Found data for basic radial integration grid :    24 points, outermost radius =    5.000 A
  | Found multiplier for basic radial grid :   1
  | Found angular grid specification: user-specified.
  | Specified grid contains     5 separate shells.
  | Check grid settings after all constraints further below.
  | Found free-atom valence shell :  1 s   1.000
  | No ionic wave fns used. Skipping ion_occ.
  | Found hydrogenic basis function :  2 s   2.100
  | Found hydrogenic basis function :  2 p   3.500
  Species H                   : Missing cutoff potential type.
  Defaulting to exp(1/x)/(1-x)^2 type cutoff potential.
  Species H : No 'logarithmic' tag. Using default grid for free atom:
  | Default logarithmic grid data [bohr] : 0.1000E-03 0.1000E+03 0.1012E+01
  Species H : On-site basis accuracy parameter (for Gram-Schmidt orthonormalisation) not specified.
  Using default value basis_acc =  0.1000000E-03.
  Species H                   : Using default innermost maximum threshold i_radial=  2 for radial functions.
  Species H                   : Default cutoff onset for free atom density etc. : 0.35000000E+01 AA.
  Species H                   : Basic radial grid will be enhanced according to radial_multiplier =   1, to contain    24 grid points.
 
  Reading configuration options for species O                   .
  | Found nuclear charge :   8.0000
  | Found atomic mass :    15.9994000000000      amu
  | Found l_max for Hartree potential  :   4
  | Found cutoff potl. onset [A], width [A], scale factor :    3.50000    1.50000    1.00000
  | Threshold for basis-dependent cutoff potential is   0.100000E-03
  | Found data for basic radial integration grid :    36 points, outermost radius =    5.000 A
  | Found multiplier for basic radial grid :   1
  | Found angular grid specification: user-specified.
  | Specified grid contains     5 separate shells.
  | Check grid settings after all constraints further below.
  | Found free-atom valence shell :  2 s   2.000
  | Found free-atom valence shell :  2 p   4.000
  | No ionic wave fns used. Skipping ion_occ.
  | No ionic wave fns used. Skipping ion_occ.
  | Found hydrogenic basis function :  2 p   1.800
  | Found hydrogenic basis function :  3 d   7.600
  | Found hydrogenic basis function :  3 s   6.400
  Species O                   : Missing cutoff potential type.
  Defaulting to exp(1/x)/(1-x)^2 type cutoff potential.
  Species O : No 'logarithmic' tag. Using default grid for free atom:
  | Default logarithmic grid data [bohr] : 0.1000E-03 0.1000E+03 0.1012E+01
  Species O : On-site basis accuracy parameter (for Gram-Schmidt orthonormalisation) not specified.
  Using default value basis_acc =  0.1000000E-03.
  Species O                   : Using default innermost maximum threshold i_radial=  2 for radial functions.
  Species O                   : Default cutoff onset for free atom density etc. : 0.35000000E+01 AA.
  Species O                   : Basic radial grid will be enhanced according to radial_multiplier =   1, to contain    36 grid points.
 
  Finished reading input file 'control.in'.
 
------------------------------------------------------------


------------------------------------------------------------
          Reading geometry description geometry.in.
------------------------------------------------------------
  | The smallest distance between any two atoms is         0.79565519 AA.
  | The first atom of this pair is atom number                     70 .
  | The second atom of this pair is atom number                    72 .
  | Wigner-Seitz cell of the first atom image           0     0     0 .
  | (The Wigner-Seitz cell of the second atom is 0 0 0  by definition.)

  Symmetry information by spglib:
  | Precision set to  0.1E-04
  | Number of Operations  : 1
  | Space group           : 1
  | International         : P1       fk
  | Schoenflies           : C1^1
  Input structure read successfully.
  The structure contains       96 atoms,  and a total of        320.000 electrons.

  Input geometry:
  | Unit cell:
  |        9.84411000        0.00000000        0.00000000
  |        0.00000000        9.84411000        0.00000000
  |        0.00000000        0.00000000        9.84411000
  | Atomic structure:
  |       Atom                x [A]            y [A]            z [A]
  |    1: Species O             0.82814400       -1.87973000      -14.19650000
  |    2: Species H             0.83716000       -1.15533000      -13.60380000
  |    3: Species H             1.90995000       -2.02899000      -14.21540000
  |    4: Species O            12.40950000       21.12640000      -14.49430000
  |    5: Species H            12.77400000       20.91800000      -15.43710000
  |    6: Species H            12.83270000       21.98510000      -14.12510000
  |    7: Species O             8.22925000       -9.36340000       22.61140000
  |    8: Species H             8.77683000      -10.17610000       22.45720000
  |    9: Species H             7.35533000       -9.75812000       22.48910000
  |   10: Species O            -3.67818000       -5.50348000       -3.21893000
  |   11: Species H            -4.15339000       -4.81286000       -3.74107000
  |   12: Species H            -2.81945000       -5.40447000       -2.61044000
  |   13: Species O             5.33624000       -7.05164000       23.66690000
  |   14: Species H             4.93787000       -7.06820000       22.85040000
  |   15: Species H             5.82534000       -6.17241000       23.74140000
  |   16: Species O             0.32325300      -11.70780000       21.96030000
  |   17: Species H             1.24210000      -11.90360000       22.14190000
  |   18: Species H             0.15147000      -12.31110000       21.20350000
  |   19: Species O           -22.53540000        8.03754000       17.70120000
  |   20: Species H           -23.42940000        7.74141000       17.79070000
  |   21: Species H           -22.32760000        7.96748000       16.76410000
  |   22: Species O             6.46045000       -4.45530000       23.50520000
  |   23: Species H             7.36646000       -4.71567000       23.73860000
  |   24: Species H             6.86086000       -3.59246000       23.43770000
  |   25: Species O            -5.61417000      -12.42050000      -18.41420000
  |   26: Species H            -6.28471000      -12.73930000      -17.80690000
  |   27: Species H            -6.04536000      -12.20520000      -19.19690000
  |   28: Species O            -0.20279400      -12.32980000       -0.71952800
  |   29: Species H            -1.01509000      -11.76840000       -1.02794000
  |   30: Species H             0.67803300      -11.99320000       -1.35605000
  |   31: Species O             0.71615200       15.26140000      -22.85340000
  |   32: Species H            -0.24626900       14.92090000      -22.93050000
  |   33: Species H             0.62472100       16.26650000      -23.10010000
  |   34: Species O           -15.16610000       -5.29739000        0.07236000
  |   35: Species H           -14.49860000       -4.69181000        0.49417300
  |   36: Species H           -15.78280000       -5.26224000        0.74294700
  |   37: Species O            19.99900000       10.81460000        6.67641000
  |   38: Species H            19.53050000       11.46070000        6.22157000
  |   39: Species H            20.90320000       11.30440000        6.45650000
  |   40: Species O            -1.39293000       12.20170000       24.59960000
  |   41: Species H            -2.39942000       12.36640000       25.02830000
  |   42: Species H            -1.70894000       11.65570000       23.77500000
  |   43: Species O            -5.00585000        1.70850000      -29.15010000
  |   44: Species H            -5.26074000        2.52292000      -29.71370000
  |   45: Species H            -5.19720000        0.86242100      -29.70640000
  |   46: Species O           -12.24160000        7.93807000        4.98201000
  |   47: Species H           -11.38280000        8.41416000        5.15075000
  |   48: Species H           -12.99820000        8.55361000        4.88043000
  |   49: Species O           -26.87950000       16.15240000        3.19994000
  |   50: Species H           -26.57050000       16.37220000        3.91517000
  |   51: Species H           -26.60490000       15.31370000        3.24928000
  |   52: Species O             9.32833000      -24.23280000       -5.85201000
  |   53: Species H             9.72664000      -24.73140000       -5.23388000
  |   54: Species H             9.98018000      -23.46270000       -5.87247000
  |   55: Species O            29.52710000       31.46960000       18.98200000
  |   56: Species H            28.60420000       31.81040000       19.31040000
  |   57: Species H            29.56590000       30.81880000       18.22530000
  |   58: Species O           -26.63470000       23.32070000       -2.27527000
  |   59: Species H           -27.47500000       23.87040000       -2.30545000
  |   60: Species H           -25.90850000       23.86300000       -1.86420000
  |   61: Species O            -5.25404000       -3.11074000       17.74890000
  |   62: Species H            -4.91359000       -3.73765000       18.42790000
  |   63: Species H            -5.94056000       -2.49970000       18.19310000
  |   64: Species O             9.84527000       44.06700000       11.22560000
  |   65: Species H             9.35812000       44.18690000       11.89820000
  |   66: Species H            10.01010000       43.25310000       10.97090000
  |   67: Species O            23.78000000       20.28170000      -21.71720000
  |   68: Species H            24.70590000       20.61930000      -21.92950000
  |   69: Species H            23.18270000       20.66330000      -22.25200000
  |   70: Species O            24.97840000       -0.18605600       14.46750000
  |   71: Species H            24.57830000        0.27321900       13.76410000
  |   72: Species H            25.11910000        0.54582700       14.74610000
  |   73: Species O            -2.51554000       -9.14530000      -10.17200000
  |   74: Species H            -2.53381000      -10.25660000      -10.38740000
  |   75: Species H            -3.31060000       -8.87568000       -9.69091000
  |   76: Species O            18.05520000      -25.11110000        8.47846000
  |   77: Species H            18.67300000      -25.81810000        8.28550000
  |   78: Species H            18.51620000      -24.52810000        8.97611000
  |   79: Species O            22.35630000       23.28910000       31.78680000
  |   80: Species H            22.14280000       22.61340000       32.30590000
  |   81: Species H            21.68360000       23.65410000       31.12980000
  |   82: Species O            45.68940000       11.45950000       16.84280000
  |   83: Species H            45.69920000       12.46240000       16.85290000
  |   84: Species H            45.97420000       11.16600000       17.77860000
  |   85: Species O            -6.21719000       -2.26930000       15.38360000
  |   86: Species H            -5.73469000       -1.43045000       15.00530000
  |   87: Species H            -5.64817000       -2.57754000       16.17210000
  |   88: Species O           -46.64220000       18.38980000      -10.96950000
  |   89: Species H           -47.18810000       18.96690000      -10.44240000
  |   90: Species H           -46.04160000       19.02210000      -11.52560000
  |   91: Species O            33.13760000       20.45630000       -7.21758000
  |   92: Species H            32.26980000       20.20720000       -7.76628000
  |   93: Species H            33.70310000       20.75280000       -7.94971000
  |   94: Species O             1.55257000       -9.55343000       20.57740000
  |   95: Species H             0.86680900      -10.28380000       21.06160000
  |   96: Species H             0.96137000       -8.86063000       20.11390000

  Lattice parameters for 3D lattice (in Angstroms) :     9.844110    9.844110    9.844110
  Angle(s) between unit vectors (in degrees)       :    90.000000   90.000000   90.000000


  Quantities derived from the lattice vectors (in Angstrom^-1):
  | Reciprocal lattice vector 1:  0.638268  0.000000  0.000000
  | Reciprocal lattice vector 2:  0.000000  0.638268  0.000000
  | Reciprocal lattice vector 3:  0.000000  0.000000  0.638268
  | Unit cell volume                               :   0.953958E+03  Angstrom^3

  Fractional coordinates:
                         L1                L2                L3
       atom_frac         0.08412584       -0.19094972       -1.44213139  O
       atom_frac         0.08504172       -0.11736257       -1.38192279  H
       atom_frac         0.19401957       -0.20611208       -1.44405132  H
       atom_frac         1.26060152        2.14609548       -1.47238298  O
       atom_frac         1.29762873        2.12492546       -1.56815598  H
       atom_frac         1.30359169        2.23332531       -1.43487832  H
       atom_frac         0.83595673       -0.95116775        2.29694711  O
       atom_frac         0.89158187       -1.03372473        2.28128292  H
       atom_frac         0.74718080       -0.99126483        2.28452344  H
       atom_frac        -0.37364272       -0.55906324       -0.32699045  O
       atom_frac        -0.42191625       -0.48890758       -0.38003131  H
       atom_frac        -0.28640984       -0.54900545       -0.26517786  H
       atom_frac         0.54207440       -0.71633088        2.40416858  O
       atom_frac         0.50160654       -0.71801311        2.32122559  H
       atom_frac         0.59175893       -0.62701555        2.41173656  H
       atom_frac         0.03283720       -1.18932031        2.23080604  O
       atom_frac         0.12617697       -1.20921038        2.24925361  H
       atom_frac         0.01538687       -1.25060569        2.15392758  H
       atom_frac        -2.28922676        0.81648214        1.79815138  O
       atom_frac        -2.38004248        0.78640019        1.80724311  H
       atom_frac        -2.26811769        0.80936519        1.70295740  H
       atom_frac         0.65627568       -0.45258535        2.38774252  O
       atom_frac         0.74831143       -0.47903467        2.41145213  H
       atom_frac         0.69695077       -0.36493497        2.38088563  H
       atom_frac        -0.57030752       -1.26171894       -1.87058048  O
       atom_frac        -0.63842338       -1.29410378       -1.80888877  H
       atom_frac        -0.61410935       -1.23984799       -1.95008995  H
       atom_frac        -0.02060054       -1.25250531       -0.07309223  O
       atom_frac        -0.10311648       -1.19547628       -0.10442183  H
       atom_frac         0.06887702       -1.21831227       -0.13775242  H
       atom_frac         0.07274929        1.55030775       -2.32153034  O
       atom_frac        -0.02501689        1.51571854       -2.32936243  H
       atom_frac         0.06346140        1.65240941       -2.34659101  H
       atom_frac        -1.54062683       -0.53812788        0.00735059  O
       atom_frac        -1.47281979       -0.47661089        0.05019987  H
       atom_frac        -1.60327343       -0.53455721        0.07547122  H
       atom_frac         2.03157015        1.09858585        0.67821367  O
       atom_frac         1.98397824        1.16421901        0.63200939  H
       atom_frac         2.12342203        1.14834150        0.65587443  H
       atom_frac        -0.14149883        1.23949245        2.49891560  O
       atom_frac        -0.24374169        1.25622326        2.54246448  H
       atom_frac        -0.17360025        1.18402781        2.41514977  H
       atom_frac        -0.50851220        0.17355556       -2.96117171  O
       atom_frac        -0.53440484        0.25628726       -3.01842422  H
       atom_frac        -0.52795022        0.08760782       -3.01768265  H
       atom_frac        -1.24354563        0.80637762        0.50609044  O
       atom_frac        -1.15630565        0.85474055        0.52323166  H
       atom_frac        -1.32040377        0.86890638        0.49577158  H
       atom_frac        -2.73051601        1.64081872        0.32506138  O
       atom_frac        -2.69912669        1.66314680        0.39771701  H
       atom_frac        -2.70262116        1.55562057        0.33007352  H
       atom_frac         0.94760522       -2.46165474       -0.59446816  O
       atom_frac         0.98806698       -2.51230431       -0.53167630  H
       atom_frac         1.01382248       -2.38342522       -0.59654656  H
       atom_frac         2.99946872        3.19679483        1.92825964  O
       atom_frac         2.90571723        3.23141452        1.96161969  H
       atom_frac         3.00341016        3.13068424        1.85139134  H
       atom_frac        -2.70564835        2.36900035       -0.23113009  O
       atom_frac        -2.79100904        2.42484084       -0.23419588  H
       atom_frac        -2.63187835        2.42408913       -0.18937212  H
       atom_frac        -0.53372423       -0.31600013        1.80299692  O
       atom_frac        -0.49914009       -0.37968389        1.87197217  H
       atom_frac        -0.60346339       -0.25392849        1.84812035  H
       atom_frac         1.00011784        4.47648391        1.14033671  O
       atom_frac         0.95063139        4.48866378        1.20866183  H
       atom_frac         1.01686186        4.39380503        1.11446337  H
       atom_frac         2.41565769        2.06028783       -2.20611107  O
       atom_frac         2.50971393        2.09458245       -2.22767726  H
       atom_frac         2.35498181        2.09905212       -2.26043797  H
       atom_frac         2.53739546       -0.01890024        1.46966054  O
       atom_frac         2.49675186        0.02775457        1.39820664  H
       atom_frac         2.55168827        0.05544706        1.49796173  H
       atom_frac        -0.25553758       -0.92901237       -1.03330824  O
       atom_frac        -0.25739351       -1.04190221       -1.05518935  H
       atom_frac        -0.33630262       -0.90162341       -0.98443739  H
       atom_frac         1.83411197       -2.55087560        0.86127238  O
       atom_frac         1.89687031       -2.62269520        0.84167081  H
       atom_frac         1.88094200       -2.49165237        0.91182545  H
       atom_frac         2.27103314        2.36579031        3.22901715  O
       atom_frac         2.24934504        2.29715028        3.28174919  H
       atom_frac         2.20269786        2.40286831        3.16227673  H
       atom_frac         4.64129312        1.16409711        1.71095203  O
       atom_frac         4.64228864        1.26597529        1.71197803  H
       atom_frac         4.67022412        1.13428233        1.80601395  H
       atom_frac        -0.63156446       -0.23052363        1.56272126  O
       atom_frac        -0.58255038       -0.14531024        1.52429219  H
       atom_frac        -0.57376137       -0.26183576        1.64281992  H
       atom_frac        -4.73808196        1.86810184       -1.11432115  O
       atom_frac        -4.79353644        1.92672573       -1.06077644  H
       atom_frac        -4.67707086        1.93233314       -1.17081178  H
       atom_frac         3.36623626        2.07802432       -0.73318766  O
       atom_frac         3.27808202        2.05271985       -0.78892658  H
       atom_frac         3.42368178        2.10814385       -0.80756005  H
       atom_frac         0.15771563       -0.97047168        2.09032609  O
       atom_frac         0.08805357       -1.04466529        2.13951287  H
       atom_frac         0.09765941       -0.90009457        2.04324210  H

 
  Finished reading input file 'geometry.in'.
 

 
  Consistency checks for stacksize environment parameter are next.
 
  | Maximum stacksize for task 0: unlimited
  | Maximum stacksize for task 1: unlimited
  | Maximum stacksize for task 2: unlimited
  | Maximum stacksize for task 3: unlimited
  | Maximum stacksize for task 4: unlimited
  | Maximum stacksize for task 5: unlimited
  | Maximum stacksize for task 6: unlimited
  | Maximum stacksize for task 7: unlimited
  | Maximum stacksize for task 8: unlimited
  | Maximum stacksize for task 9: unlimited
  | Maximum stacksize for task 10: unlimited
  | Maximum stacksize for task 11: unlimited
  | Maximum stacksize for task 12: unlimited
  | Maximum stacksize for task 13: unlimited
  | Maximum stacksize for task 14: unlimited
  | Maximum stacksize for task 15: unlimited
  | Maximum stacksize for task 16: unlimited
  | Maximum stacksize for task 17: unlimited
  | Current stacksize for task 0: unlimited
  | Current stacksize for task 1: unlimited
  | Current stacksize for task 2: unlimited
  | Current stacksize for task 3: unlimited
  | Current stacksize for task 4: unlimited
  | Current stacksize for task 5: unlimited
  | Current stacksize for task 6: unlimited
  | Current stacksize for task 7: unlimited
  | Current stacksize for task 8: unlimited
  | Current stacksize for task 9: unlimited
  | Current stacksize for task 10: unlimited
  | Current stacksize for task 11: unlimited
  | Current stacksize for task 12: unlimited
  | Current stacksize for task 13: unlimited
  | Current stacksize for task 14: unlimited
  | Current stacksize for task 15: unlimited
  | Current stacksize for task 16: unlimited
  | Current stacksize for task 17: unlimited
 
  Consistency checks for the contents of control.in are next.
 
  MPI_IN_PLACE appears to work with this MPI implementation.
  | Keeping use_mpi_in_place .true. (see manual).
  Explicit treatment of the Coulomb operator is needed, but the RI method is not specified.
  Coulomb operator: Defaulting to 'LVL fast' resolution of identity - RI_type = LVL_fast
  Species H: Using default value for prodbas_acc =   1.000000E-06.
  Species H: Using default value max_l_prodbas =     6.
  Species O: Using default value for prodbas_acc =   1.000000E-06.
  Species O: Using default value max_l_prodbas =     6.
  Target number of points in a grid batch is not set.  Since GPU acceleration is enabled, defaulting to  200
  Method for grid partitioning is not set. Defaulting to parallel hash+maxmin partitioning.
  Batch size limit is not set. Defaulting to    200
  By default, will store active basis functions for each batch.
  If in need of memory, prune_basis_once .false. can be used to disable this option.
  communication_type for Hartree potential was not specified.
  Defaulting to calc_hartree .
  Defaulting to Pulay charge density mixer.
  Pulay mixer: Number of relevant iterations not set.
  Defaulting to    8 iterations.
  Pulay mixer: Number of initial linear mixing iterations not set.
  Defaulting to    0 iterations.
  Work space size for distributed Hartree potential not set.
  Defaulting to   0.200000E+03 MB.
  Mixing parameter for charge density mixing has not been set.
  Using default: charge_mix_param =     0.0500.
  The mixing parameter will be adjusted in iteration number     2 of the first full s.c.f. cycle only.
  Algorithm-dependent basis array size parameters:
  | n_max_pulay                         :        8
  Maximum number of self-consistency iterations not provided.
  Presetting  1000 iterations.
  Presetting      1001 iterations before the initial mixing cycle
  is restarted anyway using the sc_init_iter criterion / keyword.
  Presetting a factor      1.000 between actual scf density residual
  and density convergence criterion sc_accuracy_rho below which sc_init_iter
  takes no effect.
  Calculation of forces was not defined in control.in. No forces will be calculated.
  Geometry relaxation not requested: no relaxation will be performed.
  No accuracy limit for integral partition fn. given. Defaulting to  0.1000E-14.
  No occupation type (smearing scheme) given. Defaulting to Gaussian broadening, width =  0.1000E-01 eV.
  The width will be adjusted in iteration number     2 of the first full s.c.f. cycle only.
  S.C.F. convergence parameters will be adjusted in iteration number     2 of the first full s.c.f. cycle only.
  No accuracy for occupation numbers given. Defaulting to  0.1000E-12.
  No threshold value for occupation numbers given. Defaulting to  0.0000E+00.
  No accuracy for fermi level given. Defaulting to  0.1000E-19.
  Maximum # of iterations to find E_F not set. Defaulting to  200.
  Preferred method for the eigenvalue solver ('KS_method') not specified in 'control.in'.
  Calling BLACS routine to test compilation state
  Since ScaLAPACK support is enabled, defaulting to ELPA (via ELSI).
  Will not use alltoall communication since running on < 1024 CPUs.
  Threshold for basis singularities not set.
  Default threshold for basis singularities:  0.1000E-04
  partition_type (choice of integration weights) for integrals was not specified.
  | Using a version of the partition function of Stratmann and coworkers ('stratmann_sparse').
  | At each grid point, the set of atoms used to build the partition table is smoothly restricted to
  | only those atoms whose free-atom density would be non-zero at that grid point.
  Partitioning for Hartree potential was not defined. Using partition_type for integrals.
  | Adjusted default value of keyword multip_moments_threshold to:       0.10000000E-11
  | This value may affect high angular momentum components of the Hartree potential in periodic systems.
  Angular momentum expansion for Kerker preconditioner not set explicitly.
  | Using default value of   0
  No explicit requirement for turning off preconditioner.
  | By default, it will be turned off when the charge convergence reaches
  | sc_accuracy_rho  =   0.100000E-05
  No special mixing parameter while Kerker preconditioner is on.
  Using default: charge_mix_param =     0.0500.
  Threshold for auxiliary basis singularities not set.
  Default threshold for auxiliary basis singularities:  0.1000E-04
  No q(lm)/r^(l+1) cutoff set for long-range Hartree potential.
  | Using default value of  0.100000E-09 .
  | Verify using the multipole_threshold keyword.
  Defaulting to new monopole extrapolation.
  Density update method: automatic selection selected.
  Using density matrix based charge density update.
  Using density matrix based charge density update.
  Using packed matrix style: index .
  Defaulting to use time-reversal symmetry for k-point grid.
  Charge integration errors on the 3D integration grid will be compensated
  by explicit normalization and distribution of residual charges.
  Use the "compensate_multipole_errors" flag to change this behaviour.
  Default to 1D ("use_logsbt") integrations for auxiliary 2-center integrals.
  Default onset of logarithmic r-grid for SBT is -38.000000000000
  Default onset of logarithmic k-grid for SBT is -25.000000000000
  Default range of logarithmic r- and k-grid for SBT is  45.000000000000
  Default number of logarithmic r- and k-grid for SBT is   4096
  Default of use_2d_corr is to use the efficient 2D distribution where possible
 
  Consistency checks for the contents of geometry.in are next.
 

  Range separation radius for Ewald summation (hartree_convergence_parameter):      2.96844625 bohr.
  Number of empty states per atom not set in control.in .
  | Since you are using a method that relies on the unoccupied spectrum
  | (MP2,GW,RPA et al.), will use the full Hamiltonian size (see below)
  | as the max. possible number of states (occupied plus empty).

  Structure-dependent array size parameters: 
  | Maximum number of distinct radial functions  :        9
  | Maximum number of basis functions            :      768
  | Number of Kohn-Sham states (occupied + empty):      768
------------------------------------------------------------

  Performing system and environment tests:
  | Environment variable OMP_NUM_THREADS correctly set to 1.
  | Checking for ScaLAPACK...
  | Testing pdtran()...
  | All pdtran() tests passed.
CUDA runtime version: 11060
CUDA driver version: 11060
  Initializing GPUs...

  Number of GPUs available to MPI task         0 :   1
  Number of GPUs available to MPI task         1 :   1
  Number of GPUs available to MPI task         2 :   1
  Number of GPUs available to MPI task         3 :   1
  Number of GPUs available to MPI task         4 :   1
  Number of GPUs available to MPI task         5 :   1
  Number of GPUs available to MPI task         6 :   1
  Number of GPUs available to MPI task         7 :   1
  Number of GPUs available to MPI task         8 :   1
  Number of GPUs available to MPI task         9 :   1
  Number of GPUs available to MPI task        10 :   1
  Number of GPUs available to MPI task        11 :   1
  Number of GPUs available to MPI task        12 :   1
  Number of GPUs available to MPI task        13 :   1
  Number of GPUs available to MPI task        14 :   1
  Number of GPUs available to MPI task        15 :   1
  Number of GPUs available to MPI task        16 :   1
  Number of GPUs available to MPI task        17 :   1

  | MPI task         0, GPU activated = T, Device Name = NVIDIA A100-SXM4-80GB
  | MPI task         1, GPU activated = T, Device Name = NVIDIA A100-SXM4-80GB
  | MPI task         2, GPU activated = T, Device Name = NVIDIA A100-SXM4-80GB
  | MPI task         3, GPU activated = T, Device Name = NVIDIA A100-SXM4-80GB
  | MPI task         4, GPU activated = T, Device Name = NVIDIA A100-SXM4-80GB
  | MPI task         5, GPU activated = T, Device Name = NVIDIA A100-SXM4-80GB
  | MPI task         6, GPU activated = T, Device Name = NVIDIA A100-SXM4-80GB
  | MPI task         7, GPU activated = T, Device Name = NVIDIA A100-SXM4-80GB
  | MPI task         8, GPU activated = T, Device Name = NVIDIA A100-SXM4-80GB
  | MPI task         9, GPU activated = T, Device Name = NVIDIA A100-SXM4-80GB
  | MPI task        10, GPU activated = T, Device Name = NVIDIA A100-SXM4-80GB
  | MPI task        11, GPU activated = T, Device Name = NVIDIA A100-SXM4-80GB
  | MPI task        12, GPU activated = T, Device Name = NVIDIA A100-SXM4-80GB
  | MPI task        13, GPU activated = T, Device Name = NVIDIA A100-SXM4-80GB
  | MPI task        14, GPU activated = T, Device Name = NVIDIA A100-SXM4-80GB
  | MPI task        15, GPU activated = T, Device Name = NVIDIA A100-SXM4-80GB
  | MPI task        16, GPU activated = T, Device Name = NVIDIA A100-SXM4-80GB
  | MPI task        17, GPU activated = T, Device Name = NVIDIA A100-SXM4-80GB

------------------------------------------------------------
          Preparing all fixed parts of the calculation.
------------------------------------------------------------
  Determining machine precision:
    2.225073858507201E-308
  Setting up grids for atomic and cluster calculations.

  Creating wave function, potential, and density for free atoms.
  Runtime choices for atomic solver:
  | atomic solver xc        : PW-LDA
  | compute density gradient: 0
  | compute kinetic density : F

  Species: H

  List of occupied orbitals and eigenvalues:
    n    l              occ      energy [Ha]    energy [eV]
    1    0           1.0000        -0.232375        -6.3233


  Species: O

  List of occupied orbitals and eigenvalues:
    n    l              occ      energy [Ha]    energy [eV]
    1    0           2.0000       -18.757744      -510.4242
    2    0           2.0000        -0.870917       -23.6989
    2    1           4.0000        -0.337950        -9.1961


  Adding cutoff potential to free-atom effective potential.
  Creating fixed part of basis set: Ionic, confined, hydrogenic.
 
  H                    hydrogenic:
 
  List of hydrogenic basis orbitals: 
    n    l      effective z      eigenvalue [eV]  inner max. [A]     outer max. [A]     outer radius [A]   
    2    0         2.100000       -14.9728           0.193243           1.317208           4.696947
    2    1         3.500000       -41.6669           0.602369           0.602369           3.862494
 
 
  O                    hydrogenic:
 
  List of hydrogenic basis orbitals: 
    n    l      effective z      eigenvalue [eV]  inner max. [A]     outer max. [A]     outer radius [A]   
    2    1         1.800000       -10.9749           1.164242           1.164242           4.691341
    3    2         7.600000       -87.3180           0.624125           0.624125           3.413946
    3    0         6.400000       -61.9207           0.061167           1.081902           4.151495
 
  Creating atomic-like basis functions for current effective potential.

  Species H                   :

  List of atomic basis orbitals and eigenvalues:
    n    l      energy [Ha]    energy [eV]    outer radius [A]
    1    0        -0.232375        -6.3233       4.696947


  Species O                   :

  List of atomic basis orbitals and eigenvalues:
    n    l      energy [Ha]    energy [eV]    outer radius [A]
    1    0       -18.757744      -510.4242       1.830144
    2    0        -0.870917       -23.6989       4.578029
    2    1        -0.337950        -9.1961       4.634338

  Assembling full basis from fixed parts.
  | Species H :   atomic orbital   1 s accepted.
  | Species H :    hydro orbital   2 s accepted.
  | Species H :    hydro orbital   2 p accepted.
  | Species O :   atomic orbital   1 s accepted.
  | Species O :    hydro orbital   3 s accepted.
  | Species O :   atomic orbital   2 s accepted.
  | Species O :   atomic orbital   2 p accepted.
  | Species O :    hydro orbital   2 p accepted.
  | Species O :    hydro orbital   3 d accepted.
 
  Basis size parameters after reduction:
  | Total number of radial functions:        9
  | Total number of basis functions :      768
 
  Per-task memory consumption for arrays in subroutine allocate_ext:
  |           2.268304MB.
  Testing on-site integration grid accuracy.
  |  Species  Function  <phi|h_atom|phi> (log., in eV)  <phi|h_atom|phi> (rad., in eV)
           1        1                 -6.3245358373                 -6.3232436907
           1        2                 14.1326137532                 14.1384481100
           1        3                 25.3627025200                 25.3628451197
           2        4               -510.4241781764               -510.4240769407
           2        5                 14.9072942213                 14.9072945271
           2        6                -21.2004736474                -21.2005650551
           2        7                 -9.1962086505                 -9.1963509834
           2        8                  8.1896755006                  8.1702200081
           2        9                 45.7920584937                 45.7920228520

  Preparing densities etc. for the partition functions (integrals / Hartree potential).

  Preparations completed.
  max(cpu_time)          :      0.070 s.
  Wall clock time (cpu1) :      0.064 s.
------------------------------------------------------------

  Initializing index lists of integration centers etc. from given atomic structure:
  Mapping all atomic coordinates to central unit cell.

  Initializing the k-points
  Using symmetry for reducing the k-points
  | k-points reduced from:        1 to        1
  | Number of k-points                             :         1
  | Consuming          0 KiB for k_phase_exx.
  The eigenvectors in the calculations are REAL.
  | Number of basis functions in the Hamiltonian integrals :      4485
  | Number of basis functions in a single unit cell        :       768
  | Number of centers in hartree potential         :      2601
  | Number of centers in hartree multipole         :      1927
  | Number of centers in electron density summation:      1520
  | Number of centers in basis integrals           :      1618
  | Number of centers in integrals                 :       698
  | Number of centers in hamiltonian               :      1520
  | Consuming          0 KiB for k_phase.
  | Number of super-cells (origin) [n_cells]                     :         125
  | Number of super-cells (after PM_index) [n_cells]             :          28
  | Number of super-cells in hamiltonian [n_cells_in_hamiltonian]:          28
  | Size of matrix packed + index [n_hamiltonian_matrix_size] :      795910
  | Size of matrix packed + index (no_symmetry):     1591051

------------------------------------------------------------
          Begin self-consistency loop: Initialization.

          Date     :  20230221, Time     :  154215.214
------------------------------------------------------------
  | Estimated reciprocal-space cutoff momentum G_max:         3.18540431 bohr^-1 .
  | Reciprocal lattice points for long-range Hartree potential:    3430
  Using simple linear distribution as default method for k-point parallelism.
  * Using 18 tasks for Scalapack Eigenvalue solver.
  Detailed listing of tasks and assigned k-points:
   Task     0 k-point     1 on adag037
   Task     1 k-point     1 on adag037
   Task     2 k-point     1 on adag037
   Task     3 k-point     1 on adag037
   Task     4 k-point     1 on adag037
   Task     5 k-point     1 on adag037
   Task     6 k-point     1 on adag037
   Task     7 k-point     1 on adag037
   Task     8 k-point     1 on adag037
   Task     9 k-point     1 on adag037
   Task    10 k-point     1 on adag037
   Task    11 k-point     1 on adag037
   Task    12 k-point     1 on adag037
   Task    13 k-point     1 on adag037
   Task    14 k-point     1 on adag037
   Task    15 k-point     1 on adag037
   Task    16 k-point     1 on adag037
   Task    17 k-point     1 on adag037
  K-point:     1 Tasks:    18 split into      6 X      3 BLACS grid
  Calculating block size based on n_basis =          768  max_nprow =            6  max_npcol =            3
  ScaLAPACK block size set to:           16
  Allocating        0.250 MB for ovlp
  Allocating        0.250 MB for ham
  Allocating        0.250 MB for eigenvec
  Required Scalapack workspace - INTEGER:            1  REAL:             1
  Partitioning the integration grid into batches with parallel hashing+maxmin method.
  | Number of batches:     3952
  | Maximal batch size:     200
  | Minimal batch size:      99
  | Average batch size:     128.939
  | Standard deviation of batch sizes:      29.766

  Integration load balanced across    18 MPI tasks.
  Work distribution over tasks is as follows:
  Task     0 has      28398 integration points.
  Task     1 has      28312 integration points.
  Task     2 has      28305 integration points.
  Task     3 has      28274 integration points.
  Task     4 has      28289 integration points.
  Task     5 has      28300 integration points.
  Task     6 has      28307 integration points.
  Task     7 has      28284 integration points.
  Task     8 has      28442 integration points.
  Task     9 has      28299 integration points.
  Task    10 has      28301 integration points.
  Task    11 has      28310 integration points.
  Task    12 has      28254 integration points.
  Task    13 has      28286 integration points.
  Task    14 has      28276 integration points.
  Task    15 has      28289 integration points.
  Task    16 has      28306 integration points.
  Task    17 has      28336 integration points.
  Initializing partition tables, free-atom densities, potentials, etc. across the integration grid (initialize_grid_storage).
  | initialize_grid_storage: Actual outermost partition radius vs. multipole_radius_free
  | (-- VB: in principle, multipole_radius_free should be larger, hence this output)
  | Species        1: Confinement radius =              4.999999999999999 AA, multipole_radius_free =              5.054417573612229 AA.
  | Species        1: outer_partition_radius set to              5.054417573612229 AA .
  | Species        2: Confinement radius =              4.999999999999999 AA, multipole_radius_free =              5.048384829883283 AA.
  | Species        2: outer_partition_radius set to              5.048384829883283 AA .
  | The sparse table of interatomic distances needs       5443.24 kbyte instead of     20943.39 kbyte of memory.
  | Net number of integration points:   509568
  | of which are non-zero points    :   406025
  | Numerical average free-atom electrostatic potential    :     -5.46285001 eV
  Renormalizing the initial density to the exact electron count on the 3D integration grid.
  | Initial density: Formal number of electrons (from input files) :     320.0000000000
  | Integrated number of electrons on 3D grid     :     320.0004294282
  | Charge integration error                      :       0.0004294282
  | Normalization factor for density and gradient :       0.9999986580
  Renormalizing the free-atom superposition density to the exact electron count on the 3D integration grid.
  | Formal number of electrons (from input files) :     320.0000000000
  | Integrated number of electrons on 3D grid     :     320.0004294282
  | Charge integration error                      :       0.0004294282
  | Normalization factor for density and gradient :       0.9999986580
  Obtaining max. number of non-zero basis functions in each batch (get_n_compute_maxes).
  | Maximal number of non-zero basis functions:      416 in task     0
  | Maximal number of non-zero basis functions:      416 in task     1
  | Maximal number of non-zero basis functions:      435 in task     2
  | Maximal number of non-zero basis functions:      448 in task     3
  | Maximal number of non-zero basis functions:      421 in task     4
  | Maximal number of non-zero basis functions:      419 in task     5
  | Maximal number of non-zero basis functions:      430 in task     6
  | Maximal number of non-zero basis functions:      429 in task     7
  | Maximal number of non-zero basis functions:      430 in task     8
  | Maximal number of non-zero basis functions:      417 in task     9
  | Maximal number of non-zero basis functions:      440 in task    10
  | Maximal number of non-zero basis functions:      426 in task    11
  | Maximal number of non-zero basis functions:      414 in task    12
  | Maximal number of non-zero basis functions:      451 in task    13
  | Maximal number of non-zero basis functions:      431 in task    14
  | Maximal number of non-zero basis functions:      423 in task    15
  | Maximal number of non-zero basis functions:      422 in task    16
  | Maximal number of non-zero basis functions:      442 in task    17
  Integrating Hamiltonian matrix: batch-based integration.
  GPU acceleration will be used when integrating the Hamiltonian matrix.
  Reporting GPU memory usage by myid 0.  Note that it is likely not the only MPI task binding to its GPU!
  Allocating        1.384 MB on GPU for hamiltonian_shell
  Allocating        0.666 MB on GPU for wave
  Allocating        0.002 MB on GPU for partition
  Allocating        0.666 MB on GPU for h_times_psi
  Time summed over all CPUs for integration: real work       11.570 s, elapsed       12.173 s
  Deallocating memory used on GPU for Hamiltonian integration.
  Integrating overlap matrix.
  Time summed over all CPUs for integration: real work        9.393 s, elapsed       10.084 s
  Deallocating overlap matrix.

  Updating Kohn-Sham eigenvalues and eigenvectors using ELSI and the ELPA eigensolver.
  Singularity check in k-point 1 (analysis for other k-points may follow below):
  Overlap matrix is not singular
  | Lowest and highest eigenvalues :  0.2307E-02,  0.7412E+01
  Finished singularity check of overlap matrix
  | Time :     0.129 s
  Starting ELPA eigensolver (GPU)
  Finished Cholesky decomposition
  | Time :     0.007 s
  Finished transformation to standard eigenproblem
  | Time :     0.024 s
  Finished solving standard eigenproblem
  | Time :     0.178 s
  Finished back-transformation of eigenvectors
  | Time :     0.017 s

  Obtaining occupation numbers and electronic chemical potential using ELSI.
  | Note that, for insulating systems, the printed 'chemical potential' value is not uniquely defined.
  | It can be anywhere in the energy gap, as long as it correctly separates occupied and unoccupied states.
  | In systems with a gap, the physically relevant chemical potential is the VBM or HOMO.

  | Chemical potential (Fermi level):    -5.31884922 eV
  Writing Kohn-Sham eigenvalues.

  State    Occupation    Eigenvalue [Ha]    Eigenvalue [eV]
      1       2.00000         -18.941869         -515.43448
      2       2.00000         -18.936361         -515.28460
      3       2.00000         -18.931792         -515.16026
      4       2.00000         -18.894575         -514.14755
      5       2.00000         -18.890516         -514.03709
      6       2.00000         -18.886817         -513.93645
      7       2.00000         -18.885278         -513.89455
      8       2.00000         -18.883920         -513.85759
      9       2.00000         -18.881275         -513.78563
     10       2.00000         -18.878852         -513.71971
     11       2.00000         -18.877281         -513.67694
     12       2.00000         -18.875599         -513.63119
     13       2.00000         -18.874079         -513.58981
     14       2.00000         -18.870928         -513.50407
     15       2.00000         -18.869181         -513.45653
     16       2.00000         -18.865815         -513.36493
     17       2.00000         -18.864844         -513.33852
     18       2.00000         -18.864367         -513.32553
     19       2.00000         -18.860974         -513.23320
     20       2.00000         -18.860276         -513.21422
     21       2.00000         -18.859734         -513.19947
     22       2.00000         -18.858329         -513.16125
     23       2.00000         -18.855948         -513.09646
     24       2.00000         -18.854473         -513.05632
     25       2.00000         -18.854473         -513.05631
     26       2.00000         -18.852806         -513.01095
     27       2.00000         -18.850884         -512.95865
     28       2.00000         -18.849077         -512.90948
     29       2.00000         -18.848470         -512.89297
     30       2.00000         -18.844080         -512.77349
     31       2.00000         -18.837204         -512.58639
     32       2.00000         -18.833075         -512.47404
     33       2.00000          -1.227014          -33.38876
     34       2.00000          -1.222126          -33.25573
     35       2.00000          -1.184754          -32.23879
     36       2.00000          -1.137615          -30.95608
     37       2.00000          -1.133068          -30.83234
     38       2.00000          -1.129419          -30.73305
     39       2.00000          -1.124648          -30.60323
     40       2.00000          -1.121996          -30.53106
     41       2.00000          -1.119595          -30.46573
     42       2.00000          -1.116867          -30.39150
     43       2.00000          -1.113925          -30.31143
     44       2.00000          -1.110281          -30.21229
     45       2.00000          -1.108372          -30.16034
     46       2.00000          -1.107948          -30.14880
     47       2.00000          -1.098591          -29.89418
     48       2.00000          -1.093809          -29.76406
     49       2.00000          -1.088065          -29.60775
     50       2.00000          -1.086658          -29.56947
     51       2.00000          -1.085776          -29.54546
     52       2.00000          -1.084033          -29.49803
     53       2.00000          -1.082795          -29.46435
     54       2.00000          -1.075506          -29.26601
     55       2.00000          -1.070788          -29.13761
     56       2.00000          -1.068985          -29.08856
     57       2.00000          -1.064101          -28.95567
     58       2.00000          -1.060731          -28.86396
     59       2.00000          -1.060605          -28.86053
     60       2.00000          -1.060130          -28.84761
     61       2.00000          -1.054556          -28.69592
     62       2.00000          -1.047170          -28.49495
     63       2.00000          -1.041703          -28.34618
     64       2.00000          -1.031232          -28.06126
     65       2.00000          -0.760177          -20.68547
     66       2.00000          -0.722052          -19.64802
     67       2.00000          -0.689916          -18.77357
     68       2.00000          -0.688473          -18.73429
     69       2.00000          -0.683258          -18.59238
     70       2.00000          -0.680469          -18.51650
     71       2.00000          -0.674070          -18.34237
     72       2.00000          -0.662282          -18.02161
     73       2.00000          -0.661075          -17.98878
     74       2.00000          -0.658368          -17.91509
     75       2.00000          -0.656078          -17.85279
     76       2.00000          -0.654465          -17.80890
     77       2.00000          -0.649196          -17.66553
     78       2.00000          -0.643800          -17.51869
     79       2.00000          -0.642336          -17.47886
     80       2.00000          -0.639960          -17.41419
     81       2.00000          -0.636306          -17.31477
     82       2.00000          -0.632325          -17.20643
     83       2.00000          -0.629883          -17.13999
     84       2.00000          -0.628172          -17.09343
     85       2.00000          -0.626500          -17.04793
     86       2.00000          -0.622844          -16.94844
     87       2.00000          -0.620066          -16.87285
     88       2.00000          -0.617484          -16.80258
     89       2.00000          -0.615846          -16.75802
     90       2.00000          -0.609205          -16.57732
     91       2.00000          -0.608120          -16.54779
     92       2.00000          -0.605781          -16.48415
     93       2.00000          -0.601759          -16.37470
     94       2.00000          -0.599028          -16.30039
     95       2.00000          -0.594175          -16.16833
     96       2.00000          -0.593102          -16.13913
     97       2.00000          -0.583271          -15.87162
     98       2.00000          -0.579710          -15.77471
     99       2.00000          -0.575185          -15.65159
    100       2.00000          -0.563278          -15.32758
    101       2.00000          -0.551732          -15.01340
    102       2.00000          -0.550373          -14.97640
    103       2.00000          -0.549809          -14.96107
    104       2.00000          -0.548365          -14.92176
    105       2.00000          -0.547438          -14.89654
    106       2.00000          -0.543389          -14.78636
    107       2.00000          -0.540069          -14.69602
    108       2.00000          -0.537035          -14.61347
    109       2.00000          -0.535087          -14.56046
    110       2.00000          -0.531507          -14.46304
    111       2.00000          -0.528139          -14.37140
    112       2.00000          -0.525534          -14.30052
    113       2.00000          -0.523963          -14.25776
    114       2.00000          -0.520465          -14.16258
    115       2.00000          -0.517580          -14.08408
    116       2.00000          -0.516280          -14.04868
    117       2.00000          -0.513549          -13.97439
    118       2.00000          -0.511215          -13.91086
    119       2.00000          -0.509769          -13.87153
    120       2.00000          -0.505726          -13.76150
    121       2.00000          -0.504488          -13.72782
    122       2.00000          -0.502077          -13.66221
    123       2.00000          -0.500587          -13.62167
    124       2.00000          -0.499746          -13.59878
    125       2.00000          -0.498319          -13.55996
    126       2.00000          -0.496749          -13.51723
    127       2.00000          -0.493574          -13.43084
    128       2.00000          -0.491310          -13.36921
    129       2.00000          -0.485184          -13.20254
    130       2.00000          -0.482171          -13.12054
    131       2.00000          -0.479368          -13.04425
    132       2.00000          -0.470688          -12.80808
    133       2.00000          -0.469627          -12.77919
    134       2.00000          -0.468754          -12.75544
    135       2.00000          -0.466762          -12.70124
    136       2.00000          -0.465716          -12.67279
    137       2.00000          -0.461501          -12.55808
    138       2.00000          -0.460776          -12.53836
    139       2.00000          -0.459877          -12.51388
    140       2.00000          -0.458391          -12.47344
    141       2.00000          -0.457385          -12.44607
    142       2.00000          -0.456650          -12.42609
    143       2.00000          -0.455073          -12.38316
    144       2.00000          -0.454501          -12.36760
    145       2.00000          -0.453282          -12.33442
    146       2.00000          -0.450107          -12.24802
    147       2.00000          -0.449831          -12.24052
    148       2.00000          -0.448130          -12.19424
    149       2.00000          -0.447295          -12.17151
    150       2.00000          -0.445962          -12.13524
    151       2.00000          -0.442883          -12.05147
    152       2.00000          -0.441182          -12.00519
    153       2.00000          -0.440671          -11.99126
    154       2.00000          -0.439354          -11.95544
    155       2.00000          -0.438368          -11.92860
    156       2.00000          -0.436975          -11.89069
    157       2.00000          -0.435844          -11.85991
    158       2.00000          -0.432930          -11.78063
    159       2.00000          -0.424664          -11.55569
    160       2.00000          -0.419558          -11.41676
    161       0.00000          -0.178306           -4.85196
    162       0.00000          -0.119043           -3.23933
    163       0.00000          -0.116303           -3.16476
    164       0.00000          -0.113081           -3.07709
    165       0.00000          -0.111779           -3.04167
    166       0.00000          -0.110753           -3.01374
    167       0.00000          -0.104527           -2.84433
    168       0.00000          -0.075945           -2.06656
    169       0.00000          -0.073217           -1.99234
    170       0.00000          -0.070401           -1.91571
    171       0.00000          -0.067382           -1.83355
    172       0.00000          -0.061104           -1.66272
    173       0.00000          -0.059897           -1.62987
    174       0.00000          -0.054460           -1.48193
    175       0.00000          -0.051178           -1.39264
    176       0.00000          -0.049356           -1.34305
    177       0.00000          -0.043042           -1.17124
    178       0.00000          -0.040036           -1.08944
    179       0.00000          -0.034608           -0.94173
    180       0.00000          -0.024421           -0.66453
    181       0.00000          -0.016711           -0.45472
    182       0.00000          -0.014063           -0.38267
    183       0.00000          -0.013112           -0.35680
    184       0.00000          -0.006849           -0.18638
    185       0.00000           0.003605            0.09810
    186       0.00000           0.006904            0.18787
    187       0.00000           0.010299            0.28025
    188       0.00000           0.016136            0.43908
    189       0.00000           0.020044            0.54543
    190       0.00000           0.024127            0.65652
    191       0.00000           0.026972            0.73396
    192       0.00000           0.029781            0.81039
    193       0.00000           0.033972            0.92443
    194       0.00000           0.034846            0.94820
    195       0.00000           0.041029            1.11647
    196       0.00000           0.043866            1.19366
    197       0.00000           0.046031            1.25257
    198       0.00000           0.049213            1.33914
    199       0.00000           0.053725            1.46194
    200       0.00000           0.057489            1.56434
    201       0.00000           0.059160            1.60982
    202       0.00000           0.061583            1.67575
    203       0.00000           0.062840            1.70995
    204       0.00000           0.066272            1.80334
    205       0.00000           0.068580            1.86616
    206       0.00000           0.072666            1.97735
    207       0.00000           0.073682            2.00499
    208       0.00000           0.077325            2.10411
    209       0.00000           0.079409            2.16084
    210       0.00000           0.082632            2.24854
    211       0.00000           0.086884            2.36423
    212       0.00000           0.089747            2.44214
    213       0.00000           0.090307            2.45737
    214       0.00000           0.093577            2.54635
    215       0.00000           0.096419            2.62371
    216       0.00000           0.101843            2.77129
    217       0.00000           0.104362            2.83984
    218       0.00000           0.108164            2.94329
    219       0.00000           0.111072            3.02241
    220       0.00000           0.116463            3.16912
    221       0.00000           0.117210            3.18944
    222       0.00000           0.119139            3.24193
    223       0.00000           0.125251            3.40825
    224       0.00000           0.131154            3.56889
    225       0.00000           0.135928            3.69878
    226       0.00000           0.142683            3.88260
    227       0.00000           0.151184            4.11393
    228       0.00000           0.158015            4.29980
    229       0.00000           0.167008            4.54451
    230       0.00000           0.170985            4.65274
    231       0.00000           0.178400            4.85452
    232       0.00000           0.188963            5.14194
    233       0.00000           0.193063            5.25352
    234       0.00000           0.196113            5.33651
    235       0.00000           0.202576            5.51236
    236       0.00000           0.211444            5.75367
    237       0.00000           0.214590            5.83929
    238       0.00000           0.222183            6.04592
    239       0.00000           0.225787            6.14398
    240       0.00000           0.232109            6.31601
    241       0.00000           0.243863            6.63584
    242       0.00000           0.249357            6.78536
    243       0.00000           0.251417            6.84141
    244       0.00000           0.261000            7.10217
    245       0.00000           0.264759            7.20445
    246       0.00000           0.267569            7.28093
    247       0.00000           0.270076            7.34915
    248       0.00000           0.275920            7.50817
    249       0.00000           0.287795            7.83130
    250       0.00000           0.295208            8.03301
    251       0.00000           0.298237            8.11545
    252       0.00000           0.310290            8.44342
    253       0.00000           0.318021            8.65379
    254       0.00000           0.319352            8.69000
    255       0.00000           0.326539            8.88558
    256       0.00000           0.329188            8.95765
    257       0.00000           0.335737            9.13586
    258       0.00000           0.342369            9.31633
[...]
  |    H      0     4.527807 A      4.527807 A        1.268855E-16 a.u.
  |    H      0     4.527807 A      4.583499 A       -4.900954E-17 a.u.
  |    H      0     4.527807 A      4.583499 A        4.713786E-16 a.u.
  |    H      2     3.678162 A  2.180220E+05 A            0.556529 a.u.
  |    H      1     3.958095 A  1.721251E+08 A            0.841931 a.u.
  |    H      0     4.527807 A  3.866455E+16 A            0.581436 a.u.
  |    O      0     2.043000 A      2.043000 A       -1.436841E-16 a.u.
  |    O      3     3.498446 A      3.498446 A        3.043453E-17 a.u.
  |    O      3     3.498446 A      3.498446 A        1.541443E-16 a.u.
  |    O      0     3.905335 A      3.905335 A        2.173090E-16 a.u.
  |    O      0     3.905335 A      3.905335 A        7.213445E-17 a.u.
  |    O      0     4.101052 A      4.101052 A        2.361718E-16 a.u.
  |    O      1     4.101052 A      4.101052 A        3.235185E-17 a.u.
  |    O      0     4.359549 A      4.359549 A       -5.329475E-17 a.u.
  |    O      1     4.413171 A      4.413171 A        3.261883E-17 a.u.
  |    O      1     4.522403 A      4.522403 A        6.417997E-16 a.u.
  |    O      1     4.522403 A      4.522403 A        4.224783E-16 a.u.
  |    O      2     4.522403 A      4.522403 A       -4.387647E-16 a.u.
  |    O      0     4.522403 A      4.578029 A        2.602039E-16 a.u.
  |    O      0     4.578029 A      4.578029 A        1.226235E-16 a.u.
  |    O      1     4.578029 A      4.578029 A       -6.107316E-16 a.u.
  |    O      1     4.578029 A      4.578029 A       -2.224438E-16 a.u.
  |    O      2     4.578029 A      4.578029 A       -7.020279E-16 a.u.
  |    O      2     4.522403 A      4.578029 A        1.323470E-15 a.u.
  |    O      2     4.578029 A      4.578029 A        7.923696E-16 a.u.
  |    O      2     4.522403 A      4.578029 A       -9.951815E-16 a.u.
  |    O      0     4.578029 A      4.634338 A       -8.813582E-18 a.u.
  |    O      1     4.578029 A      4.634338 A       -3.325386E-17 a.u.
  |    O      1     4.634338 A      4.634338 A        9.588032E-16 a.u.
  |    O      2     4.578029 A      4.634338 A        1.064715E-17 a.u.
  |    O      2     4.578029 A      4.634338 A       -3.770343E-15 a.u.
  |    O      4     3.251020 A  1.511584E+03 A            1.513372 a.u.
  |    O      3     3.541477 A  1.434166E+04 A            4.293220 a.u.
  |    O      2     4.634338 A  5.584435E+05 A            9.352428 a.u.
  |    O      1     4.634338 A  2.821283E+08 A            2.261940 a.u.
  |    O      0     4.578029 A  4.264100E+16 A            0.641234 a.u.

  | Shrink_full_auxil_basis : there are       38  radial auxiliary wave functions
                            accepted and       5 rejected.
  | Shrink_full_auxil_basis : there are totally                4544 partial auxiliary wave functions.
 
  | Maximal number of product basis functions per thread :   256   256
 
  | Minimal total memory requirement for three-center overlap :      10.450 Gbs
  | Number of local auxiliary basis functions on task:      0   256
  | Number of local auxiliary basis functions on task:      1   256
  | Number of local auxiliary basis functions on task:      2   256
  | Number of local auxiliary basis functions on task:      3   256
  | Number of local auxiliary basis functions on task:      4   256
  | Number of local auxiliary basis functions on task:      5   256
  | Number of local auxiliary basis functions on task:      6   256
  | Number of local auxiliary basis functions on task:      7   256
  | Number of local auxiliary basis functions on task:      8   256
  | Number of local auxiliary basis functions on task:      9   256
  | Number of local auxiliary basis functions on task:     10   256
  | Number of local auxiliary basis functions on task:     11   256
  | Number of local auxiliary basis functions on task:     12   256
  | Number of local auxiliary basis functions on task:     13   256
  | Number of local auxiliary basis functions on task:     14   240
  | Number of local auxiliary basis functions on task:     15   240
  | Number of local auxiliary basis functions on task:     16   240
  | Number of local auxiliary basis functions on task:     17   240
  | 2D aux task distribution:      3 X      6
  | 2D block size (nb_aux_2d):     64
 
  Basis pair condensation :    295296  -->     219554
 
 --------------------------------------------
  Constructing auxiliary basis (full product) ...
 
  Product basis:
  | charge radius: extent of product basis function
  | field radius: extent of its Coulomb potential
  | Species   l  charge radius    field radius  multipol momen
  |    H      1     3.910002 A      3.910002 A       -2.487223E-16 a.u.
  |    H      1     3.958095 A      3.958095 A       -2.441841E-16 a.u.
  |    H      0     4.527807 A      4.527807 A        1.268855E-16 a.u.
  |    H      0     4.527807 A      4.583499 A       -4.900954E-17 a.u.
  |    H      0     4.527807 A      4.583499 A        4.713786E-16 a.u.
  |    H      2     3.678162 A  2.180220E+05 A            0.556529 a.u.
  |    H      1     3.958095 A  1.721251E+08 A            0.841931 a.u.
  |    H      0     4.527807 A  3.866455E+16 A            0.581436 a.u.
  |    O      0     2.043000 A      2.043000 A       -1.436841E-16 a.u.
  |    O      3     3.498446 A      3.498446 A        3.043453E-17 a.u.
  |    O      3     3.498446 A      3.498446 A        1.541443E-16 a.u.
  |    O      0     3.905335 A      3.905335 A        2.173090E-16 a.u.
  |    O      0     3.905335 A      3.905335 A        7.213445E-17 a.u.
  |    O      0     4.101052 A      4.101052 A        2.361718E-16 a.u.
  |    O      1     4.101052 A      4.101052 A        3.235185E-17 a.u.
  |    O      0     4.359549 A      4.359549 A       -5.329475E-17 a.u.
  |    O      1     4.413171 A      4.413171 A        3.261883E-17 a.u.
  |    O      1     4.522403 A      4.522403 A        6.417997E-16 a.u.
  |    O      1     4.522403 A      4.522403 A        4.224783E-16 a.u.
  |    O      2     4.522403 A      4.522403 A       -4.387647E-16 a.u.
  |    O      0     4.522403 A      4.578029 A        2.602039E-16 a.u.
  |    O      0     4.578029 A      4.578029 A        1.226235E-16 a.u.
  |    O      1     4.578029 A      4.578029 A       -6.107316E-16 a.u.
  |    O      1     4.578029 A      4.578029 A       -2.224438E-16 a.u.
  |    O      2     4.578029 A      4.578029 A       -7.020279E-16 a.u.
  |    O      2     4.522403 A      4.578029 A        1.323470E-15 a.u.
  |    O      2     4.578029 A      4.578029 A        7.923696E-16 a.u.
  |    O      2     4.522403 A      4.578029 A       -9.951815E-16 a.u.
  |    O      0     4.578029 A      4.634338 A       -8.813582E-18 a.u.
  |    O      1     4.578029 A      4.634338 A       -3.325386E-17 a.u.
  |    O      1     4.634338 A      4.634338 A        9.588032E-16 a.u.
  |    O      2     4.578029 A      4.634338 A        1.064715E-17 a.u.
  |    O      2     4.578029 A      4.634338 A       -3.770343E-15 a.u.
  |    O      4     3.251020 A  1.511584E+03 A            1.513372 a.u.
  |    O      3     3.541477 A  1.434166E+04 A            4.293220 a.u.
  |    O      2     4.634338 A  5.584435E+05 A            9.352428 a.u.
  |    O      1     4.634338 A  2.821283E+08 A            2.261940 a.u.
  |    O      0     4.578029 A  4.264100E+16 A            0.641234 a.u.

  | Shrink_full_auxil_basis : there are       38  radial auxiliary wave functions
                            accepted and       5 rejected.
  | Shrink_full_auxil_basis : there are totally                4544 partial auxiliary wave functions.
 
  | Maximal number of product basis functions per thread :   256   256
 
  | Minimal total memory requirement for three-center overlap :      10.450 Gbs
  | Number of local auxiliary basis functions on task:      0   256
  | Number of local auxiliary basis functions on task:      1   256
  | Number of local auxiliary basis functions on task:      2   256
  | Number of local auxiliary basis functions on task:      3   256
  | Number of local auxiliary basis functions on task:      4   256
  | Number of local auxiliary basis functions on task:      5   256
  | Number of local auxiliary basis functions on task:      6   256
  | Number of local auxiliary basis functions on task:      7   256
  | Number of local auxiliary basis functions on task:      8   256
  | Number of local auxiliary basis functions on task:      9   256
  | Number of local auxiliary basis functions on task:     10   256
  | Number of local auxiliary basis functions on task:     11   256
  | Number of local auxiliary basis functions on task:     12   256
  | Number of local auxiliary basis functions on task:     13   256
  | Number of local auxiliary basis functions on task:     14   240
  | Number of local auxiliary basis functions on task:     15   240
  | Number of local auxiliary basis functions on task:     16   240
  | Number of local auxiliary basis functions on task:     17   240
  | 2D aux task distribution:      3 X      6
  | 2D block size (nb_aux_2d):     64
 
  Basis pair condensation :    295296  -->     219554
dP_dE (Bohr^3) at every cycle:--->
 (360.075181993022,0.000000000000000E+000) (2.58792472803913,0.000000000000000E+000) (5.73315893383994,0.000000000000000E+000)
 (2.57835574113549,0.000000000000000E+000) (356.135681181417,0.000000000000000E+000) (-5.63244564300290,0.000000000000000E+000)
 (5.74609576556921,0.000000000000000E+000) (-5.62528703712177,0.000000000000000E+000) (357.731758712079,0.000000000000000E+000)
DFPT polarizability (Bohr^3)        xx        yy        zz        xy        xz        yz
  | Polarizability:--->                       360.075181993                  356.135681181                  357.731758712                    2.587924728                    5.733158934                   -5.632445643

DFPT for dielectric_constant:--->  # PARSE DFPT_dielectric_tensor
               1.702873347880425             0.005051676451544             0.011191231207478
               0.005032997613909             1.695183370167703            -0.010994637019801
               0.011216484139875            -0.010980663290054             1.698298942730199

                                               :  max(cpu_time)    wall_clock(cpu1)
  | Time for  dielectric calculation            :        0.000 s           0.000 s
===========================================================================

------------------------------------------------------------------------------
  Final output of selected total energy values:

  The following output summarizes some interesting total energy values
  at the end of a run (AFTER all relaxation, molecular dynamics, etc.).

  | Total energy of the DFT / Hartree-Fock s.c.f. calculation      :         -66107.420409075 eV
  | Final zero-broadening corrected energy (caution - metals only) :         -66107.420409075 eV
  | For reference only, the value of 1 Hartree used in FHI-aims is :             27.211384500 eV
  | For reference only, the overall average (free atom contribution
  | + realspace contribution) of the electrostatic potential after
  | s.c.f. convergence is                                          :             -5.025966668 eV

  Before relying on these values, please be sure to understand exactly which
  total energy value is referred to by a given number. Different objects may
  all carry the same name 'total energy'. Definitions:

  Total energy of the DFT / Hartree-Fock s.c.f. calculation:
  | Note that this energy does not include ANY quantities calculated after the
  | s.c.f. cycle, in particular not ANY RPA, MP2, etc. many-body perturbation terms.

  Final zero-broadening corrected energy:
  | For metallic systems only, a broadening of the occupation numbers at the Fermi
  | level can be extrapolated back to zero broadening by an electron-gas inspired
  | formula. For all systems that are not real metals, this value can be
  | meaningless and should be avoided.

------------------------------------------------------------------------------
  Methods described in the following list of references were used in this FHI-aims run.
  If you publish the results, please make sure to cite these reference if they apply.
  FHI-aims is an academic code, and for our developers (often, Ph.D. students
  and postdocs), scientific credit in the community is essential.
  Thank you for helping us!

  For any use of FHI-aims, please cite:

    Volker Blum, Ralf Gehrke, Felix Hanke, Paula Havu, Ville Havu,
    Xinguo Ren, Karsten Reuter, and Matthias Scheffler
    'Ab initio molecular simulations with numeric atom-centered orbitals'
    Computer Physics Communications 180, 2175-2196 (2009)
    http://doi.org/10.1016/j.cpc.2009.06.022


  For Hartree-Fock, hybrid functionals, or many-body perturbation theory used in your run, please cite:

    Xinguo Ren, Patrick Rinke, Volker Blum, Juergen Wieferink, Alex Tkatchenko,
    Andrea Sanfilippo, Karsten Reuter, and Matthias Scheffler,
    'Resolution-of-identity approach to Hartree-Fock, hybrid density functionals,
    RPA, MP2, and GW with numeric atom-centered orbital basis functions'
    New Journal of Physics 14, 053020 (2012).
    http://doi.org/10.1088/1367-2630/14/5/053020


  The provided symmetry information was generated with SPGlib:

    Atsushi Togo, Yusuke Seto, Dimitar Pashov
    SPGlib 1.7.3 obtained from http://spglib.sourceforge.net
    Copyright (C) 2008 Atsushi Togo


  The DFPT (perturbation by an electric field) part of the code was used.
  Here is the corresponding reference:

    Honghui Shang, Nathaniel Raimbault, Mariana Rossi,
    Christian Carbogno, Patrick Rinke and Matthias Scheffler,
    'All-Electron, Real-Space Perturbation Theory for Homogeneous
    Electric Fields: Theory, Implementation, and Application within dft'
    New Journal of Physics, 20(7):073040, 2018


  The ELSI infrastructure was used in your run to solve the Kohn-Sham electronic structure.
  Please check out http://elsi-interchange.org to learn more.
  If scalability is important for your project, please acknowledge ELSI by citing:

    V. W-z. Yu, F. Corsetti, A. Garcia, W. P. Huhn, M. Jacquelin, W. Jia,
    B. Lange, L. Lin, J. Lu, W. Mi, A. Seifitokaldani, A. Vazquez-Mayagoitia,
    C. Yang, H. Yang, and V. Blum
    'ELSI: A unified software interface for Kohn-Sham electronic structure solvers'
    Computer Physics Communications 222, 267-285 (2018).
    http://doi.org/10.1016/j.cpc.2017.09.007


  For the real-space grid partitioning and parallelization used in this calculation, please cite:

    Ville Havu, Volker Blum, Paula Havu, and Matthias Scheffler,
    'Efficient O(N) integration for all-electron electronic structure calculation'
    'using numerically tabulated basis functions'
    Journal of Computational Physics 228, 8367-8379 (2009).
    http://doi.org/10.1016/j.jcp.2009.08.008


  The high-level electronic structure method used in your calculation
  employed our efficient localized resolution of identity for the Coulomb operator.
  Some calculations, especially large-scale hybrid density functional theory,
  are only possible thanks to this development. For this feature, please cite:

    Arvid Ihrig, Juergen Wieferink, Igor Ying Zhang, Matti Ropo, Xinguo Ren,
    Patrick Rinke, Matthias Scheffler, and Volker Blum,
    'Accurate localized resolution of identity approach for linear-scaling
    hybrid density functionals and for many-body perturbation theory'
    New Journal of Physics 117, 093020 (2015).
    http://doi.org/10.1088/1367-2630/17/9/093020

  Of course, there are many other important community references, e.g., those cited in the
  above references. Our list is limited to references that describe implementations in the
  FHI-aims code. The reason is purely practical (length of this list) - please credit others as well.

------------------------------------------------------------
          Leaving FHI-aims.
          Date     :  20230221, Time     :  155012.416

          Computational steps:
          | Number of self-consistency cycles          :           45
          | Number of SCF (re)initializations          :            1
          | Number of coupled perturbed self-consistency cycles          :            0
          | Number of CPSCF (re)initializations          :            0

          Detailed time accounting                     :  max(cpu_time)    wall_clock(cpu1)
          | Total time                                  :      477.302 s         488.371 s
          | GPU initialization                          :        2.141 s           9.750 s
          | Preparation time                            :        0.070 s           0.064 s
          | Boundary condition initalization            :        1.303 s           1.303 s
          | Grid partitioning                           :        0.416 s           0.416 s
          | Preloading free-atom quantities on grid     :        2.553 s           2.553 s
          | Free-atom superposition energy              :        0.320 s           0.320 s
          | Total time for integrations                 :       12.030 s          12.236 s
          | Product basis setup: Total time             :        0.000 s           0.000 s
          | Product basis: | 2-center integrations     :(       0.000 s)  (       0.000 s)
          | Product basis: | LVL 3-center & coefficient:(       0.000 s)  (       0.000 s)
          | Total time for solution of K.-S. equations  :        2.295 s           4.499 s
          | Total time for density update               :        8.476 s           8.764 s
          | Total time for mixing & preconditioning     :        8.288 s           8.288 s
          | Total time for Hartree multipole update     :        0.109 s           0.110 s
          | Total time for Hartree multipole sum        :       35.216 s          35.228 s
          | Total time for total energy evaluation      :        0.006 s           0.012 s
          | Total time for DFPT                         :      403.610 s         403.766 s
          | Total time first_order_DM                   :        0.313 s           0.312 s
          | Total time first_order_density              :       84.595 s          84.606 s
          | Total time first_order_potential            :       52.596 s          52.618 s
          | Total time first_order_H                    :      169.242 s         169.307 s
          | Total time solving of Sternheimer equations :        0.196 s           0.198 s
          | Total time for dielectric constant          :        0.000 s           0.000 s
          | Total time momentum matrix                  :        0.000 s           0.000 s

          GPU acceleration has been used for charge density update.
          GPU acceleration has been used for real-space Hamiltonian integration.
          Due to GPU usage, wall_clock(cpu1) will give a more reliable estimate for timings.

          Partial memory accounting:
          | Residual value for overall tracked memory usage across tasks:     0.000000 MB (should be 0.000000 MB)
          | Peak values for overall tracked memory usage:
          |   Minimum:      119.162 MB (on task  0 after allocating DFPT_pulay_mixing::pulay_mix::alphas)
          |   Maximum:      119.162 MB (on task  0 after allocating DFPT_pulay_mixing::pulay_mix::alphas)
          |   Average:      119.162 MB
          | Largest tracked array allocation:
          |   Minimum:       42.506 MB (DFPT_pulay_mixing::initialize_pulay_mixing::X_in_diffs on task  0)
          |   Maximum:       42.506 MB (DFPT_pulay_mixing::initialize_pulay_mixing::X_in_diffs on task  0)
          |   Average:       42.506 MB
          Note:  These values currently only include a subset of arrays which are explicitly tracked.
          The "true" memory usage will be greater.

          Have a nice day.
------------------------------------------------------------
