------------------------------------------------------------
          Invoking FHI-aims ...

          When using FHI-aims, please cite the following reference:

            Volker Blum, Ralf Gehrke, Felix Hanke, Paula Havu,
            Ville Havu, Xinguo Ren, Karsten Reuter, and Matthias Scheffler,
            'Ab Initio Molecular Simulations with Numeric Atom-Centered Orbitals',
            Computer Physics Communications 180, 2175-2196 (2009)

          In addition, many other developments in FHI-aims are likely important for
          your particular application. A partial list of references is given at the end of
          this file. Thank you for giving credit to the authors of these developments.

          For any questions about FHI-aims, please visit our slack channel at

            https://fhi-aims.slack.com

          and our main development and support site at

            https://aims-git.rz-berlin.mpg.de .

          The latter site, in particular, has a wiki to collect information, as well
          as an issue tracker to log discussions, suggest improvements, and report issues
          or bugs. https://aims-git.rz-berlin.mpg.de is also the main development site
          of the project and all new and updated code versions can be obtained there.
          Please send an email to aims-coordinators@fhi-berlin.mpg.de and we will add
          you to these sites. They are for you and everyone is welcome there.

------------------------------------------------------------



  Date     :  20230221, Time     :  131653.997
  Time zero on CPU 1             :   0.389636000000000E+00  s.
  Internal wall clock time zero  :           446217413.997  s.

  FHI-aims created a unique identifier for this run for later identification
  aims_uuid : B620F1B5-7F64-4831-A7DF-FCB4FE4EABF6

  Build configuration of the current instance of FHI-aims
  -------------------------------------------------------
  FHI-aims version      : 221103
  Commit number         : 42523251a
  CMake host system     : Linux-5.3.18-150300.59.68-default
  CMake version         : 3.17.0
  Fortran compiler      : /mpcdf/soft/SLE_15/packages/x86_64/intel_oneapi/2021.3/mpi/2021.3.0/bin/mpiifort (Intel) version 20.2.3.20210609
  Fortran compiler flags: -O3 -ip -fp-model precise
  C compiler            : /mpcdf/soft/SLE_15/packages/x86_64/intel/2021.3.0/bin/icc (Intel) version 20.2.3.20210609
  C compiler flags      : -O3 -ip -fp-model precise -std=gnu99
  CUDA compiler         : /mpcdf/soft/SLE_15/packages/x86_64/cuda/11.6.2/bin/nvcc
  CUDA compiler flags   : -O3 -DAdd_ -lcublas
  HIP compiler          :
  HIP compiler flags    :
  HIP GPU arch          :
  ELPA2 kernel          : AVX512
  Using MPI
  Using ScaLAPACK
  Using LibXC
  Using CUDA
  Using i-PI
  Using RLSY
  Linking against: /mpcdf/soft/SLE_15/packages/x86_64/cuda/11.6.2/lib64/libcublas.so
                   /mpcdf/soft/SLE_15/packages/x86_64/cuda/11.6.2/lib64/libcudart.so
                   /mpcdf/soft/SLE_15/packages/x86_64/intel_oneapi/2021.3/mkl/latest/lib/intel64/libmkl_intel_lp64.so
                   /mpcdf/soft/SLE_15/packages/x86_64/intel_oneapi/2021.3/mkl/latest/lib/intel64/libmkl_sequential.so
                   /mpcdf/soft/SLE_15/packages/x86_64/intel_oneapi/2021.3/mkl/latest/lib/intel64/libmkl_core.so
                   /mpcdf/soft/SLE_15/packages/x86_64/intel_oneapi/2021.3/mkl/latest/lib/intel64/libmkl_blacs_intelmpi_lp64.so
                   /mpcdf/soft/SLE_15/packages/x86_64/intel_oneapi/2021.3/mkl/latest/lib/intel64/libmkl_scalapack_lp64.so

  Using       18 parallel tasks.
  Task        0 on host adag039 reporting.
  Task        1 on host adag039 reporting.
  Task        2 on host adag039 reporting.
  Task        3 on host adag039 reporting.
  Task        4 on host adag039 reporting.
  Task        5 on host adag039 reporting.
  Task        6 on host adag039 reporting.
  Task        7 on host adag039 reporting.
  Task        8 on host adag039 reporting.
  Task        9 on host adag039 reporting.
  Task       10 on host adag039 reporting.
  Task       11 on host adag039 reporting.
  Task       12 on host adag039 reporting.
  Task       13 on host adag039 reporting.
  Task       14 on host adag039 reporting.
  Task       15 on host adag039 reporting.
  Task       16 on host adag039 reporting.
  Task       17 on host adag039 reporting.

  Obtaining array dimensions for all initial allocations:
  
  -----------------------------------------------------------------------
  Parsing control.in (first pass over file, find array dimensions only).
  The contents of control.in will be repeated verbatim below
  unless switched off by setting 'verbatim_writeout .false.' .
  in the first line of control.in .
  -----------------------------------------------------------------------
  
  #########################################################################################
  #
  #  Volker Blum, 2017 : Test run input file control.in for simple H2O
  #
  #########################################################################################
  #
  #  Physical model
  #
    xc                 pw-lda
    spin               none
    relativistic       none
    charge             0.
  
    use_gpu
  
    DFPT dielectric
    ri_density_restart write
    ri_rho1 write
  #  ri_density_restart read 0
  #  ri_rho1 read
    ri_full_output .true.
    sc_accuracy_rho    1d-6
  #  use_calculate_fock_matrix_old .false.
  #  wave_threshold 1e-8
    k_grid 1 1 1
  #  output cube eigenstate 160
  #  output cube eigenstate 161
    wave_threshold 1e-8
    default_prodbas_acc 1e-6
    default_max_l_prodbas 6
  #
  #  Relaxation
  #
  #  relax_geometry   bfgs 1.e-2
  #
  
  ################################################################################
  
  
  ################################################################################
  #
  #  FHI-aims code project
  #  VB, Fritz-Haber Institut, 2009
  #
  #  Suggested "light" defaults for H atom (to be pasted into control.in file)
  #  Be sure to double-check any results obtained with these settings for post-processing,
  #  e.g., with the "tight" defaults and larger basis sets.
  #
  ################################################################################
    species        H
  #     global species definitions
      nucleus             1
      mass                1.00794
  #
      l_hartree           4
  #
      cut_pot             3.5  1.5  1.0
      basis_dep_cutoff    1e-4
  #
      radial_base         24 5.0
      radial_multiplier   1
      angular_grids       specified
        division   0.2421   50
        division   0.3822  110
        division   0.4799  194
        division   0.5341  302
  #      division   0.5626  434
  #      division   0.5922  590
  #      division   0.6542  770
  #      division   0.6868 1202
  #      outer_grid  770
        outer_grid  302
  ################################################################################
  #
  #  Definition of "minimal" basis
  #
  ################################################################################
  #     valence basis states
      valence      1  s   1.
  #     ion occupancy
      ion_occ      1  s   0.5
  ################################################################################
  #
  #  Suggested additional basis functions. For production calculations,
  #  uncomment them one after another (the most important basis functions are
  #  listed first).
  #
  #  Basis constructed for dimers: 0.5 A, 0.7 A, 1.0 A, 1.5 A, 2.5 A
  #
  ################################################################################
  #  "First tier" - improvements: -1014.90 meV to -62.69 meV
       hydro 2 s 2.1
       hydro 2 p 3.5
  #  "Second tier" - improvements: -12.89 meV to -1.83 meV
  #     hydro 1 s 0.85
  #     hydro 2 p 3.7
  #     hydro 2 s 1.2
  #     hydro 3 d 7
  #  "Third tier" - improvements: -0.25 meV to -0.12 meV
  #     hydro 4 f 11.2
  #     hydro 3 p 4.8
  #     hydro 4 d 9
  #     hydro 3 s 3.2
  ################################################################################
  #
  #  FHI-aims code project
  #  VB, Fritz-Haber Institut, 2009
  #
  #  Suggested "light" defaults for O atom (to be pasted into control.in file)
  #  Be sure to double-check any results obtained with these settings for post-processing,
  #  e.g., with the "tight" defaults and larger basis sets.
  #
  ################################################################################
    species        O
  #     global species definitions
      nucleus             8
      mass                15.9994
  #
      l_hartree           4
  #
      cut_pot             3.5  1.5  1.0
      basis_dep_cutoff    1e-4
  #
      radial_base         36 5.0
      radial_multiplier   1
       angular_grids specified
        division   0.2659   50
        division   0.4451  110
        division   0.6052  194
        division   0.7543  302
  #      division   0.8014  434
  #      division   0.8507  590
  #      division   0.8762  770
  #      division   0.9023  974
  #      division   1.2339 1202
  #      outer_grid 974
        outer_grid 302
  ################################################################################
  #
  #  Definition of "minimal" basis
  #
  ################################################################################
  #     valence basis states
      valence      2  s   2.
      valence      2  p   4.
  #     ion occupancy
      ion_occ      2  s   1.
      ion_occ      2  p   3.
  ################################################################################
  #
  #  Suggested additional basis functions. For production calculations,
  #  uncomment them one after another (the most important basis functions are
  #  listed first).
  #
  #  Constructed for dimers: 1.0 A, 1.208 A, 1.5 A, 2.0 A, 3.0 A
  #
  ################################################################################
  #  "First tier" - improvements: -699.05 meV to -159.38 meV
       hydro 2 p 1.8
       hydro 3 d 7.6
       hydro 3 s 6.4
  #  "Second tier" - improvements: -49.91 meV to -5.39 meV
  #     hydro 4 f 11.6
  #     hydro 3 p 6.2
  #     hydro 3 d 5.6
  #     hydro 5 g 17.6
  #     hydro 1 s 0.75
  #  "Third tier" - improvements: -2.83 meV to -0.50 meV
  #     ionic 2 p auto
  #     hydro 4 f 10.8
  #     hydro 4 d 4.7
  #     hydro 2 s 6.8
  #  "Fourth tier" - improvements: -0.40 meV to -0.12 meV
  #     hydro 3 p 5
  #     hydro 3 s 3.3
  #     hydro 5 g 15.6
  #     hydro 4 f 17.6
  #     hydro 4 d 14
  # Further basis functions - -0.08 meV and below
  #     hydro 3 s 2.1
  #     hydro 4 d 11.6
  #     hydro 3 p 16
  #     hydro 2 s 17.2
  
  -----------------------------------------------------------------------
  Completed first pass over input file control.in .
  -----------------------------------------------------------------------
  
  
  -----------------------------------------------------------------------
  Parsing geometry.in (first pass over file, find array dimensions only).
  The contents of geometry.in will be repeated verbatim below
  unless switched off by setting 'verbatim_writeout .false.' .
  in the first line of geometry.in .
  -----------------------------------------------------------------------
  
  #=======================================================
  # FHI-aims file: /ada/ptmp/mpsd/alewis/bulk_water/qmdata/data/geoms/483.in
  # Created using the Atomic Simulation Environment (ASE)
  # Tue Feb 21 11:23:37 2023
  #=======================================================
  lattice_vector 10.1159999999999997 0.0000000000000000 0.0000000000000000
  lattice_vector 0.0000000000000000 10.1159999999999997 0.0000000000000000
  lattice_vector 0.0000000000000000 0.0000000000000000 10.1159999999999997
  atom 3.5764900000000002 31.6652999999999984 8.3132999999999999 O
  atom 3.4270600000000000 32.6015000000000015 9.0612800000000000 H
  atom 2.8407499999999999 31.7274999999999991 7.6764999999999999 H
  atom 15.6562999999999999 22.4506000000000014 -13.5838000000000001 O
  atom 15.1028000000000002 21.9395999999999987 -12.8007000000000009 H
  atom 15.2710000000000008 22.5758000000000010 -14.4403000000000006 H
  atom 11.2786000000000008 -14.6378000000000004 -0.5450000000000000 O
  atom 12.2454000000000001 -14.9094999999999995 -0.3393180000000000 H
  atom 11.0167999999999999 -14.5206000000000000 0.3973130000000000 H
  atom -3.5220500000000001 10.7763000000000009 3.0090499999999998 O
  atom -3.6480000000000001 10.4298000000000002 2.0550600000000001 H
  atom -4.4303400000000002 10.7789999999999999 3.1492200000000001 H
  atom -29.5832000000000015 23.8399999999999999 22.8284999999999982 O
  atom -29.0587000000000018 23.3199000000000005 22.4421999999999997 H
  atom -30.2121999999999993 23.3029000000000011 22.8997999999999990 H
  atom 3.0288800000000000 -10.9552999999999994 4.9985799999999996 O
  atom 3.1989000000000001 -10.1809999999999992 4.1019300000000003 H
  atom 3.6674799999999999 -10.7243999999999993 5.5908400000000000 H
  atom -10.4971999999999994 5.8727999999999998 -8.2643299999999993 O
  atom -10.0775000000000006 5.2827900000000003 -7.6367599999999998 H
  atom -10.4941999999999993 6.5933700000000002 -7.6478999999999999 H
  atom 9.9221900000000005 15.9960000000000004 -3.1975799999999999 O
  atom 9.5135900000000007 16.8271000000000015 -3.0032600000000000 H
  atom 10.5259999999999998 15.8783999999999992 -2.4770500000000002 H
  atom 15.9301999999999992 10.7457999999999991 0.0281430000000000 O
  atom 16.6253999999999991 11.3762000000000008 -0.1416700000000000 H
  atom 14.9652999999999992 10.8618000000000006 -0.4666690000000000 H
  atom -23.9366999999999983 28.0141999999999989 3.0945299999999998 O
  atom -24.0101000000000013 28.3345999999999982 2.0531999999999999 H
  atom -23.5576000000000008 28.7055000000000007 3.4781900000000001 H
  atom -16.7706000000000017 7.5799000000000003 -7.5430700000000002 O
  atom -15.8999000000000006 7.8945299999999996 -7.2795699999999997 H
  atom -16.9918000000000013 7.1758400000000000 -6.8342799999999997 H
  atom 12.1103000000000005 -19.7103000000000002 0.9944190000000001 O
  atom 12.3056000000000001 -20.4204000000000008 0.4408870000000000 H
  atom 12.2576000000000001 -18.8882000000000012 0.4361260000000000 H
  atom 2.5574800000000000 -6.9824400000000004 -0.0934120000000000 O
  atom 1.8586300000000000 -6.4899500000000003 -0.5726370000000000 H
  atom 3.0028700000000002 -6.3582099999999997 0.6010510000000000 H
  atom 13.9643999999999995 -9.3822600000000005 -7.1159600000000003 O
  atom 13.2853999999999992 -9.6400699999999997 -7.8711099999999998 H
  atom 13.8973999999999993 -8.3953500000000005 -6.6849499999999997 H
  atom -31.1762000000000015 3.0338200000000000 7.8573500000000003 O
  atom -31.3601999999999990 3.7414499999999999 7.2240700000000002 H
  atom -31.8083999999999989 3.0676000000000001 8.5942100000000003 H
  atom 4.0206999999999997 -16.9848999999999997 4.2138700000000000 O
  atom 3.5152000000000001 -16.1844999999999999 4.4363400000000004 H
  atom 4.7850999999999999 -16.3366000000000007 3.9523000000000001 H
  atom 16.2176000000000009 -4.9633799999999999 24.5855999999999995 O
  atom 16.3652000000000015 -4.0492699999999999 24.2640999999999991 H
  atom 15.9063999999999997 -4.8755100000000002 25.5329000000000015 H
  atom -2.0417800000000002 7.9193699999999998 17.5884000000000000 O
  atom -2.4605399999999999 7.3272800000000000 18.1816999999999993 H
  atom -1.9624600000000001 8.8886699999999994 17.7889000000000017 H
  atom 3.5122100000000001 15.3978999999999999 21.2398999999999987 O
  atom 3.5832199999999998 16.2742000000000004 21.9499999999999993 H
  atom 4.4577000000000000 15.4923000000000002 20.7686999999999991 H
  atom 1.4205000000000001 -18.6414000000000009 6.4660599999999997 O
  atom 1.4188600000000000 -18.2944999999999993 5.4913999999999996 H
  atom 0.5598109999999999 -18.3570999999999991 6.7913800000000002 H
  atom -4.2053500000000001 16.2042000000000002 -0.3879130000000000 O
  atom -3.6198600000000001 15.6789000000000005 0.1504280000000000 H
  atom -4.0430200000000003 17.1116999999999990 0.0523900000000000 H
  atom -1.0878200000000000 -8.1411999999999995 3.6314299999999999 O
  atom -1.1227499999999999 -7.5434999999999999 4.4068699999999996 H
  atom -2.0209899999999998 -8.4132099999999994 3.3143899999999999 H
  atom -2.7554500000000002 45.2672999999999988 1.4621700000000000 O
  atom -1.8791300000000000 45.6606999999999985 1.6231700000000000 H
  atom -3.0110700000000001 45.2111000000000018 2.2757800000000001 H
  atom 37.3872000000000000 -42.1503999999999976 0.5288990000000000 O
  atom 37.1349000000000018 -41.1306000000000012 0.1816460000000000 H
  atom 38.3530000000000015 -42.1632999999999996 0.8862719999999999 H
  atom -3.9199099999999998 -5.2765599999999999 -12.9621999999999993 O
  atom -4.1781699999999997 -6.2035700000000000 -12.9458000000000002 H
  atom -4.1409599999999998 -4.9682500000000003 -12.1152999999999995 H
  atom 18.1103999999999985 2.2717499999999999 -10.0630000000000006 O
  atom 18.7641999999999989 1.6764900000000000 -9.5956700000000001 H
  atom 18.0786000000000016 3.1693300000000000 -9.6395800000000005 H
  atom 11.8204999999999991 14.8233999999999995 5.0929099999999998 O
  atom 11.2576999999999998 15.0970999999999993 5.6827399999999999 H
  atom 11.4307999999999996 14.5791000000000004 4.3015499999999998 H
  atom -0.6146910000000000 30.4427999999999983 0.6701820000000001 O
  atom 0.2370020000000000 30.4070999999999998 1.0808000000000000 H
  atom -0.4974570000000000 30.0043000000000006 -0.0840390000000000 H
  atom 19.5831000000000017 -9.8342899999999993 28.2944999999999993 O
  atom 19.4021000000000008 -8.8774700000000006 28.3554999999999993 H
  atom 20.3599999999999994 -9.9936500000000006 27.6552000000000007 H
  atom 8.6760300000000008 14.3888999999999996 35.4264999999999972 O
  atom 7.8044799999999999 14.6723999999999997 35.3228000000000009 H
  atom 9.1087699999999998 15.1448000000000000 36.0362999999999971 H
  atom -4.5595200000000000 -0.6462710000000000 -3.8322200000000000 O
  atom -4.0644200000000001 0.2601380000000000 -3.7387199999999998 H
  atom -3.8272499999999998 -1.2899099999999999 -3.5475900000000000 H
  atom 20.9583000000000013 7.4762300000000002 14.4072999999999993 O
  atom 21.4341000000000008 8.3638100000000009 14.5084999999999997 H
  atom 21.2985000000000007 6.7144000000000004 14.6972000000000005 H
  
  -----------------------------------------------------------------------
  Completed first pass over input file geometry.in .
  -----------------------------------------------------------------------
  

  Basic array size parameters:
  | Number of species                 :        2
  | Number of atoms                   :       96
  | Number of lattice vectors         :        3
  | Max. basis fn. angular momentum   :        2
  | Max. atomic/ionic basis occupied n:        2
  | Max. number of basis fn. types    :        2
  | Max. radial fns per species/type  :        3
  | Max. logarithmic grid size        :     1301
  | Max. radial integration grid size :       36
  | Max. angular integration grid size:      302
  | Max. angular grid division number :        8
  | Radial grid for Hartree potential :     1301
  | Number of spin channels           :        1

------------------------------------------------------------
          Reading file control.in.
------------------------------------------------------------
  XC: Using Perdew-Wang parametrisation of Ceperley-Alder LDA.
  Spin treatment: No spin polarisation.
  Non-relativistic treatment of kinetic energy.
  Charge =   0.000000E+00: Neutral system requested explicitly.
  DFPT calculation will begin after the DFT/HF calculation.
  Convergence accuracy of self-consistent charge density:  0.1000E-05
  Found k-point grid:         1         1         1
  Threshold value for wave function integration:  0.1000E-07
 
  Reading configuration options for species H                   .
  | Found nuclear charge :   1.0000
  | Found atomic mass :    1.00794000000000      amu
  | Found l_max for Hartree potential  :   4
  | Found cutoff potl. onset [A], width [A], scale factor :    3.50000    1.50000    1.00000
  | Threshold for basis-dependent cutoff potential is   0.100000E-03
  | Found data for basic radial integration grid :    24 points, outermost radius =    5.000 A
  | Found multiplier for basic radial grid :   1
  | Found angular grid specification: user-specified.
  | Specified grid contains     5 separate shells.
  | Check grid settings after all constraints further below.
  | Found free-atom valence shell :  1 s   1.000
  | No ionic wave fns used. Skipping ion_occ.
  | Found hydrogenic basis function :  2 s   2.100
  | Found hydrogenic basis function :  2 p   3.500
  Species H                   : Missing cutoff potential type.
  Defaulting to exp(1/x)/(1-x)^2 type cutoff potential.
  Species H : No 'logarithmic' tag. Using default grid for free atom:
  | Default logarithmic grid data [bohr] : 0.1000E-03 0.1000E+03 0.1012E+01
  Species H : On-site basis accuracy parameter (for Gram-Schmidt orthonormalisation) not specified.
  Using default value basis_acc =  0.1000000E-03.
  Species H                   : Using default innermost maximum threshold i_radial=  2 for radial functions.
  Species H                   : Default cutoff onset for free atom density etc. : 0.35000000E+01 AA.
  Species H                   : Basic radial grid will be enhanced according to radial_multiplier =   1, to contain    24 grid points.
 
  Reading configuration options for species O                   .
  | Found nuclear charge :   8.0000
  | Found atomic mass :    15.9994000000000      amu
  | Found l_max for Hartree potential  :   4
  | Found cutoff potl. onset [A], width [A], scale factor :    3.50000    1.50000    1.00000
  | Threshold for basis-dependent cutoff potential is   0.100000E-03
  | Found data for basic radial integration grid :    36 points, outermost radius =    5.000 A
  | Found multiplier for basic radial grid :   1
  | Found angular grid specification: user-specified.
  | Specified grid contains     5 separate shells.
  | Check grid settings after all constraints further below.
  | Found free-atom valence shell :  2 s   2.000
  | Found free-atom valence shell :  2 p   4.000
  | No ionic wave fns used. Skipping ion_occ.
  | No ionic wave fns used. Skipping ion_occ.
  | Found hydrogenic basis function :  2 p   1.800
  | Found hydrogenic basis function :  3 d   7.600
  | Found hydrogenic basis function :  3 s   6.400
  Species O                   : Missing cutoff potential type.
  Defaulting to exp(1/x)/(1-x)^2 type cutoff potential.
  Species O : No 'logarithmic' tag. Using default grid for free atom:
  | Default logarithmic grid data [bohr] : 0.1000E-03 0.1000E+03 0.1012E+01
  Species O : On-site basis accuracy parameter (for Gram-Schmidt orthonormalisation) not specified.
  Using default value basis_acc =  0.1000000E-03.
  Species O                   : Using default innermost maximum threshold i_radial=  2 for radial functions.
  Species O                   : Default cutoff onset for free atom density etc. : 0.35000000E+01 AA.
  Species O                   : Basic radial grid will be enhanced according to radial_multiplier =   1, to contain    36 grid points.
 
  Finished reading input file 'control.in'.
 
------------------------------------------------------------


------------------------------------------------------------
          Reading geometry description geometry.in.
------------------------------------------------------------
  | The smallest distance between any two atoms is         0.83018137 AA.
  | The first atom of this pair is atom number                     13 .
  | The second atom of this pair is atom number                    15 .
  | Wigner-Seitz cell of the first atom image           0     0     0 .
  | (The Wigner-Seitz cell of the second atom is 0 0 0  by definition.)

  Symmetry information by spglib:
  | Precision set to  0.1E-04
  | Number of Operations  : 1
  | Space group           : 1
  | International         : P1       v
  | Schoenflies           : C1^1
  Input structure read successfully.
  The structure contains       96 atoms,  and a total of        320.000 electrons.

  Input geometry:
  | Unit cell:
  |       10.11600000        0.00000000        0.00000000
  |        0.00000000       10.11600000        0.00000000
  |        0.00000000        0.00000000       10.11600000
  | Atomic structure:
  |       Atom                x [A]            y [A]            z [A]
  |    1: Species O             3.57649000       31.66530000        8.31330000
  |    2: Species H             3.42706000       32.60150000        9.06128000
  |    3: Species H             2.84075000       31.72750000        7.67650000
  |    4: Species O            15.65630000       22.45060000      -13.58380000
  |    5: Species H            15.10280000       21.93960000      -12.80070000
  |    6: Species H            15.27100000       22.57580000      -14.44030000
  |    7: Species O            11.27860000      -14.63780000       -0.54500000
  |    8: Species H            12.24540000      -14.90950000       -0.33931800
  |    9: Species H            11.01680000      -14.52060000        0.39731300
  |   10: Species O            -3.52205000       10.77630000        3.00905000
  |   11: Species H            -3.64800000       10.42980000        2.05506000
  |   12: Species H            -4.43034000       10.77900000        3.14922000
  |   13: Species O           -29.58320000       23.84000000       22.82850000
  |   14: Species H           -29.05870000       23.31990000       22.44220000
  |   15: Species H           -30.21220000       23.30290000       22.89980000
  |   16: Species O             3.02888000      -10.95530000        4.99858000
  |   17: Species H             3.19890000      -10.18100000        4.10193000
  |   18: Species H             3.66748000      -10.72440000        5.59084000
  |   19: Species O           -10.49720000        5.87280000       -8.26433000
  |   20: Species H           -10.07750000        5.28279000       -7.63676000
  |   21: Species H           -10.49420000        6.59337000       -7.64790000
  |   22: Species O             9.92219000       15.99600000       -3.19758000
  |   23: Species H             9.51359000       16.82710000       -3.00326000
  |   24: Species H            10.52600000       15.87840000       -2.47705000
  |   25: Species O            15.93020000       10.74580000        0.02814300
  |   26: Species H            16.62540000       11.37620000       -0.14167000
  |   27: Species H            14.96530000       10.86180000       -0.46666900
  |   28: Species O           -23.93670000       28.01420000        3.09453000
  |   29: Species H           -24.01010000       28.33460000        2.05320000
  |   30: Species H           -23.55760000       28.70550000        3.47819000
  |   31: Species O           -16.77060000        7.57990000       -7.54307000
  |   32: Species H           -15.89990000        7.89453000       -7.27957000
  |   33: Species H           -16.99180000        7.17584000       -6.83428000
  |   34: Species O            12.11030000      -19.71030000        0.99441900
  |   35: Species H            12.30560000      -20.42040000        0.44088700
  |   36: Species H            12.25760000      -18.88820000        0.43612600
  |   37: Species O             2.55748000       -6.98244000       -0.09341200
  |   38: Species H             1.85863000       -6.48995000       -0.57263700
  |   39: Species H             3.00287000       -6.35821000        0.60105100
  |   40: Species O            13.96440000       -9.38226000       -7.11596000
  |   41: Species H            13.28540000       -9.64007000       -7.87111000
  |   42: Species H            13.89740000       -8.39535000       -6.68495000
  |   43: Species O           -31.17620000        3.03382000        7.85735000
  |   44: Species H           -31.36020000        3.74145000        7.22407000
  |   45: Species H           -31.80840000        3.06760000        8.59421000
  |   46: Species O             4.02070000      -16.98490000        4.21387000
  |   47: Species H             3.51520000      -16.18450000        4.43634000
  |   48: Species H             4.78510000      -16.33660000        3.95230000
  |   49: Species O            16.21760000       -4.96338000       24.58560000
  |   50: Species H            16.36520000       -4.04927000       24.26410000
  |   51: Species H            15.90640000       -4.87551000       25.53290000
  |   52: Species O            -2.04178000        7.91937000       17.58840000
  |   53: Species H            -2.46054000        7.32728000       18.18170000
  |   54: Species H            -1.96246000        8.88867000       17.78890000
  |   55: Species O             3.51221000       15.39790000       21.23990000
  |   56: Species H             3.58322000       16.27420000       21.95000000
  |   57: Species H             4.45770000       15.49230000       20.76870000
  |   58: Species O             1.42050000      -18.64140000        6.46606000
  |   59: Species H             1.41886000      -18.29450000        5.49140000
  |   60: Species H             0.55981100      -18.35710000        6.79138000
  |   61: Species O            -4.20535000       16.20420000       -0.38791300
  |   62: Species H            -3.61986000       15.67890000        0.15042800
  |   63: Species H            -4.04302000       17.11170000        0.05239000
  |   64: Species O            -1.08782000       -8.14120000        3.63143000
  |   65: Species H            -1.12275000       -7.54350000        4.40687000
  |   66: Species H            -2.02099000       -8.41321000        3.31439000
  |   67: Species O            -2.75545000       45.26730000        1.46217000
  |   68: Species H            -1.87913000       45.66070000        1.62317000
  |   69: Species H            -3.01107000       45.21110000        2.27578000
  |   70: Species O            37.38720000      -42.15040000        0.52889900
  |   71: Species H            37.13490000      -41.13060000        0.18164600
  |   72: Species H            38.35300000      -42.16330000        0.88627200
  |   73: Species O            -3.91991000       -5.27656000      -12.96220000
  |   74: Species H            -4.17817000       -6.20357000      -12.94580000
  |   75: Species H            -4.14096000       -4.96825000      -12.11530000
  |   76: Species O            18.11040000        2.27175000      -10.06300000
  |   77: Species H            18.76420000        1.67649000       -9.59567000
  |   78: Species H            18.07860000        3.16933000       -9.63958000
  |   79: Species O            11.82050000       14.82340000        5.09291000
  |   80: Species H            11.25770000       15.09710000        5.68274000
  |   81: Species H            11.43080000       14.57910000        4.30155000
  |   82: Species O            -0.61469100       30.44280000        0.67018200
  |   83: Species H             0.23700200       30.40710000        1.08080000
  |   84: Species H            -0.49745700       30.00430000       -0.08403900
  |   85: Species O            19.58310000       -9.83429000       28.29450000
  |   86: Species H            19.40210000       -8.87747000       28.35550000
  |   87: Species H            20.36000000       -9.99365000       27.65520000
  |   88: Species O             8.67603000       14.38890000       35.42650000
  |   89: Species H             7.80448000       14.67240000       35.32280000
  |   90: Species H             9.10877000       15.14480000       36.03630000
  |   91: Species O            -4.55952000       -0.64627100       -3.83222000
  |   92: Species H            -4.06442000        0.26013800       -3.73872000
  |   93: Species H            -3.82725000       -1.28991000       -3.54759000
  |   94: Species O            20.95830000        7.47623000       14.40730000
  |   95: Species H            21.43410000        8.36381000       14.50850000
  |   96: Species H            21.29850000        6.71440000       14.69720000

  Lattice parameters for 3D lattice (in Angstroms) :    10.116000   10.116000   10.116000
  Angle(s) between unit vectors (in degrees)       :    90.000000   90.000000   90.000000


  Quantities derived from the lattice vectors (in Angstrom^-1):
  | Reciprocal lattice vector 1:  0.621114  0.000000  0.000000
  | Reciprocal lattice vector 2:  0.000000  0.621114  0.000000
  | Reciprocal lattice vector 3:  0.000000  0.000000  0.621114
  | Unit cell volume                               :   0.103521E+04  Angstrom^3

  Fractional coordinates:
                         L1                L2                L3
       atom_frac         0.35354784        3.13021945        0.82179715  O
       atom_frac         0.33877620        3.22276592        0.89573745  H
       atom_frac         0.28081752        3.13636813        0.75884737  H
       atom_frac         1.54767695        2.21931594       -1.34280348  O
       atom_frac         1.49296164        2.16880190       -1.26539146  H
       atom_frac         1.50958877        2.23169237       -1.42747133  H
       atom_frac         1.11492685       -1.44699486       -0.05387505  O
       atom_frac         1.21049822       -1.47385330       -0.03354270  H
       atom_frac         1.08904705       -1.43540925        0.03927570  H
       atom_frac        -0.34816627        1.06527284        0.29745453  O
       atom_frac        -0.36061684        1.03102017        0.20314947  H
       atom_frac        -0.43795374        1.06553974        0.31131079  H
       atom_frac        -2.92439699        2.35666271        2.25667260  O
       atom_frac        -2.87254844        2.30524911        2.21848557  H
       atom_frac        -2.98657572        2.30356860        2.26372084  H
       atom_frac         0.29941479       -1.08296758        0.49412614  O
       atom_frac         0.31622183       -1.00642546        0.40548932  H
       atom_frac         0.36254251       -1.06014235        0.55267299  H
       atom_frac        -1.03768288        0.58054567       -0.81695631  O
       atom_frac        -0.99619415        0.52222123       -0.75491894  H
       atom_frac        -1.03738632        0.65177639       -0.75602017  H
       atom_frac         0.98084124        1.58125741       -0.31609134  O
       atom_frac         0.94044978        1.66341439       -0.29688217  H
       atom_frac         1.04052985        1.56963227       -0.24486457  H
       atom_frac         1.57475287        1.06225781        0.00278203  O
       atom_frac         1.64347568        1.12457493       -0.01400455  H
       atom_frac         1.47936932        1.07372479       -0.04613177  H
       atom_frac        -2.36622183        2.76929616        0.30590451  O
       atom_frac        -2.37347766        2.80096876        0.20296560  H
       atom_frac        -2.32874654        2.83763345        0.34383057  H
       atom_frac        -1.65782918        0.74929814       -0.74565737  O
       atom_frac        -1.57175761        0.78040036       -0.71960953  H
       atom_frac        -1.67969553        0.70935548       -0.67559114  H
       atom_frac         1.19714314       -1.94842823        0.09830160  O
       atom_frac         1.21644919       -2.01862396        0.04358314  H
       atom_frac         1.21170423       -1.86716093        0.04311250  H
       atom_frac         0.25281534       -0.69023725       -0.00923408  O
       atom_frac         0.18373171       -0.64155299       -0.05660706  H
       atom_frac         0.29684361       -0.62853005        0.05941588  H
       atom_frac         1.38042705       -0.92746738       -0.70343614  O
       atom_frac         1.31330565       -0.95295275       -0.77808521  H
       atom_frac         1.37380388       -0.82990807       -0.66082938  H
       atom_frac        -3.08187030        0.29990312        0.77672499  O
       atom_frac        -3.10005931        0.36985469        0.71412317  H
       atom_frac        -3.14436536        0.30324239        0.84956603  H
       atom_frac         0.39745947       -1.67901344        0.41655496  O
       atom_frac         0.34748913       -1.59989126        0.43854686  H
       atom_frac         0.47302293       -1.61492685        0.39069790  H
       atom_frac         1.60316331       -0.49064650        2.43036773  O
       atom_frac         1.61775405       -0.40028371        2.39858640  H
       atom_frac         1.57240016       -0.48196026        2.52401147  H
       atom_frac        -0.20183669        0.78285587        1.73867141  O
       atom_frac        -0.24323250        0.72432582        1.79732108  H
       atom_frac        -0.19399565        0.87867438        1.75849150  H
       atom_frac         0.34719355        1.52213325        2.09963424  O
       atom_frac         0.35421313        1.60875840        2.16982997  H
       atom_frac         0.44065836        1.53146501        2.05305457  H
       atom_frac         0.14042112       -1.84276394        0.63919138  O
       atom_frac         0.14025900       -1.80847173        0.54284302  H
       atom_frac         0.05533917       -1.81465994        0.67135034  H
       atom_frac        -0.41571273        1.60183867       -0.03834648  O
       atom_frac        -0.35783511        1.54991103        0.01487030  H
       atom_frac        -0.39966588        1.69154804        0.00517892  H
       atom_frac        -0.10753460       -0.80478450        0.35897885  O
       atom_frac        -0.11098754       -0.74569988        0.43563365  H
       atom_frac        -0.19978153       -0.83167359        0.32763839  H
       atom_frac        -0.27238533        4.47482206        0.14454033  O
       atom_frac        -0.18575820        4.51371095        0.16045571  H
       atom_frac        -0.29765421        4.46926651        0.22496837  H
       atom_frac         3.69584816       -4.16670621        0.05228341  O
       atom_frac         3.67090747       -4.06589561        0.01795631  H
       atom_frac         3.79132068       -4.16798142        0.08761091  H
       atom_frac        -0.38749605       -0.52160538       -1.28135627  O
       atom_frac        -0.41302590       -0.61324338       -1.27973507  H
       atom_frac        -0.40934757       -0.49112792       -1.19763741  H
       atom_frac         1.79027284        0.22456999       -0.99476078  O
       atom_frac         1.85490312        0.16572657       -0.94856366  H
       atom_frac         1.78712930        0.31329873       -0.95290431  H
       atom_frac         1.16849545        1.46534203        0.50345097  O
       atom_frac         1.11286081        1.49239818        0.56175761  H
       atom_frac         1.12997232        1.44119217        0.42522242  H
       atom_frac        -0.06076423        3.00937129        0.06624970  O
       atom_frac         0.02342843        3.00584223        0.10684065  H
       atom_frac        -0.04917527        2.96602412       -0.00830753  H
       atom_frac         1.93585409       -0.97215204        2.79700474  O
       atom_frac         1.91796164       -0.87756722        2.80303480  H
       atom_frac         2.01265322       -0.98790530        2.73380783  H
       atom_frac         0.85765421        1.42239027        3.50202649  O
       atom_frac         0.77149862        1.45041518        3.49177541  H
       atom_frac         0.90043199        1.49711348        3.56230724  H
       atom_frac        -0.45072361       -0.06388602       -0.37882760  O
       atom_frac        -0.40178134        0.02571550       -0.36958482  H
       atom_frac        -0.37833630       -0.12751186       -0.35069098  H
       atom_frac         2.07179715        0.73905002        1.42420917  O
       atom_frac         2.11883155        0.82679023        1.43421313  H
       atom_frac         2.10542705        0.66374061        1.45286675  H

 
  Finished reading input file 'geometry.in'.
 

 
  Consistency checks for stacksize environment parameter are next.
 
  | Maximum stacksize for task 0: unlimited
  | Maximum stacksize for task 1: unlimited
  | Maximum stacksize for task 2: unlimited
  | Maximum stacksize for task 3: unlimited
  | Maximum stacksize for task 4: unlimited
  | Maximum stacksize for task 5: unlimited
  | Maximum stacksize for task 6: unlimited
  | Maximum stacksize for task 7: unlimited
  | Maximum stacksize for task 8: unlimited
  | Maximum stacksize for task 9: unlimited
  | Maximum stacksize for task 10: unlimited
  | Maximum stacksize for task 11: unlimited
  | Maximum stacksize for task 12: unlimited
  | Maximum stacksize for task 13: unlimited
  | Maximum stacksize for task 14: unlimited
  | Maximum stacksize for task 15: unlimited
  | Maximum stacksize for task 16: unlimited
  | Maximum stacksize for task 17: unlimited
  | Current stacksize for task 0: unlimited
  | Current stacksize for task 1: unlimited
  | Current stacksize for task 2: unlimited
  | Current stacksize for task 3: unlimited
  | Current stacksize for task 4: unlimited
  | Current stacksize for task 5: unlimited
  | Current stacksize for task 6: unlimited
  | Current stacksize for task 7: unlimited
  | Current stacksize for task 8: unlimited
  | Current stacksize for task 9: unlimited
  | Current stacksize for task 10: unlimited
  | Current stacksize for task 11: unlimited
  | Current stacksize for task 12: unlimited
  | Current stacksize for task 13: unlimited
  | Current stacksize for task 14: unlimited
  | Current stacksize for task 15: unlimited
  | Current stacksize for task 16: unlimited
  | Current stacksize for task 17: unlimited
 
  Consistency checks for the contents of control.in are next.
 
  MPI_IN_PLACE appears to work with this MPI implementation.
  | Keeping use_mpi_in_place .true. (see manual).
  Explicit treatment of the Coulomb operator is needed, but the RI method is not specified.
  Coulomb operator: Defaulting to 'LVL fast' resolution of identity - RI_type = LVL_fast
  Species H: Using default value for prodbas_acc =   1.000000E-06.
  Species H: Using default value max_l_prodbas =     6.
  Species O: Using default value for prodbas_acc =   1.000000E-06.
  Species O: Using default value max_l_prodbas =     6.
  Target number of points in a grid batch is not set.  Since GPU acceleration is enabled, defaulting to  200
  Method for grid partitioning is not set. Defaulting to parallel hash+maxmin partitioning.
  Batch size limit is not set. Defaulting to    200
  By default, will store active basis functions for each batch.
  If in need of memory, prune_basis_once .false. can be used to disable this option.
  communication_type for Hartree potential was not specified.
  Defaulting to calc_hartree .
  Defaulting to Pulay charge density mixer.
  Pulay mixer: Number of relevant iterations not set.
  Defaulting to    8 iterations.
  Pulay mixer: Number of initial linear mixing iterations not set.
  Defaulting to    0 iterations.
  Work space size for distributed Hartree potential not set.
  Defaulting to   0.200000E+03 MB.
  Mixing parameter for charge density mixing has not been set.
  Using default: charge_mix_param =     0.0500.
  The mixing parameter will be adjusted in iteration number     2 of the first full s.c.f. cycle only.
  Algorithm-dependent basis array size parameters:
  | n_max_pulay                         :        8
  Maximum number of self-consistency iterations not provided.
  Presetting  1000 iterations.
  Presetting      1001 iterations before the initial mixing cycle
  is restarted anyway using the sc_init_iter criterion / keyword.
  Presetting a factor      1.000 between actual scf density residual
  and density convergence criterion sc_accuracy_rho below which sc_init_iter
  takes no effect.
  Calculation of forces was not defined in control.in. No forces will be calculated.
  Geometry relaxation not requested: no relaxation will be performed.
  No accuracy limit for integral partition fn. given. Defaulting to  0.1000E-14.
  No occupation type (smearing scheme) given. Defaulting to Gaussian broadening, width =  0.1000E-01 eV.
  The width will be adjusted in iteration number     2 of the first full s.c.f. cycle only.
  S.C.F. convergence parameters will be adjusted in iteration number     2 of the first full s.c.f. cycle only.
  No accuracy for occupation numbers given. Defaulting to  0.1000E-12.
  No threshold value for occupation numbers given. Defaulting to  0.0000E+00.
  No accuracy for fermi level given. Defaulting to  0.1000E-19.
  Maximum # of iterations to find E_F not set. Defaulting to  200.
  Preferred method for the eigenvalue solver ('KS_method') not specified in 'control.in'.
  Calling BLACS routine to test compilation state
  Since ScaLAPACK support is enabled, defaulting to ELPA (via ELSI).
  Will not use alltoall communication since running on < 1024 CPUs.
  Threshold for basis singularities not set.
  Default threshold for basis singularities:  0.1000E-04
  partition_type (choice of integration weights) for integrals was not specified.
  | Using a version of the partition function of Stratmann and coworkers ('stratmann_sparse').
  | At each grid point, the set of atoms used to build the partition table is smoothly restricted to
  | only those atoms whose free-atom density would be non-zero at that grid point.
  Partitioning for Hartree potential was not defined. Using partition_type for integrals.
  | Adjusted default value of keyword multip_moments_threshold to:       0.10000000E-11
  | This value may affect high angular momentum components of the Hartree potential in periodic systems.
  Angular momentum expansion for Kerker preconditioner not set explicitly.
  | Using default value of   0
  No explicit requirement for turning off preconditioner.
  | By default, it will be turned off when the charge convergence reaches
  | sc_accuracy_rho  =   0.100000E-05
  No special mixing parameter while Kerker preconditioner is on.
  Using default: charge_mix_param =     0.0500.
  Threshold for auxiliary basis singularities not set.
  Default threshold for auxiliary basis singularities:  0.1000E-04
  No q(lm)/r^(l+1) cutoff set for long-range Hartree potential.
  | Using default value of  0.100000E-09 .
  | Verify using the multipole_threshold keyword.
  Defaulting to new monopole extrapolation.
  Density update method: automatic selection selected.
  Using density matrix based charge density update.
  Using density matrix based charge density update.
  Using packed matrix style: index .
  Defaulting to use time-reversal symmetry for k-point grid.
  Charge integration errors on the 3D integration grid will be compensated
  by explicit normalization and distribution of residual charges.
  Use the "compensate_multipole_errors" flag to change this behaviour.
  Default to 1D ("use_logsbt") integrations for auxiliary 2-center integrals.
  Default onset of logarithmic r-grid for SBT is -38.000000000000
  Default onset of logarithmic k-grid for SBT is -25.000000000000
  Default range of logarithmic r- and k-grid for SBT is  45.000000000000
  Default number of logarithmic r- and k-grid for SBT is   4096
  Default of use_2d_corr is to use the efficient 2D distribution where possible
 
  Consistency checks for the contents of geometry.in are next.
 

  Range separation radius for Ewald summation (hartree_convergence_parameter):      3.06868581 bohr.
  Number of empty states per atom not set in control.in .
  | Since you are using a method that relies on the unoccupied spectrum
  | (MP2,GW,RPA et al.), will use the full Hamiltonian size (see below)
  | as the max. possible number of states (occupied plus empty).

  Structure-dependent array size parameters: 
  | Maximum number of distinct radial functions  :        9
  | Maximum number of basis functions            :      768
  | Number of Kohn-Sham states (occupied + empty):      768
------------------------------------------------------------

  Performing system and environment tests:
  | Environment variable OMP_NUM_THREADS correctly set to 1.
  | Checking for ScaLAPACK...
  | Testing pdtran()...
  | All pdtran() tests passed.
CUDA runtime version: 11060
CUDA driver version: 11060
  Initializing GPUs...

  Number of GPUs available to MPI task         0 :   1
  Number of GPUs available to MPI task         1 :   1
  Number of GPUs available to MPI task         2 :   1
  Number of GPUs available to MPI task         3 :   1
  Number of GPUs available to MPI task         4 :   1
  Number of GPUs available to MPI task         5 :   1
  Number of GPUs available to MPI task         6 :   1
  Number of GPUs available to MPI task         7 :   1
  Number of GPUs available to MPI task         8 :   1
  Number of GPUs available to MPI task         9 :   1
  Number of GPUs available to MPI task        10 :   1
  Number of GPUs available to MPI task        11 :   1
  Number of GPUs available to MPI task        12 :   1
  Number of GPUs available to MPI task        13 :   1
  Number of GPUs available to MPI task        14 :   1
  Number of GPUs available to MPI task        15 :   1
  Number of GPUs available to MPI task        16 :   1
  Number of GPUs available to MPI task        17 :   1

  | MPI task         0, GPU activated = T, Device Name = NVIDIA A100-SXM4-80GB
  | MPI task         1, GPU activated = T, Device Name = NVIDIA A100-SXM4-80GB
  | MPI task         2, GPU activated = T, Device Name = NVIDIA A100-SXM4-80GB
  | MPI task         3, GPU activated = T, Device Name = NVIDIA A100-SXM4-80GB
  | MPI task         4, GPU activated = T, Device Name = NVIDIA A100-SXM4-80GB
  | MPI task         5, GPU activated = T, Device Name = NVIDIA A100-SXM4-80GB
  | MPI task         6, GPU activated = T, Device Name = NVIDIA A100-SXM4-80GB
  | MPI task         7, GPU activated = T, Device Name = NVIDIA A100-SXM4-80GB
  | MPI task         8, GPU activated = T, Device Name = NVIDIA A100-SXM4-80GB
  | MPI task         9, GPU activated = T, Device Name = NVIDIA A100-SXM4-80GB
  | MPI task        10, GPU activated = T, Device Name = NVIDIA A100-SXM4-80GB
  | MPI task        11, GPU activated = T, Device Name = NVIDIA A100-SXM4-80GB
  | MPI task        12, GPU activated = T, Device Name = NVIDIA A100-SXM4-80GB
  | MPI task        13, GPU activated = T, Device Name = NVIDIA A100-SXM4-80GB
  | MPI task        14, GPU activated = T, Device Name = NVIDIA A100-SXM4-80GB
  | MPI task        15, GPU activated = T, Device Name = NVIDIA A100-SXM4-80GB
  | MPI task        16, GPU activated = T, Device Name = NVIDIA A100-SXM4-80GB
  | MPI task        17, GPU activated = T, Device Name = NVIDIA A100-SXM4-80GB

------------------------------------------------------------
          Preparing all fixed parts of the calculation.
------------------------------------------------------------
  Determining machine precision:
    2.225073858507201E-308
  Setting up grids for atomic and cluster calculations.

  Creating wave function, potential, and density for free atoms.
  Runtime choices for atomic solver:
  | atomic solver xc        : PW-LDA
  | compute density gradient: 0
  | compute kinetic density : F

  Species: H

  List of occupied orbitals and eigenvalues:
    n    l              occ      energy [Ha]    energy [eV]
    1    0           1.0000        -0.232375        -6.3233


  Species: O

  List of occupied orbitals and eigenvalues:
    n    l              occ      energy [Ha]    energy [eV]
    1    0           2.0000       -18.757744      -510.4242
    2    0           2.0000        -0.870917       -23.6989
    2    1           4.0000        -0.337950        -9.1961


  Adding cutoff potential to free-atom effective potential.
  Creating fixed part of basis set: Ionic, confined, hydrogenic.
 
  H                    hydrogenic:
 
  List of hydrogenic basis orbitals: 
    n    l      effective z      eigenvalue [eV]  inner max. [A]     outer max. [A]     outer radius [A]   
    2    0         2.100000       -14.9728           0.193243           1.317208           4.696947
    2    1         3.500000       -41.6669           0.602369           0.602369           3.862494
 
 
  O                    hydrogenic:
 
  List of hydrogenic basis orbitals: 
    n    l      effective z      eigenvalue [eV]  inner max. [A]     outer max. [A]     outer radius [A]   
    2    1         1.800000       -10.9749           1.164242           1.164242           4.691341
    3    2         7.600000       -87.3180           0.624125           0.624125           3.413946
    3    0         6.400000       -61.9207           0.061167           1.081902           4.151495
 
  Creating atomic-like basis functions for current effective potential.

  Species H                   :

  List of atomic basis orbitals and eigenvalues:
    n    l      energy [Ha]    energy [eV]    outer radius [A]
    1    0        -0.232375        -6.3233       4.696947


  Species O                   :

  List of atomic basis orbitals and eigenvalues:
    n    l      energy [Ha]    energy [eV]    outer radius [A]
    1    0       -18.757744      -510.4242       1.830144
    2    0        -0.870917       -23.6989       4.578029
    2    1        -0.337950        -9.1961       4.634338

  Assembling full basis from fixed parts.
  | Species H :   atomic orbital   1 s accepted.
  | Species H :    hydro orbital   2 s accepted.
  | Species H :    hydro orbital   2 p accepted.
  | Species O :   atomic orbital   1 s accepted.
  | Species O :    hydro orbital   3 s accepted.
  | Species O :   atomic orbital   2 s accepted.
  | Species O :   atomic orbital   2 p accepted.
  | Species O :    hydro orbital   2 p accepted.
  | Species O :    hydro orbital   3 d accepted.
 
  Basis size parameters after reduction:
  | Total number of radial functions:        9
  | Total number of basis functions :      768
 
  Per-task memory consumption for arrays in subroutine allocate_ext:
  |           2.268304MB.
  Testing on-site integration grid accuracy.
  |  Species  Function  <phi|h_atom|phi> (log., in eV)  <phi|h_atom|phi> (rad., in eV)
           1        1                 -6.3245358373                 -6.3232436907
           1        2                 14.1326137532                 14.1384481100
           1        3                 25.3627025200                 25.3628451197
           2        4               -510.4241781764               -510.4240769407
           2        5                 14.9072942213                 14.9072945271
           2        6                -21.2004736474                -21.2005650551
           2        7                 -9.1962086505                 -9.1963509834
           2        8                  8.1896755006                  8.1702200081
           2        9                 45.7920584937                 45.7920228520

  Preparing densities etc. for the partition functions (integrals / Hartree potential).

  Preparations completed.
  max(cpu_time)          :      0.081 s.
  Wall clock time (cpu1) :      0.075 s.
------------------------------------------------------------

  Initializing index lists of integration centers etc. from given atomic structure:
  Mapping all atomic coordinates to central unit cell.

  Initializing the k-points
  Using symmetry for reducing the k-points
  | k-points reduced from:        1 to        1
  | Number of k-points                             :         1
  | Consuming          0 KiB for k_phase_exx.
  The eigenvectors in the calculations are REAL.
  | Number of basis functions in the Hamiltonian integrals :      4230
  | Number of basis functions in a single unit cell        :       768
  | Number of centers in hartree potential         :      2602
  | Number of centers in hartree multipole         :      1852
  | Number of centers in electron density summation:      1429
  | Number of centers in basis integrals           :      1493
  | Number of centers in integrals                 :       676
  | Number of centers in hamiltonian               :      1430
  | Consuming          0 KiB for k_phase.
  | Number of super-cells (origin) [n_cells]                     :         125
  | Number of super-cells (after PM_index) [n_cells]             :          28
  | Number of super-cells in hamiltonian [n_cells_in_hamiltonian]:          28
  | Size of matrix packed + index [n_hamiltonian_matrix_size] :      735032
  | Size of matrix packed + index (no_symmetry):     1469295

------------------------------------------------------------
          Begin self-consistency loop: Initialization.

          Date     :  20230221, Time     :  131705.492
------------------------------------------------------------
  | Estimated reciprocal-space cutoff momentum G_max:         3.07655544 bohr^-1 .
  | Reciprocal lattice points for long-range Hartree potential:    3406
  Using simple linear distribution as default method for k-point parallelism.
  * Using 18 tasks for Scalapack Eigenvalue solver.
  Detailed listing of tasks and assigned k-points:
   Task     0 k-point     1 on adag039
   Task     1 k-point     1 on adag039
   Task     2 k-point     1 on adag039
   Task     3 k-point     1 on adag039
   Task     4 k-point     1 on adag039
   Task     5 k-point     1 on adag039
   Task     6 k-point     1 on adag039
   Task     7 k-point     1 on adag039
   Task     8 k-point     1 on adag039
   Task     9 k-point     1 on adag039
   Task    10 k-point     1 on adag039
   Task    11 k-point     1 on adag039
   Task    12 k-point     1 on adag039
   Task    13 k-point     1 on adag039
   Task    14 k-point     1 on adag039
   Task    15 k-point     1 on adag039
   Task    16 k-point     1 on adag039
   Task    17 k-point     1 on adag039
  K-point:     1 Tasks:    18 split into      6 X      3 BLACS grid
  Calculating block size based on n_basis =          768  max_nprow =            6  max_npcol =            3
  ScaLAPACK block size set to:           16
  Allocating        0.250 MB for ovlp
  Allocating        0.250 MB for ham
  Allocating        0.250 MB for eigenvec
  Required Scalapack workspace - INTEGER:            1  REAL:             1
  Partitioning the integration grid into batches with parallel hashing+maxmin method.
  | Number of batches:     4086
  | Maximal batch size:     200
  | Minimal batch size:      99
  | Average batch size:     124.711
  | Standard deviation of batch sizes:      25.695

  Integration load balanced across    18 MPI tasks.
  Work distribution over tasks is as follows:
  Task     0 has      28282 integration points.
  Task     1 has      28335 integration points.
  Task     2 has      28294 integration points.
  Task     3 has      28304 integration points.
  Task     4 has      28253 integration points.
  Task     5 has      28376 integration points.
  Task     6 has      28376 integration points.
  Task     7 has      28337 integration points.
  Task     8 has      28307 integration points.
  Task     9 has      28264 integration points.
  Task    10 has      28386 integration points.
  Task    11 has      28246 integration points.
  Task    12 has      28266 integration points.
  Task    13 has      28355 integration points.
  Task    14 has      28356 integration points.
  Task    15 has      28257 integration points.
  Task    16 has      28281 integration points.
  Task    17 has      28293 integration points.
  Initializing partition tables, free-atom densities, potentials, etc. across the integration grid (initialize_grid_storage).
  | initialize_grid_storage: Actual outermost partition radius vs. multipole_radius_free
  | (-- VB: in principle, multipole_radius_free should be larger, hence this output)
  | Species        1: Confinement radius =              4.999999999999999 AA, multipole_radius_free =              5.054417573612229 AA.
  | Species        1: outer_partition_radius set to              5.054417573612229 AA .
  | Species        2: Confinement radius =              4.999999999999999 AA, multipole_radius_free =              5.048384829883283 AA.
  | Species        2: outer_partition_radius set to              5.048384829883283 AA .
  | The sparse table of interatomic distances needs       4555.80 kbyte instead of     17832.39 kbyte of memory.
  | Net number of integration points:   509568
  | of which are non-zero points    :   408986
  | Numerical average free-atom electrostatic potential    :     -5.03407477 eV
  Renormalizing the initial density to the exact electron count on the 3D integration grid.
  | Initial density: Formal number of electrons (from input files) :     320.0000000000
  | Integrated number of electrons on 3D grid     :     319.9990095338
  | Charge integration error                      :      -0.0009904662
  | Normalization factor for density and gradient :       1.0000030952
  Renormalizing the free-atom superposition density to the exact electron count on the 3D integration grid.
  | Formal number of electrons (from input files) :     320.0000000000
  | Integrated number of electrons on 3D grid     :     319.9990095338
  | Charge integration error                      :      -0.0009904662
  | Normalization factor for density and gradient :       1.0000030952
  Obtaining max. number of non-zero basis functions in each batch (get_n_compute_maxes).
  | Maximal number of non-zero basis functions:      406 in task     0
  | Maximal number of non-zero basis functions:      396 in task     1
  | Maximal number of non-zero basis functions:      394 in task     2
  | Maximal number of non-zero basis functions:      406 in task     3
  | Maximal number of non-zero basis functions:      394 in task     4
  | Maximal number of non-zero basis functions:      418 in task     5
  | Maximal number of non-zero basis functions:      410 in task     6
  | Maximal number of non-zero basis functions:      399 in task     7
  | Maximal number of non-zero basis functions:      403 in task     8
  | Maximal number of non-zero basis functions:      438 in task     9
  | Maximal number of non-zero basis functions:      410 in task    10
  | Maximal number of non-zero basis functions:      422 in task    11
  | Maximal number of non-zero basis functions:      402 in task    12
  | Maximal number of non-zero basis functions:      418 in task    13
  | Maximal number of non-zero basis functions:      441 in task    14
  | Maximal number of non-zero basis functions:      401 in task    15
  | Maximal number of non-zero basis functions:      414 in task    16
  | Maximal number of non-zero basis functions:      415 in task    17
  Integrating Hamiltonian matrix: batch-based integration.
  GPU acceleration will be used when integrating the Hamiltonian matrix.
  Reporting GPU memory usage by myid 0.  Note that it is likely not the only MPI task binding to its GPU!
  Allocating        1.319 MB on GPU for hamiltonian_shell
  Allocating        0.650 MB on GPU for wave
  Allocating        0.002 MB on GPU for partition
  Allocating        0.650 MB on GPU for h_times_psi
  Time summed over all CPUs for integration: real work       14.614 s, elapsed       15.223 s
  Deallocating memory used on GPU for Hamiltonian integration.
  Integrating overlap matrix.
  Time summed over all CPUs for integration: real work       11.366 s, elapsed       11.565 s
  Deallocating overlap matrix.

  Updating Kohn-Sham eigenvalues and eigenvectors using ELSI and the ELPA eigensolver.
  Singularity check in k-point 1 (analysis for other k-points may follow below):
  Overlap matrix is not singular
  | Lowest and highest eigenvalues :  0.1818E-02,  0.7112E+01
  Finished singularity check of overlap matrix
  | Time :     0.176 s
  Starting ELPA eigensolver (GPU)
  Finished Cholesky decomposition
  | Time :     0.009 s
  Finished transformation to standard eigenproblem
  | Time :     0.038 s
  Finished solving standard eigenproblem
  | Time :     0.249 s
  Finished back-transformation of eigenvectors
  | Time :     0.023 s

  Obtaining occupation numbers and electronic chemical potential using ELSI.
  | Note that, for insulating systems, the printed 'chemical potential' value is not uniquely defined.
  | It can be anywhere in the energy gap, as long as it correctly separates occupied and unoccupied states.
  | In systems with a gap, the physically relevant chemical potential is the VBM or HOMO.

  | Chemical potential (Fermi level):    -8.09388777 eV
  Writing Kohn-Sham eigenvalues.

  State    Occupation    Eigenvalue [Ha]    Eigenvalue [eV]
      1       2.00000         -18.949740         -515.64867
      2       2.00000         -18.912763         -514.64247
      3       2.00000         -18.909164         -514.54452
      4       2.00000         -18.904048         -514.40532
      5       2.00000         -18.900472         -514.30802
      6       2.00000         -18.885639         -513.90438
      7       2.00000         -18.883502         -513.84624
      8       2.00000         -18.883438         -513.84449
      9       2.00000         -18.881900         -513.80264
     10       2.00000         -18.880816         -513.77314
     11       2.00000         -18.875551         -513.62988
     12       2.00000         -18.874946         -513.61340
     13       2.00000         -18.874286         -513.59546
     14       2.00000         -18.873765         -513.58127
     15       2.00000         -18.868393         -513.43510
     16       2.00000         -18.867484         -513.41037
     17       2.00000         -18.866365         -513.37990
     18       2.00000         -18.865321         -513.35151
     19       2.00000         -18.864493         -513.32897
     20       2.00000         -18.862275         -513.26860
     21       2.00000         -18.862121         -513.26442
     22       2.00000         -18.861774         -513.25498
     23       2.00000         -18.859946         -513.20525
     24       2.00000         -18.859472         -513.19235
     25       2.00000         -18.858802         -513.17412
     26       2.00000         -18.858537         -513.16691
     27       2.00000         -18.855697         -513.08961
     28       2.00000         -18.850260         -512.94166
     29       2.00000         -18.848310         -512.88860
     30       2.00000         -18.844134         -512.77499
     31       2.00000         -18.842467         -512.72962
     32       2.00000         -18.836136         -512.55735
     33       2.00000          -1.232071          -33.52635
     34       2.00000          -1.166920          -31.75352
     35       2.00000          -1.162226          -31.62579
     36       2.00000          -1.160417          -31.57654
     37       2.00000          -1.150716          -31.31258
     38       2.00000          -1.127119          -30.67047
     39       2.00000          -1.124449          -30.59780
     40       2.00000          -1.119948          -30.47533
     41       2.00000          -1.116522          -30.38211
     42       2.00000          -1.114976          -30.34003
     43       2.00000          -1.111028          -30.23262
     44       2.00000          -1.109107          -30.18032
     45       2.00000          -1.104332          -30.05041
     46       2.00000          -1.099902          -29.92986
     47       2.00000          -1.098184          -29.88311
     48       2.00000          -1.097281          -29.85853
     49       2.00000          -1.094497          -29.78278
     50       2.00000          -1.093695          -29.76096
     51       2.00000          -1.087858          -29.60211
     52       2.00000          -1.085666          -29.54247
     53       2.00000          -1.085260          -29.53143
     54       2.00000          -1.079491          -29.37444
     55       2.00000          -1.079269          -29.36840
     56       2.00000          -1.078133          -29.33749
     57       2.00000          -1.075414          -29.26350
     58       2.00000          -1.075128          -29.25571
     59       2.00000          -1.072951          -29.19648
     60       2.00000          -1.062133          -28.90210
     61       2.00000          -1.051955          -28.62515
     62       2.00000          -1.048099          -28.52023
     63       2.00000          -1.046642          -28.48057
     64       2.00000          -1.036038          -28.19203
     65       2.00000          -0.736216          -20.03345
     66       2.00000          -0.725053          -19.72970
     67       2.00000          -0.686269          -18.67433
     68       2.00000          -0.685609          -18.65636
     69       2.00000          -0.683659          -18.60332
     70       2.00000          -0.679974          -18.50302
     71       2.00000          -0.676228          -18.40110
     72       2.00000          -0.666045          -18.12400
     73       2.00000          -0.664261          -18.07546
     74       2.00000          -0.661175          -17.99148
     75       2.00000          -0.656373          -17.86082
     76       2.00000          -0.651533          -17.72913
     77       2.00000          -0.647817          -17.62800
     78       2.00000          -0.645963          -17.57755
     79       2.00000          -0.644095          -17.52671
     80       2.00000          -0.642068          -17.47157
     81       2.00000          -0.641464          -17.45511
     82       2.00000          -0.640775          -17.43637
     83       2.00000          -0.639008          -17.38831
     84       2.00000          -0.635418          -17.29060
     85       2.00000          -0.633844          -17.24777
     86       2.00000          -0.632490          -17.21092
     87       2.00000          -0.629572          -17.13153
     88       2.00000          -0.625215          -17.01298
     89       2.00000          -0.616623          -16.77917
     90       2.00000          -0.614847          -16.73083
     91       2.00000          -0.610673          -16.61727
     92       2.00000          -0.606532          -16.50456
     93       2.00000          -0.600964          -16.35307
     94       2.00000          -0.599676          -16.31802
     95       2.00000          -0.594680          -16.18207
     96       2.00000          -0.592145          -16.11310
     97       2.00000          -0.586789          -15.96735
     98       2.00000          -0.574231          -15.62561
     99       2.00000          -0.564964          -15.37345
    100       2.00000          -0.562031          -15.29363
    101       2.00000          -0.559677          -15.22958
    102       2.00000          -0.556461          -15.14207
    103       2.00000          -0.553810          -15.06993
    104       2.00000          -0.552181          -15.02561
    105       2.00000          -0.549882          -14.96306
    106       2.00000          -0.542894          -14.77290
    107       2.00000          -0.540453          -14.70648
    108       2.00000          -0.539891          -14.69118
    109       2.00000          -0.534847          -14.55392
    110       2.00000          -0.533394          -14.51438
    111       2.00000          -0.531559          -14.46446
    112       2.00000          -0.529548          -14.40973
    113       2.00000          -0.527749          -14.36078
    114       2.00000          -0.521926          -14.20233
    115       2.00000          -0.518945          -14.12122
    116       2.00000          -0.517178          -14.07312
    117       2.00000          -0.514165          -13.99115
    118       2.00000          -0.512725          -13.95195
    119       2.00000          -0.512333          -13.94130
    120       2.00000          -0.511915          -13.92992
    121       2.00000          -0.509370          -13.86065
    122       2.00000          -0.505968          -13.76810
    123       2.00000          -0.501237          -13.63936
    124       2.00000          -0.498940          -13.57684
    125       2.00000          -0.498096          -13.55388
    126       2.00000          -0.494134          -13.44607
    127       2.00000          -0.488378          -13.28944
    128       2.00000          -0.486946          -13.25047
    129       2.00000          -0.484863          -13.19380
    130       2.00000          -0.481703          -13.10779
    131       2.00000          -0.479136          -13.03796
    132       2.00000          -0.477452          -12.99213
    133       2.00000          -0.473153          -12.87514
    134       2.00000          -0.470400          -12.80023
    135       2.00000          -0.469813          -12.78427
    136       2.00000          -0.463698          -12.61787
    137       2.00000          -0.462757          -12.59227
    138       2.00000          -0.460734          -12.53722
    139       2.00000          -0.459373          -12.50016
    140       2.00000          -0.458741          -12.48299
    141       2.00000          -0.457581          -12.45140
    142       2.00000          -0.457086          -12.43795
    143       2.00000          -0.455667          -12.39934
    144       2.00000          -0.455061          -12.38283
    145       2.00000          -0.453504          -12.34048
    146       2.00000          -0.453198          -12.33213
    147       2.00000          -0.451334          -12.28143
    148       2.00000          -0.449849          -12.24102
    149       2.00000          -0.447717          -12.18299
    150       2.00000          -0.446653          -12.15403
    151       2.00000          -0.445304          -12.11734
    152       2.00000          -0.444930          -12.10717
    153       2.00000          -0.443462          -12.06720
    154       2.00000          -0.442364          -12.03733
    155       2.00000          -0.440566          -11.98842
    156       2.00000          -0.437532          -11.90586
    157       2.00000          -0.435857          -11.86026
    158       2.00000          -0.431796          -11.74975
    159       2.00000          -0.430991          -11.72787
    160       2.00000          -0.428462          -11.65904
    161       0.00000          -0.170455           -4.63832
    162       0.00000          -0.115969           -3.15569
    163       0.00000          -0.113830           -3.09746
    164       0.00000          -0.109344           -2.97540
    165       0.00000          -0.106518           -2.89849
    166       0.00000          -0.100169           -2.72575
    167       0.00000          -0.092022           -2.50404
    168       0.00000          -0.071842           -1.95491
    169       0.00000          -0.067805           -1.84505
    170       0.00000          -0.062167           -1.69166
    171       0.00000          -0.059450           -1.61772
    172       0.00000          -0.059080           -1.60766
    173       0.00000          -0.054321           -1.47814
    174       0.00000          -0.050836           -1.38333
    175       0.00000          -0.047439           -1.29089
    176       0.00000          -0.040312           -1.09693
    177       0.00000          -0.036376           -0.98983
    178       0.00000          -0.030474           -0.82923
    179       0.00000          -0.023852           -0.64905
    180       0.00000          -0.014959           -0.40705
    181       0.00000          -0.010189           -0.27726
    182       0.00000          -0.006409           -0.17441
    183       0.00000          -0.002873           -0.07817
    184       0.00000           0.001177            0.03202
    185       0.00000           0.006788            0.18472
    186       0.00000           0.010908            0.29683
    187       0.00000           0.016414            0.44664
    188       0.00000           0.021793            0.59302
    189       0.00000           0.026459            0.72000
    190       0.00000           0.029425            0.80070
    191       0.00000           0.031745            0.86383
    192       0.00000           0.037010            1.00709
    193       0.00000           0.039831            1.08385
    194       0.00000           0.044696            1.21625
    195       0.00000           0.046232            1.25802
    196       0.00000           0.046833            1.27439
    197       0.00000           0.048827            1.32864
    198       0.00000           0.051416            1.39909
    199       0.00000           0.052857            1.43833
    200       0.00000           0.055064            1.49838
    201       0.00000           0.057413            1.56229
    202       0.00000           0.062579            1.70286
    203       0.00000           0.065671            1.78700
    204       0.00000           0.066611            1.81259
    205       0.00000           0.067951            1.84903
    206       0.00000           0.071109            1.93499
    207       0.00000           0.072080            1.96139
    208       0.00000           0.076041            2.06919
    209       0.00000           0.077909            2.12003
    210       0.00000           0.080349            2.18640
    211       0.00000           0.083579            2.27430
    212       0.00000           0.084306            2.29409
    213       0.00000           0.087204            2.37294
    214       0.00000           0.090295            2.45705
    215       0.00000           0.092653            2.52122
    216       0.00000           0.096504            2.62600
    217       0.00000           0.100629            2.73824
    218       0.00000           0.104603            2.84638
    219       0.00000           0.107444            2.92369
    220       0.00000           0.113728            3.09469
    221       0.00000           0.115874            3.15309
    222       0.00000           0.120719            3.28494
    223       0.00000           0.123846            3.37002
    224       0.00000           0.128324            3.49188
    225       0.00000           0.146240            3.97939
    226       0.00000           0.151448            4.12110
    227       0.00000           0.158218            4.30534
    228       0.00000           0.159499            4.34020
    229       0.00000           0.166324            4.52590
    230       0.00000           0.169021            4.59929
    231       0.00000           0.177905            4.84105
    232       0.00000           0.181385            4.93575
    233       0.00000           0.185359            5.04387
    234       0.00000           0.188167            5.12029
    235       0.00000           0.193100            5.25452
    236       0.00000           0.195477            5.31921
    237       0.00000           0.199474            5.42796
    238       0.00000           0.205221            5.58434
    239       0.00000           0.209383            5.69760
    240       0.00000           0.218959            5.95817
    241       0.00000           0.225401            6.13348
    242       0.00000           0.230689            6.27736
    243       0.00000           0.239271            6.51091
    244       0.00000           0.249752            6.79611
    245       0.00000           0.255453            6.95122
    246       0.00000           0.261054            7.10364
    247       0.00000           0.269331            7.32888
    248       0.00000           0.270099            7.34977
    249       0.00000           0.275852            7.50632
    250       0.00000           0.281161            7.65077
    251       0.00000           0.285458            7.76771
    252       0.00000           0.294199            8.00557
    253       0.00000           0.298623            8.12596
    254       0.00000           0.306027            8.32743
    255       0.00000           0.308558            8.39630
    256       0.00000           0.316325            8.60765
    257       0.00000           0.324442            8.82853
    258       0.00000           0.326795            8.89254
    259       0.00000           0.329071            8.95449
[...]
  |    H      0     4.527807 A      4.527807 A        1.268855E-16 a.u.
  |    H      0     4.527807 A      4.583499 A       -4.900954E-17 a.u.
  |    H      0     4.527807 A      4.583499 A        4.713786E-16 a.u.
  |    H      2     3.678162 A  2.180220E+05 A            0.556529 a.u.
  |    H      1     3.958095 A  1.721251E+08 A            0.841931 a.u.
  |    H      0     4.527807 A  3.866455E+16 A            0.581436 a.u.
  |    O      0     2.043000 A      2.043000 A       -1.436841E-16 a.u.
  |    O      3     3.498446 A      3.498446 A        3.043453E-17 a.u.
  |    O      3     3.498446 A      3.498446 A        1.541443E-16 a.u.
  |    O      0     3.905335 A      3.905335 A        2.173090E-16 a.u.
  |    O      0     3.905335 A      3.905335 A        7.213445E-17 a.u.
  |    O      0     4.101052 A      4.101052 A        2.361718E-16 a.u.
  |    O      1     4.101052 A      4.101052 A        3.235185E-17 a.u.
  |    O      0     4.359549 A      4.359549 A       -5.329475E-17 a.u.
  |    O      1     4.413171 A      4.413171 A        3.261883E-17 a.u.
  |    O      1     4.522403 A      4.522403 A        6.417997E-16 a.u.
  |    O      1     4.522403 A      4.522403 A        4.224783E-16 a.u.
  |    O      2     4.522403 A      4.522403 A       -4.387647E-16 a.u.
  |    O      0     4.522403 A      4.578029 A        2.602039E-16 a.u.
  |    O      0     4.578029 A      4.578029 A        1.226235E-16 a.u.
  |    O      1     4.578029 A      4.578029 A       -6.107316E-16 a.u.
  |    O      1     4.578029 A      4.578029 A       -2.224438E-16 a.u.
  |    O      2     4.578029 A      4.578029 A       -7.020279E-16 a.u.
  |    O      2     4.522403 A      4.578029 A        1.323470E-15 a.u.
  |    O      2     4.578029 A      4.578029 A        7.923696E-16 a.u.
  |    O      2     4.522403 A      4.578029 A       -9.951815E-16 a.u.
  |    O      0     4.578029 A      4.634338 A       -8.813582E-18 a.u.
  |    O      1     4.578029 A      4.634338 A       -3.325386E-17 a.u.
  |    O      1     4.634338 A      4.634338 A        9.588032E-16 a.u.
  |    O      2     4.578029 A      4.634338 A        1.064715E-17 a.u.
  |    O      2     4.578029 A      4.634338 A       -3.770343E-15 a.u.
  |    O      4     3.251020 A  1.511584E+03 A            1.513372 a.u.
  |    O      3     3.541477 A  1.434166E+04 A            4.293220 a.u.
  |    O      2     4.634338 A  5.584435E+05 A            9.352428 a.u.
  |    O      1     4.634338 A  2.821283E+08 A            2.261940 a.u.
  |    O      0     4.578029 A  4.264100E+16 A            0.641234 a.u.

  | Shrink_full_auxil_basis : there are       38  radial auxiliary wave functions
                            accepted and       5 rejected.
  | Shrink_full_auxil_basis : there are totally                4544 partial auxiliary wave functions.
 
  | Maximal number of product basis functions per thread :   256   256
 
  | Minimal total memory requirement for three-center overlap :      10.450 Gbs
  | Number of local auxiliary basis functions on task:      0   256
  | Number of local auxiliary basis functions on task:      1   256
  | Number of local auxiliary basis functions on task:      2   256
  | Number of local auxiliary basis functions on task:      3   256
  | Number of local auxiliary basis functions on task:      4   256
  | Number of local auxiliary basis functions on task:      5   256
  | Number of local auxiliary basis functions on task:      6   256
  | Number of local auxiliary basis functions on task:      7   256
  | Number of local auxiliary basis functions on task:      8   256
  | Number of local auxiliary basis functions on task:      9   256
  | Number of local auxiliary basis functions on task:     10   256
  | Number of local auxiliary basis functions on task:     11   256
  | Number of local auxiliary basis functions on task:     12   256
  | Number of local auxiliary basis functions on task:     13   256
  | Number of local auxiliary basis functions on task:     14   240
  | Number of local auxiliary basis functions on task:     15   240
  | Number of local auxiliary basis functions on task:     16   240
  | Number of local auxiliary basis functions on task:     17   240
  | 2D aux task distribution:      3 X      6
  | 2D block size (nb_aux_2d):     64
 
  Basis pair condensation :    295296  -->     215636
 
 --------------------------------------------
  Constructing auxiliary basis (full product) ...
 
  Product basis:
  | charge radius: extent of product basis function
  | field radius: extent of its Coulomb potential
  | Species   l  charge radius    field radius  multipol momen
  |    H      1     3.910002 A      3.910002 A       -2.487223E-16 a.u.
  |    H      1     3.958095 A      3.958095 A       -2.441841E-16 a.u.
  |    H      0     4.527807 A      4.527807 A        1.268855E-16 a.u.
  |    H      0     4.527807 A      4.583499 A       -4.900954E-17 a.u.
  |    H      0     4.527807 A      4.583499 A        4.713786E-16 a.u.
  |    H      2     3.678162 A  2.180220E+05 A            0.556529 a.u.
  |    H      1     3.958095 A  1.721251E+08 A            0.841931 a.u.
  |    H      0     4.527807 A  3.866455E+16 A            0.581436 a.u.
  |    O      0     2.043000 A      2.043000 A       -1.436841E-16 a.u.
  |    O      3     3.498446 A      3.498446 A        3.043453E-17 a.u.
  |    O      3     3.498446 A      3.498446 A        1.541443E-16 a.u.
  |    O      0     3.905335 A      3.905335 A        2.173090E-16 a.u.
  |    O      0     3.905335 A      3.905335 A        7.213445E-17 a.u.
  |    O      0     4.101052 A      4.101052 A        2.361718E-16 a.u.
  |    O      1     4.101052 A      4.101052 A        3.235185E-17 a.u.
  |    O      0     4.359549 A      4.359549 A       -5.329475E-17 a.u.
  |    O      1     4.413171 A      4.413171 A        3.261883E-17 a.u.
  |    O      1     4.522403 A      4.522403 A        6.417997E-16 a.u.
  |    O      1     4.522403 A      4.522403 A        4.224783E-16 a.u.
  |    O      2     4.522403 A      4.522403 A       -4.387647E-16 a.u.
  |    O      0     4.522403 A      4.578029 A        2.602039E-16 a.u.
  |    O      0     4.578029 A      4.578029 A        1.226235E-16 a.u.
  |    O      1     4.578029 A      4.578029 A       -6.107316E-16 a.u.
  |    O      1     4.578029 A      4.578029 A       -2.224438E-16 a.u.
  |    O      2     4.578029 A      4.578029 A       -7.020279E-16 a.u.
  |    O      2     4.522403 A      4.578029 A        1.323470E-15 a.u.
  |    O      2     4.578029 A      4.578029 A        7.923696E-16 a.u.
  |    O      2     4.522403 A      4.578029 A       -9.951815E-16 a.u.
  |    O      0     4.578029 A      4.634338 A       -8.813582E-18 a.u.
  |    O      1     4.578029 A      4.634338 A       -3.325386E-17 a.u.
  |    O      1     4.634338 A      4.634338 A        9.588032E-16 a.u.
  |    O      2     4.578029 A      4.634338 A        1.064715E-17 a.u.
  |    O      2     4.578029 A      4.634338 A       -3.770343E-15 a.u.
  |    O      4     3.251020 A  1.511584E+03 A            1.513372 a.u.
  |    O      3     3.541477 A  1.434166E+04 A            4.293220 a.u.
  |    O      2     4.634338 A  5.584435E+05 A            9.352428 a.u.
  |    O      1     4.634338 A  2.821283E+08 A            2.261940 a.u.
  |    O      0     4.578029 A  4.264100E+16 A            0.641234 a.u.

  | Shrink_full_auxil_basis : there are       38  radial auxiliary wave functions
                            accepted and       5 rejected.
  | Shrink_full_auxil_basis : there are totally                4544 partial auxiliary wave functions.
 
  | Maximal number of product basis functions per thread :   256   256
 
  | Minimal total memory requirement for three-center overlap :      10.450 Gbs
  | Number of local auxiliary basis functions on task:      0   256
  | Number of local auxiliary basis functions on task:      1   256
  | Number of local auxiliary basis functions on task:      2   256
  | Number of local auxiliary basis functions on task:      3   256
  | Number of local auxiliary basis functions on task:      4   256
  | Number of local auxiliary basis functions on task:      5   256
  | Number of local auxiliary basis functions on task:      6   256
  | Number of local auxiliary basis functions on task:      7   256
  | Number of local auxiliary basis functions on task:      8   256
  | Number of local auxiliary basis functions on task:      9   256
  | Number of local auxiliary basis functions on task:     10   256
  | Number of local auxiliary basis functions on task:     11   256
  | Number of local auxiliary basis functions on task:     12   256
  | Number of local auxiliary basis functions on task:     13   256
  | Number of local auxiliary basis functions on task:     14   240
  | Number of local auxiliary basis functions on task:     15   240
  | Number of local auxiliary basis functions on task:     16   240
  | Number of local auxiliary basis functions on task:     17   240
  | 2D aux task distribution:      3 X      6
  | 2D block size (nb_aux_2d):     64
 
  Basis pair condensation :    295296  -->     215636
dP_dE (Bohr^3) at every cycle:--->
 (341.067726910504,0.000000000000000E+000) (7.95676395265796,0.000000000000000E+000) (3.94578443826700,0.000000000000000E+000)
 (7.97876681033837,0.000000000000000E+000) (361.861401284160,0.000000000000000E+000) (9.66816858668174,0.000000000000000E+000)
 (3.94910361210243,0.000000000000000E+000) (9.66242005301006,0.000000000000000E+000) (340.705438374284,0.000000000000000E+000)
DFPT polarizability (Bohr^3)        xx        yy        zz        xy        xz        yz
  | Polarizability:--->                       341.067726911                  361.861401284                  340.705438374                    7.956763953                    3.945784438                    9.668168587

DFPT for dielectric_constant:--->  # PARSE DFPT_dielectric_tensor
               1.613518164509046             0.014312756178621             0.007097741108613
               0.014352335276240             1.650922163564259             0.017391258619498
               0.007103711692396             0.017380918063800             1.612866474008225

                                               :  max(cpu_time)    wall_clock(cpu1)
  | Time for  dielectric calculation            :        0.001 s           0.001 s
===========================================================================

------------------------------------------------------------------------------
  Final output of selected total energy values:

  The following output summarizes some interesting total energy values
  at the end of a run (AFTER all relaxation, molecular dynamics, etc.).

  | Total energy of the DFT / Hartree-Fock s.c.f. calculation      :         -66109.331247767 eV
  | Final zero-broadening corrected energy (caution - metals only) :         -66109.331247767 eV
  | For reference only, the value of 1 Hartree used in FHI-aims is :             27.211384500 eV
  | For reference only, the overall average (free atom contribution
  | + realspace contribution) of the electrostatic potential after
  | s.c.f. convergence is                                          :             -4.636447124 eV

  Before relying on these values, please be sure to understand exactly which
  total energy value is referred to by a given number. Different objects may
  all carry the same name 'total energy'. Definitions:

  Total energy of the DFT / Hartree-Fock s.c.f. calculation:
  | Note that this energy does not include ANY quantities calculated after the
  | s.c.f. cycle, in particular not ANY RPA, MP2, etc. many-body perturbation terms.

  Final zero-broadening corrected energy:
  | For metallic systems only, a broadening of the occupation numbers at the Fermi
  | level can be extrapolated back to zero broadening by an electron-gas inspired
  | formula. For all systems that are not real metals, this value can be
  | meaningless and should be avoided.

------------------------------------------------------------------------------
  Methods described in the following list of references were used in this FHI-aims run.
  If you publish the results, please make sure to cite these reference if they apply.
  FHI-aims is an academic code, and for our developers (often, Ph.D. students
  and postdocs), scientific credit in the community is essential.
  Thank you for helping us!

  For any use of FHI-aims, please cite:

    Volker Blum, Ralf Gehrke, Felix Hanke, Paula Havu, Ville Havu,
    Xinguo Ren, Karsten Reuter, and Matthias Scheffler
    'Ab initio molecular simulations with numeric atom-centered orbitals'
    Computer Physics Communications 180, 2175-2196 (2009)
    http://doi.org/10.1016/j.cpc.2009.06.022


  For Hartree-Fock, hybrid functionals, or many-body perturbation theory used in your run, please cite:

    Xinguo Ren, Patrick Rinke, Volker Blum, Juergen Wieferink, Alex Tkatchenko,
    Andrea Sanfilippo, Karsten Reuter, and Matthias Scheffler,
    'Resolution-of-identity approach to Hartree-Fock, hybrid density functionals,
    RPA, MP2, and GW with numeric atom-centered orbital basis functions'
    New Journal of Physics 14, 053020 (2012).
    http://doi.org/10.1088/1367-2630/14/5/053020


  The provided symmetry information was generated with SPGlib:

    Atsushi Togo, Yusuke Seto, Dimitar Pashov
    SPGlib 1.7.3 obtained from http://spglib.sourceforge.net
    Copyright (C) 2008 Atsushi Togo


  The DFPT (perturbation by an electric field) part of the code was used.
  Here is the corresponding reference:

    Honghui Shang, Nathaniel Raimbault, Mariana Rossi,
    Christian Carbogno, Patrick Rinke and Matthias Scheffler,
    'All-Electron, Real-Space Perturbation Theory for Homogeneous
    Electric Fields: Theory, Implementation, and Application within dft'
    New Journal of Physics, 20(7):073040, 2018


  The ELSI infrastructure was used in your run to solve the Kohn-Sham electronic structure.
  Please check out http://elsi-interchange.org to learn more.
  If scalability is important for your project, please acknowledge ELSI by citing:

    V. W-z. Yu, F. Corsetti, A. Garcia, W. P. Huhn, M. Jacquelin, W. Jia,
    B. Lange, L. Lin, J. Lu, W. Mi, A. Seifitokaldani, A. Vazquez-Mayagoitia,
    C. Yang, H. Yang, and V. Blum
    'ELSI: A unified software interface for Kohn-Sham electronic structure solvers'
    Computer Physics Communications 222, 267-285 (2018).
    http://doi.org/10.1016/j.cpc.2017.09.007


  For the real-space grid partitioning and parallelization used in this calculation, please cite:

    Ville Havu, Volker Blum, Paula Havu, and Matthias Scheffler,
    'Efficient O(N) integration for all-electron electronic structure calculation'
    'using numerically tabulated basis functions'
    Journal of Computational Physics 228, 8367-8379 (2009).
    http://doi.org/10.1016/j.jcp.2009.08.008


  The high-level electronic structure method used in your calculation
  employed our efficient localized resolution of identity for the Coulomb operator.
  Some calculations, especially large-scale hybrid density functional theory,
  are only possible thanks to this development. For this feature, please cite:

    Arvid Ihrig, Juergen Wieferink, Igor Ying Zhang, Matti Ropo, Xinguo Ren,
    Patrick Rinke, Matthias Scheffler, and Volker Blum,
    'Accurate localized resolution of identity approach for linear-scaling
    hybrid density functionals and for many-body perturbation theory'
    New Journal of Physics 117, 093020 (2015).
    http://doi.org/10.1088/1367-2630/17/9/093020

  Of course, there are many other important community references, e.g., those cited in the
  above references. Our list is limited to references that describe implementations in the
  FHI-aims code. The reason is purely practical (length of this list) - please credit others as well.

------------------------------------------------------------
          Leaving FHI-aims.
          Date     :  20230221, Time     :  132443.239

          Computational steps:
          | Number of self-consistency cycles          :           45
          | Number of SCF (re)initializations          :            1
          | Number of coupled perturbed self-consistency cycles          :            0
          | Number of CPSCF (re)initializations          :            0

          Detailed time accounting                     :  max(cpu_time)    wall_clock(cpu1)
          | Total time                                  :      443.465 s         469.242 s
          | GPU initialization                          :        2.157 s           9.982 s
          | Preparation time                            :        0.081 s           0.075 s
          | Boundary condition initalization            :        1.329 s           1.329 s
          | Grid partitioning                           :        0.420 s           0.420 s
          | Preloading free-atom quantities on grid     :        2.193 s           2.193 s
          | Free-atom superposition energy              :        0.296 s           0.296 s
          | Total time for integrations                 :       12.925 s          13.815 s
          | Product basis setup: Total time             :        0.000 s           0.000 s
          | Product basis: | 2-center integrations     :(       0.000 s)  (       0.000 s)
          | Product basis: | LVL 3-center & coefficient:(       0.000 s)  (       0.000 s)
          | Total time for solution of K.-S. equations  :        4.547 s          19.387 s
          | Total time for density update               :        9.016 s          10.684 s
          | Total time for mixing & preconditioning     :        8.394 s           8.393 s
          | Total time for Hartree multipole update     :        0.103 s           0.104 s
          | Total time for Hartree multipole sum        :       37.464 s          37.476 s
          | Total time for total energy evaluation      :        0.009 s           0.008 s
          | Total time for DFPT                         :      363.790 s         363.932 s
          | Total time first_order_DM                   :        0.290 s           0.291 s
          | Total time first_order_density              :       77.141 s          77.152 s
          | Total time first_order_potential            :       53.181 s          53.200 s
          | Total time first_order_H                    :      152.200 s         152.259 s
          | Total time solving of Sternheimer equations :        0.195 s           0.195 s
          | Total time for dielectric constant          :        0.001 s           0.001 s
          | Total time momentum matrix                  :        0.000 s           0.000 s

          GPU acceleration has been used for charge density update.
          GPU acceleration has been used for real-space Hamiltonian integration.
          Due to GPU usage, wall_clock(cpu1) will give a more reliable estimate for timings.

          Partial memory accounting:
          | Residual value for overall tracked memory usage across tasks:     0.000000 MB (should be 0.000000 MB)
          | Peak values for overall tracked memory usage:
          |   Minimum:      110.105 MB (on task  0 after allocating DFPT_pulay_mixing::pulay_mix::alphas)
          |   Maximum:      110.105 MB (on task  0 after allocating DFPT_pulay_mixing::pulay_mix::alphas)
          |   Average:      110.105 MB
          | Largest tracked array allocation:
          |   Minimum:       39.255 MB (DFPT_pulay_mixing::initialize_pulay_mixing::X_in_diffs on task  0)
          |   Maximum:       39.255 MB (DFPT_pulay_mixing::initialize_pulay_mixing::X_in_diffs on task  0)
          |   Average:       39.255 MB
          Note:  These values currently only include a subset of arrays which are explicitly tracked.
          The "true" memory usage will be greater.

          Have a nice day.
------------------------------------------------------------
