------------------------------------------------------------
          Invoking FHI-aims ...

          When using FHI-aims, please cite the following reference:

            Volker Blum, Ralf Gehrke, Felix Hanke, Paula Havu,
            Ville Havu, Xinguo Ren, Karsten Reuter, and Matthias Scheffler,
            'Ab Initio Molecular Simulations with Numeric Atom-Centered Orbitals',
            Computer Physics Communications 180, 2175-2196 (2009)

          In addition, many other developments in FHI-aims are likely important for
          your particular application. A partial list of references is given at the end of
          this file. Thank you for giving credit to the authors of these developments.

          For any questions about FHI-aims, please visit our slack channel at

            https://fhi-aims.slack.com

          and our main development and support site at

            https://aims-git.rz-berlin.mpg.de .

          The latter site, in particular, has a wiki to collect information, as well
          as an issue tracker to log discussions, suggest improvements, and report issues
          or bugs. https://aims-git.rz-berlin.mpg.de is also the main development site
          of the project and all new and updated code versions can be obtained there.
          Please send an email to aims-coordinators@fhi-berlin.mpg.de and we will add
          you to these sites. They are for you and everyone is welcome there.

------------------------------------------------------------



  Date     :  20230221, Time     :  144959.492
  Time zero on CPU 1             :   0.344474000000000E+00  s.
  Internal wall clock time zero  :           446222999.492  s.

  FHI-aims created a unique identifier for this run for later identification
  aims_uuid : B3791978-4B91-4EDF-A809-22740CA9C737

  Build configuration of the current instance of FHI-aims
  -------------------------------------------------------
  FHI-aims version      : 221103
  Commit number         : 42523251a
  CMake host system     : Linux-5.3.18-150300.59.68-default
  CMake version         : 3.17.0
  Fortran compiler      : /mpcdf/soft/SLE_15/packages/x86_64/intel_oneapi/2021.3/mpi/2021.3.0/bin/mpiifort (Intel) version 20.2.3.20210609
  Fortran compiler flags: -O3 -ip -fp-model precise
  C compiler            : /mpcdf/soft/SLE_15/packages/x86_64/intel/2021.3.0/bin/icc (Intel) version 20.2.3.20210609
  C compiler flags      : -O3 -ip -fp-model precise -std=gnu99
  CUDA compiler         : /mpcdf/soft/SLE_15/packages/x86_64/cuda/11.6.2/bin/nvcc
  CUDA compiler flags   : -O3 -DAdd_ -lcublas
  HIP compiler          :
  HIP compiler flags    :
  HIP GPU arch          :
  ELPA2 kernel          : AVX512
  Using MPI
  Using ScaLAPACK
  Using LibXC
  Using CUDA
  Using i-PI
  Using RLSY
  Linking against: /mpcdf/soft/SLE_15/packages/x86_64/cuda/11.6.2/lib64/libcublas.so
                   /mpcdf/soft/SLE_15/packages/x86_64/cuda/11.6.2/lib64/libcudart.so
                   /mpcdf/soft/SLE_15/packages/x86_64/intel_oneapi/2021.3/mkl/latest/lib/intel64/libmkl_intel_lp64.so
                   /mpcdf/soft/SLE_15/packages/x86_64/intel_oneapi/2021.3/mkl/latest/lib/intel64/libmkl_sequential.so
                   /mpcdf/soft/SLE_15/packages/x86_64/intel_oneapi/2021.3/mkl/latest/lib/intel64/libmkl_core.so
                   /mpcdf/soft/SLE_15/packages/x86_64/intel_oneapi/2021.3/mkl/latest/lib/intel64/libmkl_blacs_intelmpi_lp64.so
                   /mpcdf/soft/SLE_15/packages/x86_64/intel_oneapi/2021.3/mkl/latest/lib/intel64/libmkl_scalapack_lp64.so

  Using       18 parallel tasks.
  Task        0 on host adag039 reporting.
  Task        1 on host adag039 reporting.
  Task        2 on host adag039 reporting.
  Task        3 on host adag039 reporting.
  Task        4 on host adag039 reporting.
  Task        5 on host adag039 reporting.
  Task        6 on host adag039 reporting.
  Task        7 on host adag039 reporting.
  Task        8 on host adag039 reporting.
  Task        9 on host adag039 reporting.
  Task       10 on host adag039 reporting.
  Task       11 on host adag039 reporting.
  Task       12 on host adag039 reporting.
  Task       13 on host adag039 reporting.
  Task       14 on host adag039 reporting.
  Task       15 on host adag039 reporting.
  Task       16 on host adag039 reporting.
  Task       17 on host adag039 reporting.

  Obtaining array dimensions for all initial allocations:
  
  -----------------------------------------------------------------------
  Parsing control.in (first pass over file, find array dimensions only).
  The contents of control.in will be repeated verbatim below
  unless switched off by setting 'verbatim_writeout .false.' .
  in the first line of control.in .
  -----------------------------------------------------------------------
  
  #########################################################################################
  #
  #  Volker Blum, 2017 : Test run input file control.in for simple H2O
  #
  #########################################################################################
  #
  #  Physical model
  #
    xc                 pw-lda
    spin               none
    relativistic       none
    charge             0.
  
    use_gpu
  
    DFPT dielectric
    ri_density_restart write
    ri_rho1 write
  #  ri_density_restart read 0
  #  ri_rho1 read
    ri_full_output .true.
    sc_accuracy_rho    1d-6
  #  use_calculate_fock_matrix_old .false.
  #  wave_threshold 1e-8
    k_grid 1 1 1
  #  output cube eigenstate 160
  #  output cube eigenstate 161
    wave_threshold 1e-8
    default_prodbas_acc 1e-6
    default_max_l_prodbas 6
  #
  #  Relaxation
  #
  #  relax_geometry   bfgs 1.e-2
  #
  
  ################################################################################
  
  
  ################################################################################
  #
  #  FHI-aims code project
  #  VB, Fritz-Haber Institut, 2009
  #
  #  Suggested "light" defaults for H atom (to be pasted into control.in file)
  #  Be sure to double-check any results obtained with these settings for post-processing,
  #  e.g., with the "tight" defaults and larger basis sets.
  #
  ################################################################################
    species        H
  #     global species definitions
      nucleus             1
      mass                1.00794
  #
      l_hartree           4
  #
      cut_pot             3.5  1.5  1.0
      basis_dep_cutoff    1e-4
  #
      radial_base         24 5.0
      radial_multiplier   1
      angular_grids       specified
        division   0.2421   50
        division   0.3822  110
        division   0.4799  194
        division   0.5341  302
  #      division   0.5626  434
  #      division   0.5922  590
  #      division   0.6542  770
  #      division   0.6868 1202
  #      outer_grid  770
        outer_grid  302
  ################################################################################
  #
  #  Definition of "minimal" basis
  #
  ################################################################################
  #     valence basis states
      valence      1  s   1.
  #     ion occupancy
      ion_occ      1  s   0.5
  ################################################################################
  #
  #  Suggested additional basis functions. For production calculations,
  #  uncomment them one after another (the most important basis functions are
  #  listed first).
  #
  #  Basis constructed for dimers: 0.5 A, 0.7 A, 1.0 A, 1.5 A, 2.5 A
  #
  ################################################################################
  #  "First tier" - improvements: -1014.90 meV to -62.69 meV
       hydro 2 s 2.1
       hydro 2 p 3.5
  #  "Second tier" - improvements: -12.89 meV to -1.83 meV
  #     hydro 1 s 0.85
  #     hydro 2 p 3.7
  #     hydro 2 s 1.2
  #     hydro 3 d 7
  #  "Third tier" - improvements: -0.25 meV to -0.12 meV
  #     hydro 4 f 11.2
  #     hydro 3 p 4.8
  #     hydro 4 d 9
  #     hydro 3 s 3.2
  ################################################################################
  #
  #  FHI-aims code project
  #  VB, Fritz-Haber Institut, 2009
  #
  #  Suggested "light" defaults for O atom (to be pasted into control.in file)
  #  Be sure to double-check any results obtained with these settings for post-processing,
  #  e.g., with the "tight" defaults and larger basis sets.
  #
  ################################################################################
    species        O
  #     global species definitions
      nucleus             8
      mass                15.9994
  #
      l_hartree           4
  #
      cut_pot             3.5  1.5  1.0
      basis_dep_cutoff    1e-4
  #
      radial_base         36 5.0
      radial_multiplier   1
       angular_grids specified
        division   0.2659   50
        division   0.4451  110
        division   0.6052  194
        division   0.7543  302
  #      division   0.8014  434
  #      division   0.8507  590
  #      division   0.8762  770
  #      division   0.9023  974
  #      division   1.2339 1202
  #      outer_grid 974
        outer_grid 302
  ################################################################################
  #
  #  Definition of "minimal" basis
  #
  ################################################################################
  #     valence basis states
      valence      2  s   2.
      valence      2  p   4.
  #     ion occupancy
      ion_occ      2  s   1.
      ion_occ      2  p   3.
  ################################################################################
  #
  #  Suggested additional basis functions. For production calculations,
  #  uncomment them one after another (the most important basis functions are
  #  listed first).
  #
  #  Constructed for dimers: 1.0 A, 1.208 A, 1.5 A, 2.0 A, 3.0 A
  #
  ################################################################################
  #  "First tier" - improvements: -699.05 meV to -159.38 meV
       hydro 2 p 1.8
       hydro 3 d 7.6
       hydro 3 s 6.4
  #  "Second tier" - improvements: -49.91 meV to -5.39 meV
  #     hydro 4 f 11.6
  #     hydro 3 p 6.2
  #     hydro 3 d 5.6
  #     hydro 5 g 17.6
  #     hydro 1 s 0.75
  #  "Third tier" - improvements: -2.83 meV to -0.50 meV
  #     ionic 2 p auto
  #     hydro 4 f 10.8
  #     hydro 4 d 4.7
  #     hydro 2 s 6.8
  #  "Fourth tier" - improvements: -0.40 meV to -0.12 meV
  #     hydro 3 p 5
  #     hydro 3 s 3.3
  #     hydro 5 g 15.6
  #     hydro 4 f 17.6
  #     hydro 4 d 14
  # Further basis functions - -0.08 meV and below
  #     hydro 3 s 2.1
  #     hydro 4 d 11.6
  #     hydro 3 p 16
  #     hydro 2 s 17.2
  
  -----------------------------------------------------------------------
  Completed first pass over input file control.in .
  -----------------------------------------------------------------------
  
  
  -----------------------------------------------------------------------
  Parsing geometry.in (first pass over file, find array dimensions only).
  The contents of geometry.in will be repeated verbatim below
  unless switched off by setting 'verbatim_writeout .false.' .
  in the first line of geometry.in .
  -----------------------------------------------------------------------
  
  #=======================================================
  # FHI-aims file: /ada/ptmp/mpsd/alewis/bulk_water/qmdata/data/geoms/492.in
  # Created using the Atomic Simulation Environment (ASE)
  # Tue Feb 21 11:23:37 2023
  #=======================================================
  lattice_vector 9.8181600000000007 0.0000000000000000 0.0000000000000000
  lattice_vector 0.0000000000000000 9.8181600000000007 0.0000000000000000
  lattice_vector 0.0000000000000000 0.0000000000000000 9.8181600000000007
  atom 1.0025900000000001 29.1195999999999984 6.8460000000000001 O
  atom 1.3790000000000000 29.6518000000000015 7.6975800000000003 H
  atom 0.8407000000000000 29.8279999999999994 6.1999899999999997 H
  atom 13.7499000000000002 20.3050999999999995 -14.6189999999999998 O
  atom 14.2314000000000007 19.7543000000000006 -15.1873000000000005 H
  atom 14.2843000000000000 21.1472000000000016 -14.6287000000000003 H
  atom 9.9933099999999992 -15.3180999999999994 2.2878099999999999 O
  atom 9.2889199999999992 -14.6199999999999992 1.9142900000000000 H
  atom 10.3346000000000000 -15.6585000000000001 1.4174400000000000 H
  atom -2.4478100000000000 9.9159900000000007 2.9992299999999998 O
  atom -1.7193600000000000 9.6501300000000008 3.8925700000000001 H
  atom -2.0701499999999999 9.6236099999999993 2.1291699999999998 H
  atom -28.9500999999999991 20.4559999999999995 19.2732999999999990 O
  atom -28.4449000000000005 21.1545999999999985 19.3277000000000001 H
  atom -28.5162000000000013 19.8499000000000017 20.0247999999999990 H
  atom 5.0252299999999996 -8.6882199999999994 2.2480099999999998 O
  atom 5.0355400000000001 -7.8649600000000000 1.8684300000000000 H
  atom 5.8334000000000001 -9.2484199999999994 2.3241499999999999 H
  atom -5.6852200000000002 5.3777600000000003 -5.7031099999999997 O
  atom -6.4475499999999997 5.2372899999999998 -5.5122200000000001 H
  atom -5.3617400000000002 6.1544600000000003 -5.1921099999999996 H
  atom 9.0969800000000003 15.0007000000000001 -3.7778000000000000 O
  atom 9.1459299999999999 15.5484000000000009 -4.4881900000000003 H
  atom 8.8339099999999995 14.1339000000000006 -4.0762299999999998 H
  atom 13.1887000000000008 10.2460000000000004 -1.9219100000000000 O
  atom 13.6780000000000008 11.0698000000000008 -1.4158599999999999 H
  atom 12.9920000000000009 10.3992000000000004 -2.7970400000000000 H
  atom -24.1894999999999989 27.9806999999999988 3.4268500000000000 O
  atom -24.2755000000000010 27.6590999999999987 4.3404400000000001 H
  atom -23.4560999999999993 28.5859999999999985 3.2450199999999998 H
  atom -21.2275999999999989 12.5962999999999994 -5.1405399999999997 O
  atom -20.8194000000000017 13.0517000000000003 -5.8691500000000003 H
  atom -20.6696999999999989 11.7208000000000006 -4.9834100000000001 H
  atom 12.1699999999999999 -19.6072999999999986 2.1058800000000000 O
  atom 11.8795999999999999 -18.8451999999999984 2.7196099999999999 H
  atom 13.0602999999999998 -19.6780000000000008 2.1056499999999998 H
  atom 1.6819800000000000 -6.4218999999999999 0.0487040000000000 O
  atom 2.6011099999999998 -6.6632899999999999 0.1969580000000000 H
  atom 1.5948199999999999 -5.7807399999999998 -0.7104980000000000 H
  atom 14.3027999999999995 -4.7013299999999996 -10.2492999999999999 O
  atom 14.9205000000000005 -4.5629000000000000 -10.9253999999999998 H
  atom 14.1595999999999993 -3.8140800000000001 -9.9093599999999995 H
  atom -27.8367000000000004 4.4450200000000004 4.4414400000000001 O
  atom -28.3099999999999987 4.7872899999999996 5.1833400000000003 H
  atom -28.3166000000000011 4.5897500000000004 3.6960799999999998 H
  atom 5.5621400000000003 -16.5444999999999993 5.4370200000000004 O
  atom 4.9782700000000002 -15.7448999999999995 5.0154800000000002 H
  atom 6.4467999999999996 -16.5169999999999995 4.9925100000000002 H
  atom 16.2407000000000004 -4.5416100000000004 26.7637000000000000 O
  atom 17.2237000000000009 -4.3153100000000002 26.9520000000000017 H
  atom 16.0751999999999988 -5.2771400000000002 26.0366000000000000 H
  atom -4.1277799999999996 7.5069299999999997 15.7018000000000004 O
  atom -3.7040600000000001 6.7006600000000001 16.1801999999999992 H
  atom -3.4790299999999998 8.3314500000000002 15.9930000000000003 H
  atom 3.3825900000000000 16.6985999999999990 21.0676999999999985 O
  atom 3.8975599999999999 17.3445000000000000 21.5757000000000012 H
  atom 2.6733899999999999 16.4253000000000000 21.8130999999999986 H
  atom 1.3048299999999999 -18.1256999999999984 4.6264900000000004 O
  atom 2.1053199999999999 -18.6066000000000003 4.9052499999999997 H
  atom 1.3786099999999999 -17.3070999999999984 4.6682199999999998 H
  atom -1.5975400000000000 18.7001999999999988 0.5732340000000000 O
  atom -2.6565300000000001 18.5707999999999984 0.3048350000000000 H
  atom -1.1685399999999999 19.4442999999999984 0.0532820000000000 H
  atom -1.1972100000000001 -12.4016999999999999 3.5881799999999999 O
  atom -0.3300100000000000 -12.1599000000000004 3.4934599999999998 H
  atom -1.5486899999999999 -13.0023999999999997 2.8508300000000002 H
  atom -4.3806500000000002 43.3278999999999996 1.8932599999999999 O
  atom -4.8122800000000003 43.7526000000000010 2.7498499999999999 H
  atom -4.6989099999999997 43.7706000000000017 1.0977800000000000 H
  atom 34.9493000000000009 -39.8757000000000019 -0.2928460000000000 O
  atom 34.6617000000000033 -39.5454999999999970 0.5162780000000000 H
  atom 34.3922999999999988 -39.7462000000000018 -0.9102700000000000 H
  atom -5.1937300000000004 -7.3957199999999998 -10.3207000000000004 O
  atom -4.2982199999999997 -7.4738400000000000 -10.5212000000000003 H
  atom -5.2394800000000004 -6.4437800000000003 -10.2848000000000006 H
  atom 17.5575000000000010 1.3295100000000000 -11.1999999999999993 O
  atom 17.4724000000000004 1.0951100000000000 -12.2210999999999999 H
  atom 18.3815999999999988 1.6045600000000000 -11.1655999999999995 H
  atom 12.6638000000000002 17.3274000000000008 6.2775699999999999 O
  atom 12.2015999999999991 18.1959000000000017 6.6295500000000001 H
  atom 13.5099999999999998 17.4283999999999999 6.5445200000000003 H
  atom 1.6606399999999999 27.3291000000000004 3.7157200000000001 O
  atom 2.3226200000000001 27.4787999999999997 4.3630599999999999 H
  atom 2.1384500000000002 27.8809000000000005 2.9865900000000001 H
  atom 18.3359999999999985 -12.6506000000000007 28.3274000000000008 O
  atom 18.2632000000000012 -11.8594000000000008 28.7283000000000008 H
  atom 19.1185000000000009 -13.1483000000000008 28.4170000000000016 H
  atom 7.8175200000000000 15.3558000000000003 30.8279999999999994 O
  atom 8.2092600000000004 15.6975999999999996 29.8628999999999998 H
  atom 7.0696800000000000 14.4756000000000000 30.7661000000000016 H
  atom -1.9566800000000000 -0.7208450000000000 -4.0895500000000000 O
  atom -2.0602800000000001 -1.6504200000000000 -4.2611999999999997 H
  atom -1.0941799999999999 -0.7469890000000000 -3.5784799999999999 H
  atom 20.8860999999999990 5.7317200000000001 18.0260999999999996 O
  atom 20.3063000000000002 5.3189000000000002 17.4585000000000008 H
  atom 21.4825000000000017 6.4181999999999997 17.7388000000000012 H
  
  -----------------------------------------------------------------------
  Completed first pass over input file geometry.in .
  -----------------------------------------------------------------------
  

  Basic array size parameters:
  | Number of species                 :        2
  | Number of atoms                   :       96
  | Number of lattice vectors         :        3
  | Max. basis fn. angular momentum   :        2
  | Max. atomic/ionic basis occupied n:        2
  | Max. number of basis fn. types    :        2
  | Max. radial fns per species/type  :        3
  | Max. logarithmic grid size        :     1301
  | Max. radial integration grid size :       36
  | Max. angular integration grid size:      302
  | Max. angular grid division number :        8
  | Radial grid for Hartree potential :     1301
  | Number of spin channels           :        1

------------------------------------------------------------
          Reading file control.in.
------------------------------------------------------------
  XC: Using Perdew-Wang parametrisation of Ceperley-Alder LDA.
  Spin treatment: No spin polarisation.
  Non-relativistic treatment of kinetic energy.
  Charge =   0.000000E+00: Neutral system requested explicitly.
  DFPT calculation will begin after the DFT/HF calculation.
  Convergence accuracy of self-consistent charge density:  0.1000E-05
  Found k-point grid:         1         1         1
  Threshold value for wave function integration:  0.1000E-07
 
  Reading configuration options for species H                   .
  | Found nuclear charge :   1.0000
  | Found atomic mass :    1.00794000000000      amu
  | Found l_max for Hartree potential  :   4
  | Found cutoff potl. onset [A], width [A], scale factor :    3.50000    1.50000    1.00000
  | Threshold for basis-dependent cutoff potential is   0.100000E-03
  | Found data for basic radial integration grid :    24 points, outermost radius =    5.000 A
  | Found multiplier for basic radial grid :   1
  | Found angular grid specification: user-specified.
  | Specified grid contains     5 separate shells.
  | Check grid settings after all constraints further below.
  | Found free-atom valence shell :  1 s   1.000
  | No ionic wave fns used. Skipping ion_occ.
  | Found hydrogenic basis function :  2 s   2.100
  | Found hydrogenic basis function :  2 p   3.500
  Species H                   : Missing cutoff potential type.
  Defaulting to exp(1/x)/(1-x)^2 type cutoff potential.
  Species H : No 'logarithmic' tag. Using default grid for free atom:
  | Default logarithmic grid data [bohr] : 0.1000E-03 0.1000E+03 0.1012E+01
  Species H : On-site basis accuracy parameter (for Gram-Schmidt orthonormalisation) not specified.
  Using default value basis_acc =  0.1000000E-03.
  Species H                   : Using default innermost maximum threshold i_radial=  2 for radial functions.
  Species H                   : Default cutoff onset for free atom density etc. : 0.35000000E+01 AA.
  Species H                   : Basic radial grid will be enhanced according to radial_multiplier =   1, to contain    24 grid points.
 
  Reading configuration options for species O                   .
  | Found nuclear charge :   8.0000
  | Found atomic mass :    15.9994000000000      amu
  | Found l_max for Hartree potential  :   4
  | Found cutoff potl. onset [A], width [A], scale factor :    3.50000    1.50000    1.00000
  | Threshold for basis-dependent cutoff potential is   0.100000E-03
  | Found data for basic radial integration grid :    36 points, outermost radius =    5.000 A
  | Found multiplier for basic radial grid :   1
  | Found angular grid specification: user-specified.
  | Specified grid contains     5 separate shells.
  | Check grid settings after all constraints further below.
  | Found free-atom valence shell :  2 s   2.000
  | Found free-atom valence shell :  2 p   4.000
  | No ionic wave fns used. Skipping ion_occ.
  | No ionic wave fns used. Skipping ion_occ.
  | Found hydrogenic basis function :  2 p   1.800
  | Found hydrogenic basis function :  3 d   7.600
  | Found hydrogenic basis function :  3 s   6.400
  Species O                   : Missing cutoff potential type.
  Defaulting to exp(1/x)/(1-x)^2 type cutoff potential.
  Species O : No 'logarithmic' tag. Using default grid for free atom:
  | Default logarithmic grid data [bohr] : 0.1000E-03 0.1000E+03 0.1012E+01
  Species O : On-site basis accuracy parameter (for Gram-Schmidt orthonormalisation) not specified.
  Using default value basis_acc =  0.1000000E-03.
  Species O                   : Using default innermost maximum threshold i_radial=  2 for radial functions.
  Species O                   : Default cutoff onset for free atom density etc. : 0.35000000E+01 AA.
  Species O                   : Basic radial grid will be enhanced according to radial_multiplier =   1, to contain    36 grid points.
 
  Finished reading input file 'control.in'.
 
------------------------------------------------------------


------------------------------------------------------------
          Reading geometry description geometry.in.
------------------------------------------------------------
  | The smallest distance between any two atoms is         0.79832189 AA.
  | The first atom of this pair is atom number                     19 .
  | The second atom of this pair is atom number                    20 .
  | Wigner-Seitz cell of the first atom image           0     0     0 .
  | (The Wigner-Seitz cell of the second atom is 0 0 0  by definition.)

  Symmetry information by spglib:
  | Precision set to  0.1E-04
  | Number of Operations  : 1
  | Space group           : 1
  | International         : P1
  | Schoenflies           : C1^1
  Input structure read successfully.
  The structure contains       96 atoms,  and a total of        320.000 electrons.

  Input geometry:
  | Unit cell:
  |        9.81816000        0.00000000        0.00000000
  |        0.00000000        9.81816000        0.00000000
  |        0.00000000        0.00000000        9.81816000
  | Atomic structure:
  |       Atom                x [A]            y [A]            z [A]
  |    1: Species O             1.00259000       29.11960000        6.84600000
  |    2: Species H             1.37900000       29.65180000        7.69758000
  |    3: Species H             0.84070000       29.82800000        6.19999000
  |    4: Species O            13.74990000       20.30510000      -14.61900000
  |    5: Species H            14.23140000       19.75430000      -15.18730000
  |    6: Species H            14.28430000       21.14720000      -14.62870000
  |    7: Species O             9.99331000      -15.31810000        2.28781000
  |    8: Species H             9.28892000      -14.62000000        1.91429000
  |    9: Species H            10.33460000      -15.65850000        1.41744000
  |   10: Species O            -2.44781000        9.91599000        2.99923000
  |   11: Species H            -1.71936000        9.65013000        3.89257000
  |   12: Species H            -2.07015000        9.62361000        2.12917000
  |   13: Species O           -28.95010000       20.45600000       19.27330000
  |   14: Species H           -28.44490000       21.15460000       19.32770000
  |   15: Species H           -28.51620000       19.84990000       20.02480000
  |   16: Species O             5.02523000       -8.68822000        2.24801000
  |   17: Species H             5.03554000       -7.86496000        1.86843000
  |   18: Species H             5.83340000       -9.24842000        2.32415000
  |   19: Species O            -5.68522000        5.37776000       -5.70311000
  |   20: Species H            -6.44755000        5.23729000       -5.51222000
  |   21: Species H            -5.36174000        6.15446000       -5.19211000
  |   22: Species O             9.09698000       15.00070000       -3.77780000
  |   23: Species H             9.14593000       15.54840000       -4.48819000
  |   24: Species H             8.83391000       14.13390000       -4.07623000
  |   25: Species O            13.18870000       10.24600000       -1.92191000
  |   26: Species H            13.67800000       11.06980000       -1.41586000
  |   27: Species H            12.99200000       10.39920000       -2.79704000
  |   28: Species O           -24.18950000       27.98070000        3.42685000
  |   29: Species H           -24.27550000       27.65910000        4.34044000
  |   30: Species H           -23.45610000       28.58600000        3.24502000
  |   31: Species O           -21.22760000       12.59630000       -5.14054000
  |   32: Species H           -20.81940000       13.05170000       -5.86915000
  |   33: Species H           -20.66970000       11.72080000       -4.98341000
  |   34: Species O            12.17000000      -19.60730000        2.10588000
  |   35: Species H            11.87960000      -18.84520000        2.71961000
  |   36: Species H            13.06030000      -19.67800000        2.10565000
  |   37: Species O             1.68198000       -6.42190000        0.04870400
  |   38: Species H             2.60111000       -6.66329000        0.19695800
  |   39: Species H             1.59482000       -5.78074000       -0.71049800
  |   40: Species O            14.30280000       -4.70133000      -10.24930000
  |   41: Species H            14.92050000       -4.56290000      -10.92540000
  |   42: Species H            14.15960000       -3.81408000       -9.90936000
  |   43: Species O           -27.83670000        4.44502000        4.44144000
  |   44: Species H           -28.31000000        4.78729000        5.18334000
  |   45: Species H           -28.31660000        4.58975000        3.69608000
  |   46: Species O             5.56214000      -16.54450000        5.43702000
  |   47: Species H             4.97827000      -15.74490000        5.01548000
  |   48: Species H             6.44680000      -16.51700000        4.99251000
  |   49: Species O            16.24070000       -4.54161000       26.76370000
  |   50: Species H            17.22370000       -4.31531000       26.95200000
  |   51: Species H            16.07520000       -5.27714000       26.03660000
  |   52: Species O            -4.12778000        7.50693000       15.70180000
  |   53: Species H            -3.70406000        6.70066000       16.18020000
  |   54: Species H            -3.47903000        8.33145000       15.99300000
  |   55: Species O             3.38259000       16.69860000       21.06770000
  |   56: Species H             3.89756000       17.34450000       21.57570000
  |   57: Species H             2.67339000       16.42530000       21.81310000
  |   58: Species O             1.30483000      -18.12570000        4.62649000
  |   59: Species H             2.10532000      -18.60660000        4.90525000
  |   60: Species H             1.37861000      -17.30710000        4.66822000
  |   61: Species O            -1.59754000       18.70020000        0.57323400
  |   62: Species H            -2.65653000       18.57080000        0.30483500
  |   63: Species H            -1.16854000       19.44430000        0.05328200
  |   64: Species O            -1.19721000      -12.40170000        3.58818000
  |   65: Species H            -0.33001000      -12.15990000        3.49346000
  |   66: Species H            -1.54869000      -13.00240000        2.85083000
  |   67: Species O            -4.38065000       43.32790000        1.89326000
  |   68: Species H            -4.81228000       43.75260000        2.74985000
  |   69: Species H            -4.69891000       43.77060000        1.09778000
  |   70: Species O            34.94930000      -39.87570000       -0.29284600
  |   71: Species H            34.66170000      -39.54550000        0.51627800
  |   72: Species H            34.39230000      -39.74620000       -0.91027000
  |   73: Species O            -5.19373000       -7.39572000      -10.32070000
  |   74: Species H            -4.29822000       -7.47384000      -10.52120000
  |   75: Species H            -5.23948000       -6.44378000      -10.28480000
  |   76: Species O            17.55750000        1.32951000      -11.20000000
  |   77: Species H            17.47240000        1.09511000      -12.22110000
  |   78: Species H            18.38160000        1.60456000      -11.16560000
  |   79: Species O            12.66380000       17.32740000        6.27757000
  |   80: Species H            12.20160000       18.19590000        6.62955000
  |   81: Species H            13.51000000       17.42840000        6.54452000
  |   82: Species O             1.66064000       27.32910000        3.71572000
  |   83: Species H             2.32262000       27.47880000        4.36306000
  |   84: Species H             2.13845000       27.88090000        2.98659000
  |   85: Species O            18.33600000      -12.65060000       28.32740000
  |   86: Species H            18.26320000      -11.85940000       28.72830000
  |   87: Species H            19.11850000      -13.14830000       28.41700000
  |   88: Species O             7.81752000       15.35580000       30.82800000
  |   89: Species H             8.20926000       15.69760000       29.86290000
  |   90: Species H             7.06968000       14.47560000       30.76610000
  |   91: Species O            -1.95668000       -0.72084500       -4.08955000
  |   92: Species H            -2.06028000       -1.65042000       -4.26120000
  |   93: Species H            -1.09418000       -0.74698900       -3.57848000
  |   94: Species O            20.88610000        5.73172000       18.02610000
  |   95: Species H            20.30630000        5.31890000       17.45850000
  |   96: Species H            21.48250000        6.41820000       17.73880000

  Lattice parameters for 3D lattice (in Angstroms) :     9.818160    9.818160    9.818160
  Angle(s) between unit vectors (in degrees)       :    90.000000   90.000000   90.000000


  Quantities derived from the lattice vectors (in Angstrom^-1):
  | Reciprocal lattice vector 1:  0.639955  0.000000  0.000000
  | Reciprocal lattice vector 2:  0.000000  0.639955  0.000000
  | Reciprocal lattice vector 3:  0.000000  0.000000  0.639955
  | Unit cell volume                               :   0.946434E+03  Angstrom^3

  Fractional coordinates:
                         L1                L2                L3
       atom_frac         0.10211588        2.96589178        0.69727933  O
       atom_frac         0.14045402        3.02009745        0.78401452  H
       atom_frac         0.08562704        3.03804379        0.63148187  H
       atom_frac         1.40045589        2.06811663       -1.48897553  O
       atom_frac         1.44949767        2.01201651       -1.54685807  H
       atom_frac         1.45488564        2.15388627       -1.48996350  H
       atom_frac         1.01783939       -1.56018032        0.23301820  O
       atom_frac         0.94609581       -1.48907738        0.19497441  H
       atom_frac         1.05260049       -1.59485077        0.14436921  H
       atom_frac        -0.24931454        1.00996419        0.30547781  O
       atom_frac        -0.17512039        0.98288580        0.39646634  H
       atom_frac        -0.21084908        0.98018468        0.21686039  H
       atom_frac        -2.94862785        2.08348611        1.96302566  O
       atom_frac        -2.89717218        2.15463997        1.96856641  H
       atom_frac        -2.90443423        2.02175357        2.03956750  H
       atom_frac         0.51183012       -0.88491326        0.22896449  O
       atom_frac         0.51288021       -0.80106252        0.19030348  H
       atom_frac         0.59414391       -0.94197080        0.23671951  H
       atom_frac        -0.57905147        0.54773603       -0.58087361  O
       atom_frac        -0.65669637        0.53342887       -0.56143106  H
       atom_frac        -0.54610436        0.62684454       -0.52882719  H
       atom_frac         0.92654632        1.52785247       -0.38477678  O
       atom_frac         0.93153198        1.58363685       -0.45713148  H
       atom_frac         0.89975209        1.43956709       -0.41517250  H
       atom_frac         1.34329650        1.04357639       -0.19575053  O
       atom_frac         1.39313273        1.12748214       -0.14420828  H
       atom_frac         1.32326220        1.05918013       -0.28488434  H
       atom_frac        -2.46375085        2.84989244        0.34903179  O
       atom_frac        -2.47251012        2.81713682        0.44208283  H
       atom_frac        -2.38905253        2.91154351        0.33051203  H
       atom_frac        -2.16207517        1.28295933       -0.52357468  O
       atom_frac        -2.12049916        1.32934277       -0.59778512  H
       atom_frac        -2.10525190        1.19378784       -0.50757066  H
       atom_frac         1.23953979       -1.99704425        0.21448825  O
       atom_frac         1.20996195       -1.91942278        0.27699793  H
       atom_frac         1.33021870       -2.00424519        0.21446483  H
       atom_frac         0.17131316       -0.65408386        0.00496060  O
       atom_frac         0.26492846       -0.67866993        0.02006058  H
       atom_frac         0.16243573       -0.58878038       -0.07236570  H
       atom_frac         1.45676990       -0.47884023       -1.04391250  O
       atom_frac         1.51968393       -0.46474085       -1.11277470  H
       atom_frac         1.44218469       -0.38847197       -1.00928891  H
       atom_frac        -2.83522574        0.45273452        0.45236989  O
       atom_frac        -2.88343233        0.48759544        0.52793395  H
       atom_frac        -2.88410456        0.46747558        0.37645343  H
       atom_frac         0.56651552       -1.68509171        0.55377179  O
       atom_frac         0.50704715       -1.60365079        0.51083706  H
       atom_frac         0.65661998       -1.68229078        0.50849752  H
       atom_frac         1.65414905       -0.46257242        2.72593847  O
       atom_frac         1.75426964       -0.43952329        2.74511721  H
       atom_frac         1.63729253       -0.53748768        2.65188182  H
       atom_frac        -0.42042297        0.76459642        1.59926096  O
       atom_frac        -0.37726621        0.68247615        1.64798700  H
       atom_frac        -0.35434644        0.84857550        1.62892029  H
       atom_frac         0.34452382        1.70078711        2.14578903  O
       atom_frac         0.39697459        1.76657337        2.19752988  H
       atom_frac         0.27229033        1.67295094        2.22170957  H
       atom_frac         0.13289965       -1.84614021        0.47121762  O
       atom_frac         0.21443122       -1.89512088        0.49960991  H
       atom_frac         0.14041429       -1.76276410        0.47546791  H
       atom_frac        -0.16271277        1.90465423        0.05838507  O
       atom_frac        -0.27057310        1.89147457        0.03104808  H
       atom_frac        -0.11901823        1.98044236        0.00542688  H
       atom_frac        -0.12193833       -1.26313892        0.36546359  O
       atom_frac        -0.03361220       -1.23851109        0.35581616  H
       atom_frac        -0.15773729       -1.32432146        0.29036296  H
       atom_frac        -0.44617831        4.41303666        0.19283247  O
       atom_frac        -0.49014072        4.45629324        0.28007794  H
       atom_frac        -0.47859375        4.45812657        0.11181117  H
       atom_frac         3.55965884       -4.06142291       -0.02982697  O
       atom_frac         3.53036618       -4.02779136        0.05258399  H
       atom_frac         3.50292723       -4.04823307       -0.09271289  H
       atom_frac        -0.52899219       -0.75326945       -1.05118474  O
       atom_frac        -0.43778264       -0.76122614       -1.07160609  H
       atom_frac        -0.53365193       -0.65631238       -1.04752825  H
       atom_frac         1.78826786        0.13541336       -1.14074328  O
       atom_frac         1.77960025        0.11153923       -1.24474443  H
       atom_frac         1.87220416        0.16342777       -1.13723956  H
       atom_frac         1.28983435        1.76483170        0.63938355  O
       atom_frac         1.24275832        1.85329023        0.67523344  H
       atom_frac         1.37602158        1.77511876        0.66657296  H
       atom_frac         0.16913964        2.78352563        0.37845380  O
       atom_frac         0.23656367        2.79877289        0.44438673  H
       atom_frac         0.21780558        2.83972761        0.30419040  H
       atom_frac         1.86755971       -1.28848990        2.88520456  O
       atom_frac         1.86014487       -1.20790454        2.92603706  H
       atom_frac         1.94725896       -1.33918168        2.89433051  H
       atom_frac         0.79623066        1.56402014        3.13989587  O
       atom_frac         0.83613019        1.59883318        3.04159843  H
       atom_frac         0.72006160        1.47436994        3.13359122  H
       atom_frac        -0.19929192       -0.07341956       -0.41652917  O
       atom_frac        -0.20984380       -0.16809871       -0.43401208  H
       atom_frac        -0.11144451       -0.07608238       -0.36447562  H
       atom_frac         2.12729269        0.58378759        1.83599575  O
       atom_frac         2.06823886        0.54174102        1.77818451  H
       atom_frac         2.18803727        0.65370701        1.80673364  H

 
  Finished reading input file 'geometry.in'.
 

 
  Consistency checks for stacksize environment parameter are next.
 
  | Maximum stacksize for task 0: unlimited
  | Maximum stacksize for task 1: unlimited
  | Maximum stacksize for task 2: unlimited
  | Maximum stacksize for task 3: unlimited
  | Maximum stacksize for task 4: unlimited
  | Maximum stacksize for task 5: unlimited
  | Maximum stacksize for task 6: unlimited
  | Maximum stacksize for task 7: unlimited
  | Maximum stacksize for task 8: unlimited
  | Maximum stacksize for task 9: unlimited
  | Maximum stacksize for task 10: unlimited
  | Maximum stacksize for task 11: unlimited
  | Maximum stacksize for task 12: unlimited
  | Maximum stacksize for task 13: unlimited
  | Maximum stacksize for task 14: unlimited
  | Maximum stacksize for task 15: unlimited
  | Maximum stacksize for task 16: unlimited
  | Maximum stacksize for task 17: unlimited
  | Current stacksize for task 0: unlimited
  | Current stacksize for task 1: unlimited
  | Current stacksize for task 2: unlimited
  | Current stacksize for task 3: unlimited
  | Current stacksize for task 4: unlimited
  | Current stacksize for task 5: unlimited
  | Current stacksize for task 6: unlimited
  | Current stacksize for task 7: unlimited
  | Current stacksize for task 8: unlimited
  | Current stacksize for task 9: unlimited
  | Current stacksize for task 10: unlimited
  | Current stacksize for task 11: unlimited
  | Current stacksize for task 12: unlimited
  | Current stacksize for task 13: unlimited
  | Current stacksize for task 14: unlimited
  | Current stacksize for task 15: unlimited
  | Current stacksize for task 16: unlimited
  | Current stacksize for task 17: unlimited
 
  Consistency checks for the contents of control.in are next.
 
  MPI_IN_PLACE appears to work with this MPI implementation.
  | Keeping use_mpi_in_place .true. (see manual).
  Explicit treatment of the Coulomb operator is needed, but the RI method is not specified.
  Coulomb operator: Defaulting to 'LVL fast' resolution of identity - RI_type = LVL_fast
  Species H: Using default value for prodbas_acc =   1.000000E-06.
  Species H: Using default value max_l_prodbas =     6.
  Species O: Using default value for prodbas_acc =   1.000000E-06.
  Species O: Using default value max_l_prodbas =     6.
  Target number of points in a grid batch is not set.  Since GPU acceleration is enabled, defaulting to  200
  Method for grid partitioning is not set. Defaulting to parallel hash+maxmin partitioning.
  Batch size limit is not set. Defaulting to    200
  By default, will store active basis functions for each batch.
  If in need of memory, prune_basis_once .false. can be used to disable this option.
  communication_type for Hartree potential was not specified.
  Defaulting to calc_hartree .
  Defaulting to Pulay charge density mixer.
  Pulay mixer: Number of relevant iterations not set.
  Defaulting to    8 iterations.
  Pulay mixer: Number of initial linear mixing iterations not set.
  Defaulting to    0 iterations.
  Work space size for distributed Hartree potential not set.
  Defaulting to   0.200000E+03 MB.
  Mixing parameter for charge density mixing has not been set.
  Using default: charge_mix_param =     0.0500.
  The mixing parameter will be adjusted in iteration number     2 of the first full s.c.f. cycle only.
  Algorithm-dependent basis array size parameters:
  | n_max_pulay                         :        8
  Maximum number of self-consistency iterations not provided.
  Presetting  1000 iterations.
  Presetting      1001 iterations before the initial mixing cycle
  is restarted anyway using the sc_init_iter criterion / keyword.
  Presetting a factor      1.000 between actual scf density residual
  and density convergence criterion sc_accuracy_rho below which sc_init_iter
  takes no effect.
  Calculation of forces was not defined in control.in. No forces will be calculated.
  Geometry relaxation not requested: no relaxation will be performed.
  No accuracy limit for integral partition fn. given. Defaulting to  0.1000E-14.
  No occupation type (smearing scheme) given. Defaulting to Gaussian broadening, width =  0.1000E-01 eV.
  The width will be adjusted in iteration number     2 of the first full s.c.f. cycle only.
  S.C.F. convergence parameters will be adjusted in iteration number     2 of the first full s.c.f. cycle only.
  No accuracy for occupation numbers given. Defaulting to  0.1000E-12.
  No threshold value for occupation numbers given. Defaulting to  0.0000E+00.
  No accuracy for fermi level given. Defaulting to  0.1000E-19.
  Maximum # of iterations to find E_F not set. Defaulting to  200.
  Preferred method for the eigenvalue solver ('KS_method') not specified in 'control.in'.
  Calling BLACS routine to test compilation state
  Since ScaLAPACK support is enabled, defaulting to ELPA (via ELSI).
  Will not use alltoall communication since running on < 1024 CPUs.
  Threshold for basis singularities not set.
  Default threshold for basis singularities:  0.1000E-04
  partition_type (choice of integration weights) for integrals was not specified.
  | Using a version of the partition function of Stratmann and coworkers ('stratmann_sparse').
  | At each grid point, the set of atoms used to build the partition table is smoothly restricted to
  | only those atoms whose free-atom density would be non-zero at that grid point.
  Partitioning for Hartree potential was not defined. Using partition_type for integrals.
  | Adjusted default value of keyword multip_moments_threshold to:       0.10000000E-11
  | This value may affect high angular momentum components of the Hartree potential in periodic systems.
  Angular momentum expansion for Kerker preconditioner not set explicitly.
  | Using default value of   0
  No explicit requirement for turning off preconditioner.
  | By default, it will be turned off when the charge convergence reaches
  | sc_accuracy_rho  =   0.100000E-05
  No special mixing parameter while Kerker preconditioner is on.
  Using default: charge_mix_param =     0.0500.
  Threshold for auxiliary basis singularities not set.
  Default threshold for auxiliary basis singularities:  0.1000E-04
  No q(lm)/r^(l+1) cutoff set for long-range Hartree potential.
  | Using default value of  0.100000E-09 .
  | Verify using the multipole_threshold keyword.
  Defaulting to new monopole extrapolation.
  Density update method: automatic selection selected.
  Using density matrix based charge density update.
  Using density matrix based charge density update.
  Using packed matrix style: index .
  Defaulting to use time-reversal symmetry for k-point grid.
  Charge integration errors on the 3D integration grid will be compensated
  by explicit normalization and distribution of residual charges.
  Use the "compensate_multipole_errors" flag to change this behaviour.
  Default to 1D ("use_logsbt") integrations for auxiliary 2-center integrals.
  Default onset of logarithmic r-grid for SBT is -38.000000000000
  Default onset of logarithmic k-grid for SBT is -25.000000000000
  Default range of logarithmic r- and k-grid for SBT is  45.000000000000
  Default number of logarithmic r- and k-grid for SBT is   4096
  Default of use_2d_corr is to use the efficient 2D distribution where possible
 
  Consistency checks for the contents of geometry.in are next.
 

  Range separation radius for Ewald summation (hartree_convergence_parameter):      2.95881482 bohr.
  Number of empty states per atom not set in control.in .
  | Since you are using a method that relies on the unoccupied spectrum
  | (MP2,GW,RPA et al.), will use the full Hamiltonian size (see below)
  | as the max. possible number of states (occupied plus empty).

  Structure-dependent array size parameters: 
  | Maximum number of distinct radial functions  :        9
  | Maximum number of basis functions            :      768
  | Number of Kohn-Sham states (occupied + empty):      768
------------------------------------------------------------

  Performing system and environment tests:
  | Environment variable OMP_NUM_THREADS correctly set to 1.
  | Checking for ScaLAPACK...
  | Testing pdtran()...
  | All pdtran() tests passed.
CUDA runtime version: 11060
CUDA driver version: 11060
  Initializing GPUs...

  Number of GPUs available to MPI task         0 :   1
  Number of GPUs available to MPI task         1 :   1
  Number of GPUs available to MPI task         2 :   1
  Number of GPUs available to MPI task         3 :   1
  Number of GPUs available to MPI task         4 :   1
  Number of GPUs available to MPI task         5 :   1
  Number of GPUs available to MPI task         6 :   1
  Number of GPUs available to MPI task         7 :   1
  Number of GPUs available to MPI task         8 :   1
  Number of GPUs available to MPI task         9 :   1
  Number of GPUs available to MPI task        10 :   1
  Number of GPUs available to MPI task        11 :   1
  Number of GPUs available to MPI task        12 :   1
  Number of GPUs available to MPI task        13 :   1
  Number of GPUs available to MPI task        14 :   1
  Number of GPUs available to MPI task        15 :   1
  Number of GPUs available to MPI task        16 :   1
  Number of GPUs available to MPI task        17 :   1

  | MPI task         0, GPU activated = T, Device Name = NVIDIA A100-SXM4-80GB
  | MPI task         1, GPU activated = T, Device Name = NVIDIA A100-SXM4-80GB
  | MPI task         2, GPU activated = T, Device Name = NVIDIA A100-SXM4-80GB
  | MPI task         3, GPU activated = T, Device Name = NVIDIA A100-SXM4-80GB
  | MPI task         4, GPU activated = T, Device Name = NVIDIA A100-SXM4-80GB
  | MPI task         5, GPU activated = T, Device Name = NVIDIA A100-SXM4-80GB
  | MPI task         6, GPU activated = T, Device Name = NVIDIA A100-SXM4-80GB
  | MPI task         7, GPU activated = T, Device Name = NVIDIA A100-SXM4-80GB
  | MPI task         8, GPU activated = T, Device Name = NVIDIA A100-SXM4-80GB
  | MPI task         9, GPU activated = T, Device Name = NVIDIA A100-SXM4-80GB
  | MPI task        10, GPU activated = T, Device Name = NVIDIA A100-SXM4-80GB
  | MPI task        11, GPU activated = T, Device Name = NVIDIA A100-SXM4-80GB
  | MPI task        12, GPU activated = T, Device Name = NVIDIA A100-SXM4-80GB
  | MPI task        13, GPU activated = T, Device Name = NVIDIA A100-SXM4-80GB
  | MPI task        14, GPU activated = T, Device Name = NVIDIA A100-SXM4-80GB
  | MPI task        15, GPU activated = T, Device Name = NVIDIA A100-SXM4-80GB
  | MPI task        16, GPU activated = T, Device Name = NVIDIA A100-SXM4-80GB
  | MPI task        17, GPU activated = T, Device Name = NVIDIA A100-SXM4-80GB

------------------------------------------------------------
          Preparing all fixed parts of the calculation.
------------------------------------------------------------
  Determining machine precision:
    2.225073858507201E-308
  Setting up grids for atomic and cluster calculations.

  Creating wave function, potential, and density for free atoms.
  Runtime choices for atomic solver:
  | atomic solver xc        : PW-LDA
  | compute density gradient: 0
  | compute kinetic density : F

  Species: H

  List of occupied orbitals and eigenvalues:
    n    l              occ      energy [Ha]    energy [eV]
    1    0           1.0000        -0.232375        -6.3233


  Species: O

  List of occupied orbitals and eigenvalues:
    n    l              occ      energy [Ha]    energy [eV]
    1    0           2.0000       -18.757744      -510.4242
    2    0           2.0000        -0.870917       -23.6989
    2    1           4.0000        -0.337950        -9.1961


  Adding cutoff potential to free-atom effective potential.
  Creating fixed part of basis set: Ionic, confined, hydrogenic.
 
  H                    hydrogenic:
 
  List of hydrogenic basis orbitals: 
    n    l      effective z      eigenvalue [eV]  inner max. [A]     outer max. [A]     outer radius [A]   
    2    0         2.100000       -14.9728           0.193243           1.317208           4.696947
    2    1         3.500000       -41.6669           0.602369           0.602369           3.862494
 
 
  O                    hydrogenic:
 
  List of hydrogenic basis orbitals: 
    n    l      effective z      eigenvalue [eV]  inner max. [A]     outer max. [A]     outer radius [A]   
    2    1         1.800000       -10.9749           1.164242           1.164242           4.691341
    3    2         7.600000       -87.3180           0.624125           0.624125           3.413946
    3    0         6.400000       -61.9207           0.061167           1.081902           4.151495
 
  Creating atomic-like basis functions for current effective potential.

  Species H                   :

  List of atomic basis orbitals and eigenvalues:
    n    l      energy [Ha]    energy [eV]    outer radius [A]
    1    0        -0.232375        -6.3233       4.696947


  Species O                   :

  List of atomic basis orbitals and eigenvalues:
    n    l      energy [Ha]    energy [eV]    outer radius [A]
    1    0       -18.757744      -510.4242       1.830144
    2    0        -0.870917       -23.6989       4.578029
    2    1        -0.337950        -9.1961       4.634338

  Assembling full basis from fixed parts.
  | Species H :   atomic orbital   1 s accepted.
  | Species H :    hydro orbital   2 s accepted.
  | Species H :    hydro orbital   2 p accepted.
  | Species O :   atomic orbital   1 s accepted.
  | Species O :    hydro orbital   3 s accepted.
  | Species O :   atomic orbital   2 s accepted.
  | Species O :   atomic orbital   2 p accepted.
  | Species O :    hydro orbital   2 p accepted.
  | Species O :    hydro orbital   3 d accepted.
 
  Basis size parameters after reduction:
  | Total number of radial functions:        9
  | Total number of basis functions :      768
 
  Per-task memory consumption for arrays in subroutine allocate_ext:
  |           2.268304MB.
  Testing on-site integration grid accuracy.
  |  Species  Function  <phi|h_atom|phi> (log., in eV)  <phi|h_atom|phi> (rad., in eV)
           1        1                 -6.3245358373                 -6.3232436907
           1        2                 14.1326137532                 14.1384481100
           1        3                 25.3627025200                 25.3628451197
           2        4               -510.4241781764               -510.4240769407
           2        5                 14.9072942213                 14.9072945271
           2        6                -21.2004736474                -21.2005650551
           2        7                 -9.1962086505                 -9.1963509834
           2        8                  8.1896755006                  8.1702200081
           2        9                 45.7920584937                 45.7920228520

  Preparing densities etc. for the partition functions (integrals / Hartree potential).

  Preparations completed.
  max(cpu_time)          :      0.075 s.
  Wall clock time (cpu1) :      0.065 s.
------------------------------------------------------------

  Initializing index lists of integration centers etc. from given atomic structure:
  Mapping all atomic coordinates to central unit cell.

  Initializing the k-points
  Using symmetry for reducing the k-points
  | k-points reduced from:        1 to        1
  | Number of k-points                             :         1
  | Consuming          0 KiB for k_phase_exx.
  The eigenvectors in the calculations are REAL.
  | Number of basis functions in the Hamiltonian integrals :      4480
  | Number of basis functions in a single unit cell        :       768
  | Number of centers in hartree potential         :      2701
  | Number of centers in hartree multipole         :      2014
  | Number of centers in electron density summation:      1514
  | Number of centers in basis integrals           :      1633
  | Number of centers in integrals                 :       705
  | Number of centers in hamiltonian               :      1514
  | Consuming          0 KiB for k_phase.
  | Number of super-cells (origin) [n_cells]                     :         125
  | Number of super-cells (after PM_index) [n_cells]             :          28
  | Number of super-cells in hamiltonian [n_cells_in_hamiltonian]:          28
  | Size of matrix packed + index [n_hamiltonian_matrix_size] :      801531
  | Size of matrix packed + index (no_symmetry):     1602293

------------------------------------------------------------
          Begin self-consistency loop: Initialization.

          Date     :  20230221, Time     :  145007.577
------------------------------------------------------------
  | Estimated reciprocal-space cutoff momentum G_max:         3.19625969 bohr^-1 .
  | Reciprocal lattice points for long-range Hartree potential:    3574
  Using simple linear distribution as default method for k-point parallelism.
  * Using 18 tasks for Scalapack Eigenvalue solver.
  Detailed listing of tasks and assigned k-points:
   Task     0 k-point     1 on adag039
   Task     1 k-point     1 on adag039
   Task     2 k-point     1 on adag039
   Task     3 k-point     1 on adag039
   Task     4 k-point     1 on adag039
   Task     5 k-point     1 on adag039
   Task     6 k-point     1 on adag039
   Task     7 k-point     1 on adag039
   Task     8 k-point     1 on adag039
   Task     9 k-point     1 on adag039
   Task    10 k-point     1 on adag039
   Task    11 k-point     1 on adag039
   Task    12 k-point     1 on adag039
   Task    13 k-point     1 on adag039
   Task    14 k-point     1 on adag039
   Task    15 k-point     1 on adag039
   Task    16 k-point     1 on adag039
   Task    17 k-point     1 on adag039
  K-point:     1 Tasks:    18 split into      6 X      3 BLACS grid
  Calculating block size based on n_basis =          768  max_nprow =            6  max_npcol =            3
  ScaLAPACK block size set to:           16
  Allocating        0.250 MB for ovlp
  Allocating        0.250 MB for ham
  Allocating        0.250 MB for eigenvec
  Required Scalapack workspace - INTEGER:            1  REAL:             1
  Partitioning the integration grid into batches with parallel hashing+maxmin method.
  | Number of batches:     4122
  | Maximal batch size:     200
  | Minimal batch size:      99
  | Average batch size:     123.622
  | Standard deviation of batch sizes:      22.170

  Integration load balanced across    18 MPI tasks.
  Work distribution over tasks is as follows:
  Task     0 has      28262 integration points.
  Task     1 has      28316 integration points.
  Task     2 has      28268 integration points.
  Task     3 has      28311 integration points.
  Task     4 has      28324 integration points.
  Task     5 has      28318 integration points.
  Task     6 has      28259 integration points.
  Task     7 has      28338 integration points.
  Task     8 has      28332 integration points.
  Task     9 has      28325 integration points.
  Task    10 has      28315 integration points.
  Task    11 has      28330 integration points.
  Task    12 has      28312 integration points.
  Task    13 has      28337 integration points.
  Task    14 has      28365 integration points.
  Task    15 has      28270 integration points.
  Task    16 has      28321 integration points.
  Task    17 has      28265 integration points.
  Initializing partition tables, free-atom densities, potentials, etc. across the integration grid (initialize_grid_storage).
  | initialize_grid_storage: Actual outermost partition radius vs. multipole_radius_free
  | (-- VB: in principle, multipole_radius_free should be larger, hence this output)
  | Species        1: Confinement radius =              4.999999999999999 AA, multipole_radius_free =              5.054417573612229 AA.
  | Species        1: outer_partition_radius set to              5.054417573612229 AA .
  | Species        2: Confinement radius =              4.999999999999999 AA, multipole_radius_free =              5.048384829883283 AA.
  | Species        2: outer_partition_radius set to              5.048384829883283 AA .
  | The sparse table of interatomic distances needs       5521.50 kbyte instead of     21333.51 kbyte of memory.
  | Net number of integration points:   509568
  | of which are non-zero points    :   405932
  | Numerical average free-atom electrostatic potential    :     -5.50622856 eV
  Renormalizing the initial density to the exact electron count on the 3D integration grid.
  | Initial density: Formal number of electrons (from input files) :     320.0000000000
  | Integrated number of electrons on 3D grid     :     319.9982466007
  | Charge integration error                      :      -0.0017533993
  | Normalization factor for density and gradient :       1.0000054794
  Renormalizing the free-atom superposition density to the exact electron count on the 3D integration grid.
  | Formal number of electrons (from input files) :     320.0000000000
  | Integrated number of electrons on 3D grid     :     319.9982466007
  | Charge integration error                      :      -0.0017533993
  | Normalization factor for density and gradient :       1.0000054794
  Obtaining max. number of non-zero basis functions in each batch (get_n_compute_maxes).
  | Maximal number of non-zero basis functions:      415 in task     0
  | Maximal number of non-zero basis functions:      419 in task     1
  | Maximal number of non-zero basis functions:      420 in task     2
  | Maximal number of non-zero basis functions:      424 in task     3
  | Maximal number of non-zero basis functions:      426 in task     4
  | Maximal number of non-zero basis functions:      438 in task     5
  | Maximal number of non-zero basis functions:      420 in task     6
  | Maximal number of non-zero basis functions:      417 in task     7
  | Maximal number of non-zero basis functions:      438 in task     8
  | Maximal number of non-zero basis functions:      419 in task     9
  | Maximal number of non-zero basis functions:      439 in task    10
  | Maximal number of non-zero basis functions:      430 in task    11
  | Maximal number of non-zero basis functions:      415 in task    12
  | Maximal number of non-zero basis functions:      422 in task    13
  | Maximal number of non-zero basis functions:      421 in task    14
  | Maximal number of non-zero basis functions:      429 in task    15
  | Maximal number of non-zero basis functions:      435 in task    16
  | Maximal number of non-zero basis functions:      435 in task    17
  Integrating Hamiltonian matrix: batch-based integration.
  GPU acceleration will be used when integrating the Hamiltonian matrix.
  Reporting GPU memory usage by myid 0.  Note that it is likely not the only MPI task binding to its GPU!
  Allocating        1.378 MB on GPU for hamiltonian_shell
  Allocating        0.664 MB on GPU for wave
  Allocating        0.002 MB on GPU for partition
  Allocating        0.664 MB on GPU for h_times_psi
  Time summed over all CPUs for integration: real work       14.104 s, elapsed       14.419 s
  Deallocating memory used on GPU for Hamiltonian integration.
  Integrating overlap matrix.
  Time summed over all CPUs for integration: real work       11.617 s, elapsed       11.761 s
  Deallocating overlap matrix.

  Updating Kohn-Sham eigenvalues and eigenvectors using ELSI and the ELPA eigensolver.
  Singularity check in k-point 1 (analysis for other k-points may follow below):
  Overlap matrix is not singular
  | Lowest and highest eigenvalues :  0.1993E-02,  0.7529E+01
  Finished singularity check of overlap matrix
  | Time :     0.171 s
  Starting ELPA eigensolver (GPU)
  Finished Cholesky decomposition
  | Time :     0.008 s
  Finished transformation to standard eigenproblem
  | Time :     0.032 s
  Finished solving standard eigenproblem
  | Time :     0.230 s
  Finished back-transformation of eigenvectors
  | Time :     0.018 s

  Obtaining occupation numbers and electronic chemical potential using ELSI.
  | Note that, for insulating systems, the printed 'chemical potential' value is not uniquely defined.
  | It can be anywhere in the energy gap, as long as it correctly separates occupied and unoccupied states.
  | In systems with a gap, the physically relevant chemical potential is the VBM or HOMO.

  | Chemical potential (Fermi level):    -6.58310776 eV
  Writing Kohn-Sham eigenvalues.

  State    Occupation    Eigenvalue [Ha]    Eigenvalue [eV]
      1       2.00000         -18.921969         -514.89298
      2       2.00000         -18.918241         -514.79152
      3       2.00000         -18.912415         -514.63299
      4       2.00000         -18.900199         -514.30059
      5       2.00000         -18.895228         -514.16531
      6       2.00000         -18.893065         -514.10645
      7       2.00000         -18.890027         -514.02379
      8       2.00000         -18.889919         -514.02085
      9       2.00000         -18.888403         -513.97961
     10       2.00000         -18.884761         -513.88049
     11       2.00000         -18.883352         -513.84216
     12       2.00000         -18.881901         -513.80267
     13       2.00000         -18.881328         -513.78707
     14       2.00000         -18.877554         -513.68438
     15       2.00000         -18.877418         -513.68068
     16       2.00000         -18.876964         -513.66832
     17       2.00000         -18.872863         -513.55674
     18       2.00000         -18.872119         -513.53649
     19       2.00000         -18.869404         -513.46260
     20       2.00000         -18.867723         -513.41686
     21       2.00000         -18.867488         -513.41048
     22       2.00000         -18.863631         -513.30553
     23       2.00000         -18.860430         -513.21841
     24       2.00000         -18.856050         -513.09923
     25       2.00000         -18.855083         -513.07291
     26       2.00000         -18.853344         -513.02559
     27       2.00000         -18.851737         -512.98187
     28       2.00000         -18.851457         -512.97424
     29       2.00000         -18.849121         -512.91067
     30       2.00000         -18.845770         -512.81949
     31       2.00000         -18.843146         -512.74808
     32       2.00000         -18.828662         -512.35396
     33       2.00000          -1.180384          -32.11988
     34       2.00000          -1.169595          -31.82631
     35       2.00000          -1.162672          -31.63793
     36       2.00000          -1.141635          -31.06547
     37       2.00000          -1.139971          -31.02018
     38       2.00000          -1.139434          -31.00559
     39       2.00000          -1.132063          -30.80501
     40       2.00000          -1.128358          -30.70418
     41       2.00000          -1.125824          -30.63523
     42       2.00000          -1.120791          -30.49827
     43       2.00000          -1.119676          -30.46793
     44       2.00000          -1.119020          -30.45008
     45       2.00000          -1.113902          -30.31081
     46       2.00000          -1.113417          -30.29763
     47       2.00000          -1.110403          -30.21561
     48       2.00000          -1.109674          -30.19576
     49       2.00000          -1.105753          -30.08907
     50       2.00000          -1.098797          -29.89979
     51       2.00000          -1.097750          -29.87131
     52       2.00000          -1.092572          -29.73041
     53       2.00000          -1.092050          -29.71618
     54       2.00000          -1.086079          -29.55373
     55       2.00000          -1.079354          -29.37073
     56       2.00000          -1.074015          -29.22544
     57       2.00000          -1.072651          -29.18833
     58       2.00000          -1.070729          -29.13601
     59       2.00000          -1.070215          -29.12203
     60       2.00000          -1.062691          -28.91729
     61       2.00000          -1.061744          -28.89152
     62       2.00000          -1.048512          -28.53146
     63       2.00000          -1.044310          -28.41712
     64       2.00000          -1.019203          -27.73391
     65       2.00000          -0.728349          -19.81939
     66       2.00000          -0.719048          -19.56629
     67       2.00000          -0.718460          -19.55029
     68       2.00000          -0.715762          -19.47686
     69       2.00000          -0.699833          -19.04343
     70       2.00000          -0.699280          -19.02837
     71       2.00000          -0.690383          -18.78629
     72       2.00000          -0.682789          -18.57964
     73       2.00000          -0.676122          -18.39823
     74       2.00000          -0.668808          -18.19918
     75       2.00000          -0.667936          -18.17545
     76       2.00000          -0.664093          -18.07088
     77       2.00000          -0.662821          -18.03628
     78       2.00000          -0.657489          -17.89118
     79       2.00000          -0.652941          -17.76742
     80       2.00000          -0.651313          -17.72313
     81       2.00000          -0.647908          -17.63048
     82       2.00000          -0.647435          -17.61760
     83       2.00000          -0.645147          -17.55536
     84       2.00000          -0.642137          -17.47344
     85       2.00000          -0.638549          -17.37581
     86       2.00000          -0.629291          -17.12387
     87       2.00000          -0.626112          -17.03737
     88       2.00000          -0.622866          -16.94905
     89       2.00000          -0.616107          -16.76512
     90       2.00000          -0.613573          -16.69616
     91       2.00000          -0.613415          -16.69187
     92       2.00000          -0.607490          -16.53063
     93       2.00000          -0.603715          -16.42793
     94       2.00000          -0.599413          -16.31085
     95       2.00000          -0.597446          -16.25733
     96       2.00000          -0.581382          -15.82020
     97       2.00000          -0.569839          -15.50610
     98       2.00000          -0.562180          -15.29770
     99       2.00000          -0.556572          -15.14511
    100       2.00000          -0.555468          -15.11505
    101       2.00000          -0.548934          -14.93725
    102       2.00000          -0.546973          -14.88389
    103       2.00000          -0.545522          -14.84441
    104       2.00000          -0.542855          -14.77183
    105       2.00000          -0.541857          -14.74468
    106       2.00000          -0.538844          -14.66268
    107       2.00000          -0.535812          -14.58017
    108       2.00000          -0.533543          -14.51846
    109       2.00000          -0.531404          -14.46023
    110       2.00000          -0.530846          -14.44504
    111       2.00000          -0.528372          -14.37773
    112       2.00000          -0.527836          -14.36314
    113       2.00000          -0.526990          -14.34013
    114       2.00000          -0.522974          -14.23083
    115       2.00000          -0.519803          -14.14455
    116       2.00000          -0.518797          -14.11719
    117       2.00000          -0.517132          -14.07187
    118       2.00000          -0.515292          -14.02181
    119       2.00000          -0.513930          -13.98475
    120       2.00000          -0.507553          -13.81122
    121       2.00000          -0.506196          -13.77428
    122       2.00000          -0.503560          -13.70256
    123       2.00000          -0.503209          -13.69303
    124       2.00000          -0.498571          -13.56681
    125       2.00000          -0.498251          -13.55809
    126       2.00000          -0.495111          -13.47266
    127       2.00000          -0.491663          -13.37883
    128       2.00000          -0.486965          -13.25100
    129       2.00000          -0.485796          -13.21917
    130       2.00000          -0.484824          -13.19272
    131       2.00000          -0.481018          -13.08915
    132       2.00000          -0.476981          -12.97931
    133       2.00000          -0.474984          -12.92497
    134       2.00000          -0.473487          -12.88424
    135       2.00000          -0.469579          -12.77789
    136       2.00000          -0.468410          -12.74610
    137       2.00000          -0.466897          -12.70492
    138       2.00000          -0.466013          -12.68085
    139       2.00000          -0.465377          -12.66356
    140       2.00000          -0.463620          -12.61575
    141       2.00000          -0.461260          -12.55151
    142       2.00000          -0.460475          -12.53017
    143       2.00000          -0.459580          -12.50580
    144       2.00000          -0.458996          -12.48993
    145       2.00000          -0.457008          -12.43582
    146       2.00000          -0.455946          -12.40692
    147       2.00000          -0.454524          -12.36823
    148       2.00000          -0.453559          -12.34196
    149       2.00000          -0.451845          -12.29533
    150       2.00000          -0.448779          -12.21189
    151       2.00000          -0.446588          -12.15228
    152       2.00000          -0.445637          -12.12641
    153       2.00000          -0.445068          -12.11091
    154       2.00000          -0.442060          -12.02905
    155       2.00000          -0.441678          -12.01868
    156       2.00000          -0.440260          -11.98007
    157       2.00000          -0.438636          -11.93589
    158       2.00000          -0.435935          -11.86238
    159       2.00000          -0.432297          -11.76341
    160       2.00000          -0.421878          -11.47988
    161       0.00000          -0.176658           -4.80710
    162       0.00000          -0.121870           -3.31626
    163       0.00000          -0.116454           -3.16887
    164       0.00000          -0.110500           -3.00685
    165       0.00000          -0.105533           -2.87169
    166       0.00000          -0.102881           -2.79953
    167       0.00000          -0.099229           -2.70015
    168       0.00000          -0.074849           -2.03675
    169       0.00000          -0.071846           -1.95502
    170       0.00000          -0.070802           -1.92663
    171       0.00000          -0.063544           -1.72911
    172       0.00000          -0.059718           -1.62502
    173       0.00000          -0.055656           -1.51447
    174       0.00000          -0.053080           -1.44439
    175       0.00000          -0.044875           -1.22111
    176       0.00000          -0.041802           -1.13748
    177       0.00000          -0.040583           -1.10432
    178       0.00000          -0.033202           -0.90348
    179       0.00000          -0.029311           -0.79759
    180       0.00000          -0.022653           -0.61643
    181       0.00000          -0.015181           -0.41309
    182       0.00000          -0.011733           -0.31926
    183       0.00000          -0.006327           -0.17217
    184       0.00000           0.003613            0.09830
    185       0.00000           0.005851            0.15921
    186       0.00000           0.012422            0.33802
    187       0.00000           0.014067            0.38278
    188       0.00000           0.019038            0.51806
    189       0.00000           0.020792            0.56579
    190       0.00000           0.028483            0.77507
    191       0.00000           0.031206            0.84916
    192       0.00000           0.033396            0.90874
    193       0.00000           0.036706            0.99883
    194       0.00000           0.038405            1.04506
    195       0.00000           0.043563            1.18541
    196       0.00000           0.048304            1.31442
    197       0.00000           0.050769            1.38149
    198       0.00000           0.052487            1.42823
    199       0.00000           0.056112            1.52687
    200       0.00000           0.057542            1.56581
    201       0.00000           0.062018            1.68759
    202       0.00000           0.065448            1.78092
    203       0.00000           0.069321            1.88633
    204       0.00000           0.070118            1.90801
    205       0.00000           0.073916            2.01135
    206       0.00000           0.075409            2.05200
    207       0.00000           0.079076            2.15177
    208       0.00000           0.080261            2.18402
    209       0.00000           0.084611            2.30239
    210       0.00000           0.087709            2.38668
    211       0.00000           0.088516            2.40865
    212       0.00000           0.091015            2.47664
    213       0.00000           0.095776            2.60620
    214       0.00000           0.097212            2.64527
    215       0.00000           0.102477            2.78855
    216       0.00000           0.108748            2.95917
    217       0.00000           0.113509            3.08875
    218       0.00000           0.117880            3.20768
    219       0.00000           0.118627            3.22800
    220       0.00000           0.123105            3.34986
    221       0.00000           0.123877            3.37086
    222       0.00000           0.128360            3.49285
    223       0.00000           0.135463            3.68614
    224       0.00000           0.139661            3.80036
    225       0.00000           0.145728            3.96545
    226       0.00000           0.150874            4.10548
    227       0.00000           0.157725            4.29191
    228       0.00000           0.161350            4.39056
    229       0.00000           0.167242            4.55089
    230       0.00000           0.167707            4.56355
    231       0.00000           0.175545            4.77683
    232       0.00000           0.182121            4.95576
    233       0.00000           0.189270            5.15030
    234       0.00000           0.195089            5.30865
    235       0.00000           0.198146            5.39183
    236       0.00000           0.208334            5.66906
    237       0.00000           0.213596            5.81224
    238       0.00000           0.220008            5.98672
    239       0.00000           0.227189            6.18211
    240       0.00000           0.231676            6.30421
    241       0.00000           0.238025            6.47700
    242       0.00000           0.246971            6.72042
    243       0.00000           0.256750            6.98653
    244       0.00000           0.261453            7.11450
    245       0.00000           0.264039            7.18488
    246       0.00000           0.270086            7.34942
    247       0.00000           0.277080            7.53973
    248       0.00000           0.279321            7.60070
    249       0.00000           0.284808            7.75002
    250       0.00000           0.291236            7.92493
    251       0.00000           0.295821            8.04970
    252       0.00000           0.300767            8.18429
    253       0.00000           0.309453            8.42066
    254       0.00000           0.315549            8.58653
    255       0.00000           0.322458            8.77453
    256       0.00000           0.326942            8.89656
    257       0.00000           0.334852            9.11180
    258       0.00000           0.339853            9.24788
    259       0.00000           0.344202            9.36620
[...]
  |    H      0     4.527807 A      4.527807 A        1.268855E-16 a.u.
  |    H      0     4.527807 A      4.583499 A       -4.900954E-17 a.u.
  |    H      0     4.527807 A      4.583499 A        4.713786E-16 a.u.
  |    H      2     3.678162 A  2.180220E+05 A            0.556529 a.u.
  |    H      1     3.958095 A  1.721251E+08 A            0.841931 a.u.
  |    H      0     4.527807 A  3.866455E+16 A            0.581436 a.u.
  |    O      0     2.043000 A      2.043000 A       -1.436841E-16 a.u.
  |    O      3     3.498446 A      3.498446 A        3.043453E-17 a.u.
  |    O      3     3.498446 A      3.498446 A        1.541443E-16 a.u.
  |    O      0     3.905335 A      3.905335 A        2.173090E-16 a.u.
  |    O      0     3.905335 A      3.905335 A        7.213445E-17 a.u.
  |    O      0     4.101052 A      4.101052 A        2.361718E-16 a.u.
  |    O      1     4.101052 A      4.101052 A        3.235185E-17 a.u.
  |    O      0     4.359549 A      4.359549 A       -5.329475E-17 a.u.
  |    O      1     4.413171 A      4.413171 A        3.261883E-17 a.u.
  |    O      1     4.522403 A      4.522403 A        6.417997E-16 a.u.
  |    O      1     4.522403 A      4.522403 A        4.224783E-16 a.u.
  |    O      2     4.522403 A      4.522403 A       -4.387647E-16 a.u.
  |    O      0     4.522403 A      4.578029 A        2.602039E-16 a.u.
  |    O      0     4.578029 A      4.578029 A        1.226235E-16 a.u.
  |    O      1     4.578029 A      4.578029 A       -6.107316E-16 a.u.
  |    O      1     4.578029 A      4.578029 A       -2.224438E-16 a.u.
  |    O      2     4.578029 A      4.578029 A       -7.020279E-16 a.u.
  |    O      2     4.522403 A      4.578029 A        1.323470E-15 a.u.
  |    O      2     4.578029 A      4.578029 A        7.923696E-16 a.u.
  |    O      2     4.522403 A      4.578029 A       -9.951815E-16 a.u.
  |    O      0     4.578029 A      4.634338 A       -8.813582E-18 a.u.
  |    O      1     4.578029 A      4.634338 A       -3.325386E-17 a.u.
  |    O      1     4.634338 A      4.634338 A        9.588032E-16 a.u.
  |    O      2     4.578029 A      4.634338 A        1.064715E-17 a.u.
  |    O      2     4.578029 A      4.634338 A       -3.770343E-15 a.u.
  |    O      4     3.251020 A  1.511584E+03 A            1.513372 a.u.
  |    O      3     3.541477 A  1.434166E+04 A            4.293220 a.u.
  |    O      2     4.634338 A  5.584435E+05 A            9.352428 a.u.
  |    O      1     4.634338 A  2.821283E+08 A            2.261940 a.u.
  |    O      0     4.578029 A  4.264100E+16 A            0.641234 a.u.

  | Shrink_full_auxil_basis : there are       38  radial auxiliary wave functions
                            accepted and       5 rejected.
  | Shrink_full_auxil_basis : there are totally                4544 partial auxiliary wave functions.
 
  | Maximal number of product basis functions per thread :   256   256
 
  | Minimal total memory requirement for three-center overlap :      10.450 Gbs
  | Number of local auxiliary basis functions on task:      0   256
  | Number of local auxiliary basis functions on task:      1   256
  | Number of local auxiliary basis functions on task:      2   256
  | Number of local auxiliary basis functions on task:      3   256
  | Number of local auxiliary basis functions on task:      4   256
  | Number of local auxiliary basis functions on task:      5   256
  | Number of local auxiliary basis functions on task:      6   256
  | Number of local auxiliary basis functions on task:      7   256
  | Number of local auxiliary basis functions on task:      8   256
  | Number of local auxiliary basis functions on task:      9   256
  | Number of local auxiliary basis functions on task:     10   256
  | Number of local auxiliary basis functions on task:     11   256
  | Number of local auxiliary basis functions on task:     12   256
  | Number of local auxiliary basis functions on task:     13   256
  | Number of local auxiliary basis functions on task:     14   240
  | Number of local auxiliary basis functions on task:     15   240
  | Number of local auxiliary basis functions on task:     16   240
  | Number of local auxiliary basis functions on task:     17   240
  | 2D aux task distribution:      3 X      6
  | 2D block size (nb_aux_2d):     64
 
  Basis pair condensation :    295296  -->     215174
 
 --------------------------------------------
  Constructing auxiliary basis (full product) ...
 
  Product basis:
  | charge radius: extent of product basis function
  | field radius: extent of its Coulomb potential
  | Species   l  charge radius    field radius  multipol momen
  |    H      1     3.910002 A      3.910002 A       -2.487223E-16 a.u.
  |    H      1     3.958095 A      3.958095 A       -2.441841E-16 a.u.
  |    H      0     4.527807 A      4.527807 A        1.268855E-16 a.u.
  |    H      0     4.527807 A      4.583499 A       -4.900954E-17 a.u.
  |    H      0     4.527807 A      4.583499 A        4.713786E-16 a.u.
  |    H      2     3.678162 A  2.180220E+05 A            0.556529 a.u.
  |    H      1     3.958095 A  1.721251E+08 A            0.841931 a.u.
  |    H      0     4.527807 A  3.866455E+16 A            0.581436 a.u.
  |    O      0     2.043000 A      2.043000 A       -1.436841E-16 a.u.
  |    O      3     3.498446 A      3.498446 A        3.043453E-17 a.u.
  |    O      3     3.498446 A      3.498446 A        1.541443E-16 a.u.
  |    O      0     3.905335 A      3.905335 A        2.173090E-16 a.u.
  |    O      0     3.905335 A      3.905335 A        7.213445E-17 a.u.
  |    O      0     4.101052 A      4.101052 A        2.361718E-16 a.u.
  |    O      1     4.101052 A      4.101052 A        3.235185E-17 a.u.
  |    O      0     4.359549 A      4.359549 A       -5.329475E-17 a.u.
  |    O      1     4.413171 A      4.413171 A        3.261883E-17 a.u.
  |    O      1     4.522403 A      4.522403 A        6.417997E-16 a.u.
  |    O      1     4.522403 A      4.522403 A        4.224783E-16 a.u.
  |    O      2     4.522403 A      4.522403 A       -4.387647E-16 a.u.
  |    O      0     4.522403 A      4.578029 A        2.602039E-16 a.u.
  |    O      0     4.578029 A      4.578029 A        1.226235E-16 a.u.
  |    O      1     4.578029 A      4.578029 A       -6.107316E-16 a.u.
  |    O      1     4.578029 A      4.578029 A       -2.224438E-16 a.u.
  |    O      2     4.578029 A      4.578029 A       -7.020279E-16 a.u.
  |    O      2     4.522403 A      4.578029 A        1.323470E-15 a.u.
  |    O      2     4.578029 A      4.578029 A        7.923696E-16 a.u.
  |    O      2     4.522403 A      4.578029 A       -9.951815E-16 a.u.
  |    O      0     4.578029 A      4.634338 A       -8.813582E-18 a.u.
  |    O      1     4.578029 A      4.634338 A       -3.325386E-17 a.u.
  |    O      1     4.634338 A      4.634338 A        9.588032E-16 a.u.
  |    O      2     4.578029 A      4.634338 A        1.064715E-17 a.u.
  |    O      2     4.578029 A      4.634338 A       -3.770343E-15 a.u.
  |    O      4     3.251020 A  1.511584E+03 A            1.513372 a.u.
  |    O      3     3.541477 A  1.434166E+04 A            4.293220 a.u.
  |    O      2     4.634338 A  5.584435E+05 A            9.352428 a.u.
  |    O      1     4.634338 A  2.821283E+08 A            2.261940 a.u.
  |    O      0     4.578029 A  4.264100E+16 A            0.641234 a.u.

  | Shrink_full_auxil_basis : there are       38  radial auxiliary wave functions
                            accepted and       5 rejected.
  | Shrink_full_auxil_basis : there are totally                4544 partial auxiliary wave functions.
 
  | Maximal number of product basis functions per thread :   256   256
 
  | Minimal total memory requirement for three-center overlap :      10.450 Gbs
  | Number of local auxiliary basis functions on task:      0   256
  | Number of local auxiliary basis functions on task:      1   256
  | Number of local auxiliary basis functions on task:      2   256
  | Number of local auxiliary basis functions on task:      3   256
  | Number of local auxiliary basis functions on task:      4   256
  | Number of local auxiliary basis functions on task:      5   256
  | Number of local auxiliary basis functions on task:      6   256
  | Number of local auxiliary basis functions on task:      7   256
  | Number of local auxiliary basis functions on task:      8   256
  | Number of local auxiliary basis functions on task:      9   256
  | Number of local auxiliary basis functions on task:     10   256
  | Number of local auxiliary basis functions on task:     11   256
  | Number of local auxiliary basis functions on task:     12   256
  | Number of local auxiliary basis functions on task:     13   256
  | Number of local auxiliary basis functions on task:     14   240
  | Number of local auxiliary basis functions on task:     15   240
  | Number of local auxiliary basis functions on task:     16   240
  | Number of local auxiliary basis functions on task:     17   240
  | 2D aux task distribution:      3 X      6
  | 2D block size (nb_aux_2d):     64
 
  Basis pair condensation :    295296  -->     215174
dP_dE (Bohr^3) at every cycle:--->
 (367.230876345385,0.000000000000000E+000) (3.73860995314559,0.000000000000000E+000) (0.678452839991822,0.000000000000000E+000)
 (3.70126039615819,0.000000000000000E+000) (352.152155252993,0.000000000000000E+000) (2.55403257947469,0.000000000000000E+000)
 (0.670991232417438,0.000000000000000E+000) (2.54417171318259,0.000000000000000E+000) (359.941825527821,0.000000000000000E+000)
DFPT polarizability (Bohr^3)        xx        yy        zz        xy        xz        yz
  | Polarizability:--->                       367.230876345                  352.152155253                  359.941825528                    3.738609953                    0.678452840                    2.554032579

DFPT for dielectric_constant:--->  # PARSE DFPT_dielectric_tensor
               1.722540398100839             0.007355854035947             0.001334881178780
               0.007282367394401             1.692872453919856             0.005025154025994
               0.001320200188551             0.005005752405064             1.708198919704706

                                               :  max(cpu_time)    wall_clock(cpu1)
  | Time for  dielectric calculation            :        0.000 s           0.000 s
===========================================================================

------------------------------------------------------------------------------
  Final output of selected total energy values:

  The following output summarizes some interesting total energy values
  at the end of a run (AFTER all relaxation, molecular dynamics, etc.).

  | Total energy of the DFT / Hartree-Fock s.c.f. calculation      :         -66108.182710049 eV
  | Final zero-broadening corrected energy (caution - metals only) :         -66108.182710049 eV
  | For reference only, the value of 1 Hartree used in FHI-aims is :             27.211384500 eV
  | For reference only, the overall average (free atom contribution
  | + realspace contribution) of the electrostatic potential after
  | s.c.f. convergence is                                          :             -5.094189274 eV

  Before relying on these values, please be sure to understand exactly which
  total energy value is referred to by a given number. Different objects may
  all carry the same name 'total energy'. Definitions:

  Total energy of the DFT / Hartree-Fock s.c.f. calculation:
  | Note that this energy does not include ANY quantities calculated after the
  | s.c.f. cycle, in particular not ANY RPA, MP2, etc. many-body perturbation terms.

  Final zero-broadening corrected energy:
  | For metallic systems only, a broadening of the occupation numbers at the Fermi
  | level can be extrapolated back to zero broadening by an electron-gas inspired
  | formula. For all systems that are not real metals, this value can be
  | meaningless and should be avoided.

------------------------------------------------------------------------------
  Methods described in the following list of references were used in this FHI-aims run.
  If you publish the results, please make sure to cite these reference if they apply.
  FHI-aims is an academic code, and for our developers (often, Ph.D. students
  and postdocs), scientific credit in the community is essential.
  Thank you for helping us!

  For any use of FHI-aims, please cite:

    Volker Blum, Ralf Gehrke, Felix Hanke, Paula Havu, Ville Havu,
    Xinguo Ren, Karsten Reuter, and Matthias Scheffler
    'Ab initio molecular simulations with numeric atom-centered orbitals'
    Computer Physics Communications 180, 2175-2196 (2009)
    http://doi.org/10.1016/j.cpc.2009.06.022


  For Hartree-Fock, hybrid functionals, or many-body perturbation theory used in your run, please cite:

    Xinguo Ren, Patrick Rinke, Volker Blum, Juergen Wieferink, Alex Tkatchenko,
    Andrea Sanfilippo, Karsten Reuter, and Matthias Scheffler,
    'Resolution-of-identity approach to Hartree-Fock, hybrid density functionals,
    RPA, MP2, and GW with numeric atom-centered orbital basis functions'
    New Journal of Physics 14, 053020 (2012).
    http://doi.org/10.1088/1367-2630/14/5/053020


  The provided symmetry information was generated with SPGlib:

    Atsushi Togo, Yusuke Seto, Dimitar Pashov
    SPGlib 1.7.3 obtained from http://spglib.sourceforge.net
    Copyright (C) 2008 Atsushi Togo


  The DFPT (perturbation by an electric field) part of the code was used.
  Here is the corresponding reference:

    Honghui Shang, Nathaniel Raimbault, Mariana Rossi,
    Christian Carbogno, Patrick Rinke and Matthias Scheffler,
    'All-Electron, Real-Space Perturbation Theory for Homogeneous
    Electric Fields: Theory, Implementation, and Application within dft'
    New Journal of Physics, 20(7):073040, 2018


  The ELSI infrastructure was used in your run to solve the Kohn-Sham electronic structure.
  Please check out http://elsi-interchange.org to learn more.
  If scalability is important for your project, please acknowledge ELSI by citing:

    V. W-z. Yu, F. Corsetti, A. Garcia, W. P. Huhn, M. Jacquelin, W. Jia,
    B. Lange, L. Lin, J. Lu, W. Mi, A. Seifitokaldani, A. Vazquez-Mayagoitia,
    C. Yang, H. Yang, and V. Blum
    'ELSI: A unified software interface for Kohn-Sham electronic structure solvers'
    Computer Physics Communications 222, 267-285 (2018).
    http://doi.org/10.1016/j.cpc.2017.09.007


  For the real-space grid partitioning and parallelization used in this calculation, please cite:

    Ville Havu, Volker Blum, Paula Havu, and Matthias Scheffler,
    'Efficient O(N) integration for all-electron electronic structure calculation'
    'using numerically tabulated basis functions'
    Journal of Computational Physics 228, 8367-8379 (2009).
    http://doi.org/10.1016/j.jcp.2009.08.008


  The high-level electronic structure method used in your calculation
  employed our efficient localized resolution of identity for the Coulomb operator.
  Some calculations, especially large-scale hybrid density functional theory,
  are only possible thanks to this development. For this feature, please cite:

    Arvid Ihrig, Juergen Wieferink, Igor Ying Zhang, Matti Ropo, Xinguo Ren,
    Patrick Rinke, Matthias Scheffler, and Volker Blum,
    'Accurate localized resolution of identity approach for linear-scaling
    hybrid density functionals and for many-body perturbation theory'
    New Journal of Physics 117, 093020 (2015).
    http://doi.org/10.1088/1367-2630/17/9/093020

  Of course, there are many other important community references, e.g., those cited in the
  above references. Our list is limited to references that describe implementations in the
  FHI-aims code. The reason is purely practical (length of this list) - please credit others as well.

------------------------------------------------------------
          Leaving FHI-aims.
          Date     :  20230221, Time     :  145819.674

          Computational steps:
          | Number of self-consistency cycles          :           45
          | Number of SCF (re)initializations          :            1
          | Number of coupled perturbed self-consistency cycles          :            0
          | Number of CPSCF (re)initializations          :            0

          Detailed time accounting                     :  max(cpu_time)    wall_clock(cpu1)
          | Total time                                  :      486.989 s         500.182 s
          | GPU initialization                          :        1.737 s           6.597 s
          | Preparation time                            :        0.075 s           0.065 s
          | Boundary condition initalization            :        1.337 s           1.338 s
          | Grid partitioning                           :        0.433 s           0.433 s
          | Preloading free-atom quantities on grid     :        2.519 s           2.521 s
          | Free-atom superposition energy              :        0.326 s           0.326 s
          | Total time for integrations                 :       13.781 s          14.209 s
          | Product basis setup: Total time             :        0.000 s           0.000 s
          | Product basis: | 2-center integrations     :(       0.000 s)  (       0.000 s)
          | Product basis: | LVL 3-center & coefficient:(       0.000 s)  (       0.000 s)
          | Total time for solution of K.-S. equations  :        2.980 s           9.241 s
          | Total time for density update               :        9.549 s          10.728 s
          | Total time for mixing & preconditioning     :        9.040 s           9.042 s
          | Total time for Hartree multipole update     :        0.102 s           0.101 s
          | Total time for Hartree multipole sum        :       38.000 s          38.014 s
          | Total time for total energy evaluation      :        0.008 s           0.006 s
          | Total time for DFPT                         :      406.234 s         406.375 s
          | Total time first_order_DM                   :        0.298 s           0.296 s
          | Total time first_order_density              :       85.726 s          85.732 s
          | Total time first_order_potential            :       54.534 s          54.552 s
          | Total time first_order_H                    :      170.333 s         170.388 s
          | Total time solving of Sternheimer equations :        0.186 s           0.184 s
          | Total time for dielectric constant          :        0.000 s           0.000 s
          | Total time momentum matrix                  :        0.000 s           0.000 s

          GPU acceleration has been used for charge density update.
          GPU acceleration has been used for real-space Hamiltonian integration.
          Due to GPU usage, wall_clock(cpu1) will give a more reliable estimate for timings.

          Partial memory accounting:
          | Residual value for overall tracked memory usage across tasks:     0.000000 MB (should be 0.000000 MB)
          | Peak values for overall tracked memory usage:
          |   Minimum:      119.998 MB (on task  0 after allocating DFPT_pulay_mixing::pulay_mix::alphas)
          |   Maximum:      119.998 MB (on task  0 after allocating DFPT_pulay_mixing::pulay_mix::alphas)
          |   Average:      119.998 MB
          | Largest tracked array allocation:
          |   Minimum:       42.806 MB (DFPT_pulay_mixing::initialize_pulay_mixing::X_in_diffs on task  0)
          |   Maximum:       42.806 MB (DFPT_pulay_mixing::initialize_pulay_mixing::X_in_diffs on task  0)
          |   Average:       42.806 MB
          Note:  These values currently only include a subset of arrays which are explicitly tracked.
          The "true" memory usage will be greater.

          Have a nice day.
------------------------------------------------------------
