------------------------------------------------------------
          Invoking FHI-aims ...

          When using FHI-aims, please cite the following reference:

            Volker Blum, Ralf Gehrke, Felix Hanke, Paula Havu,
            Ville Havu, Xinguo Ren, Karsten Reuter, and Matthias Scheffler,
            'Ab Initio Molecular Simulations with Numeric Atom-Centered Orbitals',
            Computer Physics Communications 180, 2175-2196 (2009)

          In addition, many other developments in FHI-aims are likely important for
          your particular application. A partial list of references is given at the end of
          this file. Thank you for giving credit to the authors of these developments.

          For any questions about FHI-aims, please visit our slack channel at

            https://fhi-aims.slack.com

          and our main development and support site at

            https://aims-git.rz-berlin.mpg.de .

          The latter site, in particular, has a wiki to collect information, as well
          as an issue tracker to log discussions, suggest improvements, and report issues
          or bugs. https://aims-git.rz-berlin.mpg.de is also the main development site
          of the project and all new and updated code versions can be obtained there.
          Please send an email to aims-coordinators@fhi-berlin.mpg.de and we will add
          you to these sites. They are for you and everyone is welcome there.

------------------------------------------------------------



  Date     :  20230221, Time     :  143307.829
  Time zero on CPU 1             :   0.437144000000000E+00  s.
  Internal wall clock time zero  :           446221987.829  s.

  FHI-aims created a unique identifier for this run for later identification
  aims_uuid : 512E6D83-3531-4928-A007-454FA3A128C2

  Build configuration of the current instance of FHI-aims
  -------------------------------------------------------
  FHI-aims version      : 221103
  Commit number         : 42523251a
  CMake host system     : Linux-5.3.18-150300.59.68-default
  CMake version         : 3.17.0
  Fortran compiler      : /mpcdf/soft/SLE_15/packages/x86_64/intel_oneapi/2021.3/mpi/2021.3.0/bin/mpiifort (Intel) version 20.2.3.20210609
  Fortran compiler flags: -O3 -ip -fp-model precise
  C compiler            : /mpcdf/soft/SLE_15/packages/x86_64/intel/2021.3.0/bin/icc (Intel) version 20.2.3.20210609
  C compiler flags      : -O3 -ip -fp-model precise -std=gnu99
  CUDA compiler         : /mpcdf/soft/SLE_15/packages/x86_64/cuda/11.6.2/bin/nvcc
  CUDA compiler flags   : -O3 -DAdd_ -lcublas
  HIP compiler          :
  HIP compiler flags    :
  HIP GPU arch          :
  ELPA2 kernel          : AVX512
  Using MPI
  Using ScaLAPACK
  Using LibXC
  Using CUDA
  Using i-PI
  Using RLSY
  Linking against: /mpcdf/soft/SLE_15/packages/x86_64/cuda/11.6.2/lib64/libcublas.so
                   /mpcdf/soft/SLE_15/packages/x86_64/cuda/11.6.2/lib64/libcudart.so
                   /mpcdf/soft/SLE_15/packages/x86_64/intel_oneapi/2021.3/mkl/latest/lib/intel64/libmkl_intel_lp64.so
                   /mpcdf/soft/SLE_15/packages/x86_64/intel_oneapi/2021.3/mkl/latest/lib/intel64/libmkl_sequential.so
                   /mpcdf/soft/SLE_15/packages/x86_64/intel_oneapi/2021.3/mkl/latest/lib/intel64/libmkl_core.so
                   /mpcdf/soft/SLE_15/packages/x86_64/intel_oneapi/2021.3/mkl/latest/lib/intel64/libmkl_blacs_intelmpi_lp64.so
                   /mpcdf/soft/SLE_15/packages/x86_64/intel_oneapi/2021.3/mkl/latest/lib/intel64/libmkl_scalapack_lp64.so

  Using       18 parallel tasks.
  Task        0 on host adag037 reporting.
  Task        1 on host adag037 reporting.
  Task        2 on host adag037 reporting.
  Task        3 on host adag037 reporting.
  Task        4 on host adag037 reporting.
  Task        5 on host adag037 reporting.
  Task        6 on host adag037 reporting.
  Task        7 on host adag037 reporting.
  Task        8 on host adag037 reporting.
  Task        9 on host adag037 reporting.
  Task       10 on host adag037 reporting.
  Task       11 on host adag037 reporting.
  Task       12 on host adag037 reporting.
  Task       13 on host adag037 reporting.
  Task       14 on host adag037 reporting.
  Task       15 on host adag037 reporting.
  Task       16 on host adag037 reporting.
  Task       17 on host adag037 reporting.

  Obtaining array dimensions for all initial allocations:
  
  -----------------------------------------------------------------------
  Parsing control.in (first pass over file, find array dimensions only).
  The contents of control.in will be repeated verbatim below
  unless switched off by setting 'verbatim_writeout .false.' .
  in the first line of control.in .
  -----------------------------------------------------------------------
  
  #########################################################################################
  #
  #  Volker Blum, 2017 : Test run input file control.in for simple H2O
  #
  #########################################################################################
  #
  #  Physical model
  #
    xc                 pw-lda
    spin               none
    relativistic       none
    charge             0.
  
    use_gpu
  
    DFPT dielectric
    ri_density_restart write
    ri_rho1 write
  #  ri_density_restart read 0
  #  ri_rho1 read
    ri_full_output .true.
    sc_accuracy_rho    1d-6
  #  use_calculate_fock_matrix_old .false.
  #  wave_threshold 1e-8
    k_grid 1 1 1
  #  output cube eigenstate 160
  #  output cube eigenstate 161
    wave_threshold 1e-8
    default_prodbas_acc 1e-6
    default_max_l_prodbas 6
  #
  #  Relaxation
  #
  #  relax_geometry   bfgs 1.e-2
  #
  
  ################################################################################
  
  
  ################################################################################
  #
  #  FHI-aims code project
  #  VB, Fritz-Haber Institut, 2009
  #
  #  Suggested "light" defaults for H atom (to be pasted into control.in file)
  #  Be sure to double-check any results obtained with these settings for post-processing,
  #  e.g., with the "tight" defaults and larger basis sets.
  #
  ################################################################################
    species        H
  #     global species definitions
      nucleus             1
      mass                1.00794
  #
      l_hartree           4
  #
      cut_pot             3.5  1.5  1.0
      basis_dep_cutoff    1e-4
  #
      radial_base         24 5.0
      radial_multiplier   1
      angular_grids       specified
        division   0.2421   50
        division   0.3822  110
        division   0.4799  194
        division   0.5341  302
  #      division   0.5626  434
  #      division   0.5922  590
  #      division   0.6542  770
  #      division   0.6868 1202
  #      outer_grid  770
        outer_grid  302
  ################################################################################
  #
  #  Definition of "minimal" basis
  #
  ################################################################################
  #     valence basis states
      valence      1  s   1.
  #     ion occupancy
      ion_occ      1  s   0.5
  ################################################################################
  #
  #  Suggested additional basis functions. For production calculations,
  #  uncomment them one after another (the most important basis functions are
  #  listed first).
  #
  #  Basis constructed for dimers: 0.5 A, 0.7 A, 1.0 A, 1.5 A, 2.5 A
  #
  ################################################################################
  #  "First tier" - improvements: -1014.90 meV to -62.69 meV
       hydro 2 s 2.1
       hydro 2 p 3.5
  #  "Second tier" - improvements: -12.89 meV to -1.83 meV
  #     hydro 1 s 0.85
  #     hydro 2 p 3.7
  #     hydro 2 s 1.2
  #     hydro 3 d 7
  #  "Third tier" - improvements: -0.25 meV to -0.12 meV
  #     hydro 4 f 11.2
  #     hydro 3 p 4.8
  #     hydro 4 d 9
  #     hydro 3 s 3.2
  ################################################################################
  #
  #  FHI-aims code project
  #  VB, Fritz-Haber Institut, 2009
  #
  #  Suggested "light" defaults for O atom (to be pasted into control.in file)
  #  Be sure to double-check any results obtained with these settings for post-processing,
  #  e.g., with the "tight" defaults and larger basis sets.
  #
  ################################################################################
    species        O
  #     global species definitions
      nucleus             8
      mass                15.9994
  #
      l_hartree           4
  #
      cut_pot             3.5  1.5  1.0
      basis_dep_cutoff    1e-4
  #
      radial_base         36 5.0
      radial_multiplier   1
       angular_grids specified
        division   0.2659   50
        division   0.4451  110
        division   0.6052  194
        division   0.7543  302
  #      division   0.8014  434
  #      division   0.8507  590
  #      division   0.8762  770
  #      division   0.9023  974
  #      division   1.2339 1202
  #      outer_grid 974
        outer_grid 302
  ################################################################################
  #
  #  Definition of "minimal" basis
  #
  ################################################################################
  #     valence basis states
      valence      2  s   2.
      valence      2  p   4.
  #     ion occupancy
      ion_occ      2  s   1.
      ion_occ      2  p   3.
  ################################################################################
  #
  #  Suggested additional basis functions. For production calculations,
  #  uncomment them one after another (the most important basis functions are
  #  listed first).
  #
  #  Constructed for dimers: 1.0 A, 1.208 A, 1.5 A, 2.0 A, 3.0 A
  #
  ################################################################################
  #  "First tier" - improvements: -699.05 meV to -159.38 meV
       hydro 2 p 1.8
       hydro 3 d 7.6
       hydro 3 s 6.4
  #  "Second tier" - improvements: -49.91 meV to -5.39 meV
  #     hydro 4 f 11.6
  #     hydro 3 p 6.2
  #     hydro 3 d 5.6
  #     hydro 5 g 17.6
  #     hydro 1 s 0.75
  #  "Third tier" - improvements: -2.83 meV to -0.50 meV
  #     ionic 2 p auto
  #     hydro 4 f 10.8
  #     hydro 4 d 4.7
  #     hydro 2 s 6.8
  #  "Fourth tier" - improvements: -0.40 meV to -0.12 meV
  #     hydro 3 p 5
  #     hydro 3 s 3.3
  #     hydro 5 g 15.6
  #     hydro 4 f 17.6
  #     hydro 4 d 14
  # Further basis functions - -0.08 meV and below
  #     hydro 3 s 2.1
  #     hydro 4 d 11.6
  #     hydro 3 p 16
  #     hydro 2 s 17.2
  
  -----------------------------------------------------------------------
  Completed first pass over input file control.in .
  -----------------------------------------------------------------------
  
  
  -----------------------------------------------------------------------
  Parsing geometry.in (first pass over file, find array dimensions only).
  The contents of geometry.in will be repeated verbatim below
  unless switched off by setting 'verbatim_writeout .false.' .
  in the first line of geometry.in .
  -----------------------------------------------------------------------
  
  #=======================================================
  # FHI-aims file: /ada/ptmp/mpsd/alewis/bulk_water/qmdata/data/geoms/49.in
  # Created using the Atomic Simulation Environment (ASE)
  # Tue Feb 21 11:23:37 2023
  #=======================================================
  lattice_vector 9.8039199999999997 0.0000000000000000 0.0000000000000000
  lattice_vector 0.0000000000000000 9.8039199999999997 0.0000000000000000
  lattice_vector 0.0000000000000000 0.0000000000000000 9.8039199999999997
  atom 7.2730100000000002 2.7638799999999999 -5.7772899999999998 O
  atom 6.8177199999999996 2.5993100000000000 -4.9632199999999997 H
  atom 6.6195399999999998 2.9218199999999999 -6.4461599999999999 H
  atom 7.3892100000000003 5.3415800000000004 -7.1199800000000000 O
  atom 7.6227200000000002 6.2723000000000004 -7.4000300000000001 H
  atom 7.2682200000000003 5.1026600000000002 -6.1156199999999998 H
  atom 5.0467599999999999 4.2872500000000002 7.1248699999999996 O
  atom 5.6032400000000004 4.9466900000000003 7.6921400000000002 H
  atom 4.2450999999999999 4.0568600000000004 7.4821299999999997 H
  atom 3.9087200000000002 6.2940199999999997 5.2415300000000000 O
  atom 3.5553100000000000 6.8310100000000000 6.0501100000000001 H
  atom 4.2682000000000002 5.5672499999999996 5.7302799999999996 H
  atom -5.1127599999999997 -2.3709799999999999 9.8660800000000002 O
  atom -5.6271899999999997 -2.9252500000000001 10.5601000000000003 H
  atom -5.9005299999999998 -2.2399000000000000 9.3516999999999992 H
  atom 3.2042500000000000 -2.0061200000000001 17.3109999999999999 O
  atom 3.5316000000000001 -1.1482800000000000 17.6482999999999990 H
  atom 2.2310200000000000 -1.8726700000000001 16.8313999999999986 H
  atom 3.3886599999999998 11.2849000000000004 5.0050200000000000 O
  atom 3.6496900000000001 10.8155999999999999 4.2609500000000002 H
  atom 2.5881099999999999 10.8900000000000006 5.2180600000000004 H
  atom -4.8090599999999997 -7.8186799999999996 0.0539060000000000 O
  atom -4.0790199999999999 -8.3185400000000005 0.4959200000000000 H
  atom -4.8741300000000001 -7.2791800000000002 0.7374250000000000 H
  atom 0.7841410000000000 -11.7111999999999998 12.8645999999999994 O
  atom -0.1988140000000000 -11.7870000000000008 12.6677999999999997 H
  atom 0.8612840000000000 -11.9837000000000007 13.8193999999999999 H
  atom 10.4636999999999993 -1.9323800000000000 6.2399500000000003 O
  atom 10.6356999999999999 -1.0243000000000000 5.9786700000000002 H
  atom 10.1936000000000000 -1.9368000000000001 7.1743499999999996 H
  atom 0.2749380000000000 12.5791000000000004 -2.5266400000000000 O
  atom 1.0645600000000000 12.9657000000000000 -2.1373600000000001 H
  atom -0.0066170000000000 13.2187000000000001 -3.0445899999999999 H
  atom 12.4539000000000009 3.8200599999999998 8.5423100000000005 O
  atom 11.9021000000000008 4.4052600000000002 9.1105300000000007 H
  atom 12.8316999999999997 3.3299400000000001 9.2588399999999993 H
  atom 1.4682100000000000 10.9537999999999993 2.1945899999999998 O
  atom 0.9950830000000001 11.7889999999999997 2.6316999999999999 H
  atom 0.8707070000000000 10.7265999999999995 1.5864300000000000 H
  atom -0.3798530000000000 7.4442800000000000 8.6062600000000007 O
  atom -0.2355300000000000 8.1565399999999997 9.2191299999999998 H
  atom -0.3656440000000000 6.4608699999999999 8.9749599999999994 H
  atom 3.2899600000000002 6.8875700000000002 2.6539799999999998 O
  atom 3.6156799999999998 6.8330700000000002 3.6067800000000001 H
  atom 2.4071099999999999 7.4149599999999998 2.6617099999999998 H
  atom -2.9519700000000002 6.6107699999999996 5.1187899999999997 O
  atom -3.9866799999999998 6.6928900000000002 5.2164799999999998 H
  atom -2.7285300000000001 7.6056400000000002 5.3873800000000003 H
  atom -13.4735999999999994 -0.1820080000000000 1.0207100000000000 O
  atom -14.0151000000000003 -0.0970920000000000 1.7936000000000001 H
  atom -13.9245999999999999 -0.9403700000000000 0.5579460000000001 H
  atom -7.1512900000000004 3.6217800000000002 3.5989900000000001 O
  atom -6.6508599999999998 2.9152700000000000 4.2228700000000003 H
  atom -6.8300000000000001 4.5244400000000002 4.3816199999999998 H
  atom 8.3879500000000000 10.1715000000000000 4.2439299999999998 O
  atom 7.7400200000000003 9.6666500000000006 4.7873500000000000 H
  atom 8.0646000000000004 11.0800000000000001 4.0945099999999996 H
  atom -0.4907260000000000 -4.6608599999999996 -13.4658999999999995 O
  atom 0.1730060000000000 -4.0982099999999999 -13.8169000000000004 H
  atom -1.3239900000000000 -4.3871200000000004 -13.8834000000000000 H
  atom 6.5396500000000000 -7.7788500000000003 -3.2498800000000001 O
  atom 6.1202399999999999 -7.0367199999999999 -3.0679599999999998 H
  atom 7.0724999999999998 -8.1603700000000003 -2.5374599999999998 H
  atom 4.3202900000000000 20.0015999999999998 7.6211399999999996 O
  atom 4.6126100000000001 20.4731999999999985 8.3406000000000002 H
  atom 4.1495100000000003 20.5185999999999993 6.8314500000000002 H
  atom 8.4384099999999993 4.1500100000000000 9.9498200000000008 O
  atom 8.0103700000000000 4.2577400000000001 10.8138000000000005 H
  atom 8.0286700000000000 4.7709299999999999 9.3195700000000006 H
  atom 5.3823400000000001 13.4261999999999997 21.9959999999999987 O
  atom 5.9649000000000001 14.1747999999999994 21.9570000000000007 H
  atom 4.4128600000000002 13.4827999999999992 22.3179000000000016 H
  atom 3.8218999999999999 -0.2106330000000000 2.7458000000000000 O
  atom 3.6391800000000001 -1.1906699999999999 2.7446000000000002 H
  atom 3.0039899999999999 0.2825700000000000 2.6473000000000000 H
  atom 6.3946300000000003 9.1920800000000007 5.9083800000000002 O
  atom 6.2324200000000003 10.1896000000000004 6.1139500000000000 H
  atom 5.9001200000000003 8.5963899999999995 6.5317600000000002 H
  atom -3.0356299999999998 15.8524999999999991 8.3022399999999994 O
  atom -2.5232800000000002 16.5393000000000008 7.8230000000000004 H
  atom -3.7659500000000001 16.2269000000000005 8.7943200000000008 H
  atom 11.0998999999999999 15.0989000000000004 0.5645760000000000 O
  atom 11.0732999999999997 14.9373000000000005 1.5017100000000001 H
  atom 10.1568000000000005 14.7453000000000003 0.3332170000000000 H
  atom 0.9535439999999999 10.7190999999999992 5.4859400000000003 O
  atom 0.6208380000000000 11.5191999999999997 6.0755100000000004 H
  atom 0.3165220000000000 10.6821000000000002 4.7825100000000003 H
  atom 8.0869999999999997 1.5997200000000000 -0.8726960000000000 O
  atom 9.0866299999999995 1.7971100000000000 -1.1340500000000000 H
  atom 7.8467099999999999 2.5611899999999999 -0.6014690000000000 H
  atom 9.6645199999999996 -0.2905620000000000 10.2932000000000006 O
  atom 9.0846900000000002 -0.4198020000000000 11.0401000000000007 H
  atom 8.8384699999999992 0.2680350000000000 10.0129999999999999 H
  atom -1.9254599999999999 -1.5878500000000000 2.4334300000000000 O
  atom -2.4996000000000000 -1.0841300000000000 1.7709200000000000 H
  atom -1.8378500000000000 -0.8917800000000000 2.8969700000000000 H
  
  -----------------------------------------------------------------------
  Completed first pass over input file geometry.in .
  -----------------------------------------------------------------------
  

  Basic array size parameters:
  | Number of species                 :        2
  | Number of atoms                   :       96
  | Number of lattice vectors         :        3
  | Max. basis fn. angular momentum   :        2
  | Max. atomic/ionic basis occupied n:        2
  | Max. number of basis fn. types    :        2
  | Max. radial fns per species/type  :        3
  | Max. logarithmic grid size        :     1301
  | Max. radial integration grid size :       36
  | Max. angular integration grid size:      302
  | Max. angular grid division number :        8
  | Radial grid for Hartree potential :     1301
  | Number of spin channels           :        1

------------------------------------------------------------
          Reading file control.in.
------------------------------------------------------------
  XC: Using Perdew-Wang parametrisation of Ceperley-Alder LDA.
  Spin treatment: No spin polarisation.
  Non-relativistic treatment of kinetic energy.
  Charge =   0.000000E+00: Neutral system requested explicitly.
  DFPT calculation will begin after the DFT/HF calculation.
  Convergence accuracy of self-consistent charge density:  0.1000E-05
  Found k-point grid:         1         1         1
  Threshold value for wave function integration:  0.1000E-07
 
  Reading configuration options for species H                   .
  | Found nuclear charge :   1.0000
  | Found atomic mass :    1.00794000000000      amu
  | Found l_max for Hartree potential  :   4
  | Found cutoff potl. onset [A], width [A], scale factor :    3.50000    1.50000    1.00000
  | Threshold for basis-dependent cutoff potential is   0.100000E-03
  | Found data for basic radial integration grid :    24 points, outermost radius =    5.000 A
  | Found multiplier for basic radial grid :   1
  | Found angular grid specification: user-specified.
  | Specified grid contains     5 separate shells.
  | Check grid settings after all constraints further below.
  | Found free-atom valence shell :  1 s   1.000
  | No ionic wave fns used. Skipping ion_occ.
  | Found hydrogenic basis function :  2 s   2.100
  | Found hydrogenic basis function :  2 p   3.500
  Species H                   : Missing cutoff potential type.
  Defaulting to exp(1/x)/(1-x)^2 type cutoff potential.
  Species H : No 'logarithmic' tag. Using default grid for free atom:
  | Default logarithmic grid data [bohr] : 0.1000E-03 0.1000E+03 0.1012E+01
  Species H : On-site basis accuracy parameter (for Gram-Schmidt orthonormalisation) not specified.
  Using default value basis_acc =  0.1000000E-03.
  Species H                   : Using default innermost maximum threshold i_radial=  2 for radial functions.
  Species H                   : Default cutoff onset for free atom density etc. : 0.35000000E+01 AA.
  Species H                   : Basic radial grid will be enhanced according to radial_multiplier =   1, to contain    24 grid points.
 
  Reading configuration options for species O                   .
  | Found nuclear charge :   8.0000
  | Found atomic mass :    15.9994000000000      amu
  | Found l_max for Hartree potential  :   4
  | Found cutoff potl. onset [A], width [A], scale factor :    3.50000    1.50000    1.00000
  | Threshold for basis-dependent cutoff potential is   0.100000E-03
  | Found data for basic radial integration grid :    36 points, outermost radius =    5.000 A
  | Found multiplier for basic radial grid :   1
  | Found angular grid specification: user-specified.
  | Specified grid contains     5 separate shells.
  | Check grid settings after all constraints further below.
  | Found free-atom valence shell :  2 s   2.000
  | Found free-atom valence shell :  2 p   4.000
  | No ionic wave fns used. Skipping ion_occ.
  | No ionic wave fns used. Skipping ion_occ.
  | Found hydrogenic basis function :  2 p   1.800
  | Found hydrogenic basis function :  3 d   7.600
  | Found hydrogenic basis function :  3 s   6.400
  Species O                   : Missing cutoff potential type.
  Defaulting to exp(1/x)/(1-x)^2 type cutoff potential.
  Species O : No 'logarithmic' tag. Using default grid for free atom:
  | Default logarithmic grid data [bohr] : 0.1000E-03 0.1000E+03 0.1012E+01
  Species O : On-site basis accuracy parameter (for Gram-Schmidt orthonormalisation) not specified.
  Using default value basis_acc =  0.1000000E-03.
  Species O                   : Using default innermost maximum threshold i_radial=  2 for radial functions.
  Species O                   : Default cutoff onset for free atom density etc. : 0.35000000E+01 AA.
  Species O                   : Basic radial grid will be enhanced according to radial_multiplier =   1, to contain    36 grid points.
 
  Finished reading input file 'control.in'.
 
------------------------------------------------------------


------------------------------------------------------------
          Reading geometry description geometry.in.
------------------------------------------------------------
  | The smallest distance between any two atoms is         0.84086758 AA.
  | The first atom of this pair is atom number                     94 .
  | The second atom of this pair is atom number                    96 .
  | Wigner-Seitz cell of the first atom image           0     0     0 .
  | (The Wigner-Seitz cell of the second atom is 0 0 0  by definition.)

  Symmetry information by spglib:
  | Precision set to  0.1E-04
  | Number of Operations  : 1
  | Space group           : 1
  | International         : P1
  | Schoenflies           : C1^1
  Input structure read successfully.
  The structure contains       96 atoms,  and a total of        320.000 electrons.

  Input geometry:
  | Unit cell:
  |        9.80392000        0.00000000        0.00000000
  |        0.00000000        9.80392000        0.00000000
  |        0.00000000        0.00000000        9.80392000
  | Atomic structure:
  |       Atom                x [A]            y [A]            z [A]
  |    1: Species O             7.27301000        2.76388000       -5.77729000
  |    2: Species H             6.81772000        2.59931000       -4.96322000
  |    3: Species H             6.61954000        2.92182000       -6.44616000
  |    4: Species O             7.38921000        5.34158000       -7.11998000
  |    5: Species H             7.62272000        6.27230000       -7.40003000
  |    6: Species H             7.26822000        5.10266000       -6.11562000
  |    7: Species O             5.04676000        4.28725000        7.12487000
  |    8: Species H             5.60324000        4.94669000        7.69214000
  |    9: Species H             4.24510000        4.05686000        7.48213000
  |   10: Species O             3.90872000        6.29402000        5.24153000
  |   11: Species H             3.55531000        6.83101000        6.05011000
  |   12: Species H             4.26820000        5.56725000        5.73028000
  |   13: Species O            -5.11276000       -2.37098000        9.86608000
  |   14: Species H            -5.62719000       -2.92525000       10.56010000
  |   15: Species H            -5.90053000       -2.23990000        9.35170000
  |   16: Species O             3.20425000       -2.00612000       17.31100000
  |   17: Species H             3.53160000       -1.14828000       17.64830000
  |   18: Species H             2.23102000       -1.87267000       16.83140000
  |   19: Species O             3.38866000       11.28490000        5.00502000
  |   20: Species H             3.64969000       10.81560000        4.26095000
  |   21: Species H             2.58811000       10.89000000        5.21806000
  |   22: Species O            -4.80906000       -7.81868000        0.05390600
  |   23: Species H            -4.07902000       -8.31854000        0.49592000
  |   24: Species H            -4.87413000       -7.27918000        0.73742500
  |   25: Species O             0.78414100      -11.71120000       12.86460000
  |   26: Species H            -0.19881400      -11.78700000       12.66780000
  |   27: Species H             0.86128400      -11.98370000       13.81940000
  |   28: Species O            10.46370000       -1.93238000        6.23995000
  |   29: Species H            10.63570000       -1.02430000        5.97867000
  |   30: Species H            10.19360000       -1.93680000        7.17435000
  |   31: Species O             0.27493800       12.57910000       -2.52664000
  |   32: Species H             1.06456000       12.96570000       -2.13736000
  |   33: Species H            -0.00661700       13.21870000       -3.04459000
  |   34: Species O            12.45390000        3.82006000        8.54231000
  |   35: Species H            11.90210000        4.40526000        9.11053000
  |   36: Species H            12.83170000        3.32994000        9.25884000
  |   37: Species O             1.46821000       10.95380000        2.19459000
  |   38: Species H             0.99508300       11.78900000        2.63170000
  |   39: Species H             0.87070700       10.72660000        1.58643000
  |   40: Species O            -0.37985300        7.44428000        8.60626000
  |   41: Species H            -0.23553000        8.15654000        9.21913000
  |   42: Species H            -0.36564400        6.46087000        8.97496000
  |   43: Species O             3.28996000        6.88757000        2.65398000
  |   44: Species H             3.61568000        6.83307000        3.60678000
  |   45: Species H             2.40711000        7.41496000        2.66171000
  |   46: Species O            -2.95197000        6.61077000        5.11879000
  |   47: Species H            -3.98668000        6.69289000        5.21648000
  |   48: Species H            -2.72853000        7.60564000        5.38738000
  |   49: Species O           -13.47360000       -0.18200800        1.02071000
  |   50: Species H           -14.01510000       -0.09709200        1.79360000
  |   51: Species H           -13.92460000       -0.94037000        0.55794600
  |   52: Species O            -7.15129000        3.62178000        3.59899000
  |   53: Species H            -6.65086000        2.91527000        4.22287000
  |   54: Species H            -6.83000000        4.52444000        4.38162000
  |   55: Species O             8.38795000       10.17150000        4.24393000
  |   56: Species H             7.74002000        9.66665000        4.78735000
  |   57: Species H             8.06460000       11.08000000        4.09451000
  |   58: Species O            -0.49072600       -4.66086000      -13.46590000
  |   59: Species H             0.17300600       -4.09821000      -13.81690000
  |   60: Species H            -1.32399000       -4.38712000      -13.88340000
  |   61: Species O             6.53965000       -7.77885000       -3.24988000
  |   62: Species H             6.12024000       -7.03672000       -3.06796000
  |   63: Species H             7.07250000       -8.16037000       -2.53746000
  |   64: Species O             4.32029000       20.00160000        7.62114000
  |   65: Species H             4.61261000       20.47320000        8.34060000
  |   66: Species H             4.14951000       20.51860000        6.83145000
  |   67: Species O             8.43841000        4.15001000        9.94982000
  |   68: Species H             8.01037000        4.25774000       10.81380000
  |   69: Species H             8.02867000        4.77093000        9.31957000
  |   70: Species O             5.38234000       13.42620000       21.99600000
  |   71: Species H             5.96490000       14.17480000       21.95700000
  |   72: Species H             4.41286000       13.48280000       22.31790000
  |   73: Species O             3.82190000       -0.21063300        2.74580000
  |   74: Species H             3.63918000       -1.19067000        2.74460000
  |   75: Species H             3.00399000        0.28257000        2.64730000
  |   76: Species O             6.39463000        9.19208000        5.90838000
  |   77: Species H             6.23242000       10.18960000        6.11395000
  |   78: Species H             5.90012000        8.59639000        6.53176000
  |   79: Species O            -3.03563000       15.85250000        8.30224000
  |   80: Species H            -2.52328000       16.53930000        7.82300000
  |   81: Species H            -3.76595000       16.22690000        8.79432000
  |   82: Species O            11.09990000       15.09890000        0.56457600
  |   83: Species H            11.07330000       14.93730000        1.50171000
  |   84: Species H            10.15680000       14.74530000        0.33321700
  |   85: Species O             0.95354400       10.71910000        5.48594000
  |   86: Species H             0.62083800       11.51920000        6.07551000
  |   87: Species H             0.31652200       10.68210000        4.78251000
  |   88: Species O             8.08700000        1.59972000       -0.87269600
  |   89: Species H             9.08663000        1.79711000       -1.13405000
  |   90: Species H             7.84671000        2.56119000       -0.60146900
  |   91: Species O             9.66452000       -0.29056200       10.29320000
  |   92: Species H             9.08469000       -0.41980200       11.04010000
  |   93: Species H             8.83847000        0.26803500       10.01300000
  |   94: Species O            -1.92546000       -1.58785000        2.43343000
  |   95: Species H            -2.49960000       -1.08413000        1.77092000
  |   96: Species H            -1.83785000       -0.89178000        2.89697000

  Lattice parameters for 3D lattice (in Angstroms) :     9.803920    9.803920    9.803920
  Angle(s) between unit vectors (in degrees)       :    90.000000   90.000000   90.000000


  Quantities derived from the lattice vectors (in Angstrom^-1):
  | Reciprocal lattice vector 1:  0.640885  0.000000  0.000000
  | Reciprocal lattice vector 2:  0.000000  0.640885  0.000000
  | Reciprocal lattice vector 3:  0.000000  0.000000  0.640885
  | Unit cell volume                               :   0.942322E+03  Angstrom^3

  Fractional coordinates:
                         L1                L2                L3
       atom_frac         0.74184714        0.28191581       -0.58928367  O
       atom_frac         0.69540755        0.26512966       -0.50624852  H
       atom_frac         0.67519319        0.29802569       -0.65750843  H
       atom_frac         0.75369954        0.54484125       -0.72623808  O
       atom_frac         0.77751756        0.63977470       -0.75480318  H
       atom_frac         0.74135856        0.52047140       -0.62379334  H
       atom_frac         0.51476960        0.43729957        0.72673686  O
       atom_frac         0.57153057        0.50456246        0.78459841  H
       atom_frac         0.43300027        0.41379979        0.76317738  H
       atom_frac         0.39868950        0.64199014        0.53463615  O
       atom_frac         0.36264168        0.69676313        0.61711132  H
       atom_frac         0.43535647        0.56785959        0.58448865  H
       atom_frac        -0.52150160       -0.24184000        1.00634032  O
       atom_frac        -0.57397347       -0.29837555        1.07713037  H
       atom_frac        -0.60185416       -0.22846984        0.95387355  H
       atom_frac         0.32683355       -0.20462427        1.76572228  O
       atom_frac         0.36022326       -0.11712458        1.80012689  H
       atom_frac         0.22756408       -0.19101237        1.71680307  H
       atom_frac         0.34564338        1.15105998        0.51051212  O
       atom_frac         0.37226844        1.10319138        0.43461697  H
       atom_frac         0.26398726        1.11078018        0.53224221  H
       atom_frac        -0.49052420       -0.79750549        0.00549841  O
       atom_frac        -0.41606011       -0.84849122        0.05058385  H
       atom_frac        -0.49716134       -0.74247648        0.07521736  H
       atom_frac         0.07998239       -1.19454259        1.31218941  O
       atom_frac        -0.02027903       -1.20227419        1.29211581  H
       atom_frac         0.08785098       -1.22233760        1.40957903  H
       atom_frac         1.06729757       -0.19710279        0.63647500  O
       atom_frac         1.08484157       -0.10447862        0.60982444  H
       atom_frac         1.03974737       -0.19755363        0.73178382  H
       atom_frac         0.02804368        1.28306841       -0.25771732  O
       atom_frac         0.10858514        1.32250161       -0.21801075  H
       atom_frac        -0.00067493        1.34830762       -0.31054823  H
       atom_frac         1.27029800        0.38964618        0.87131576  O
       atom_frac         1.21401439        0.44933659        0.92927421  H
       atom_frac         1.30883361        0.33965393        0.94440183  H
       atom_frac         0.14975744        1.11728778        0.22384822  O
       atom_frac         0.10149848        1.20247819        0.26843344  H
       atom_frac         0.08881213        1.09411338        0.16181589  H
       atom_frac        -0.03874501        0.75931668        0.87783866  O
       atom_frac        -0.02402406        0.83196721        0.94035141  H
       atom_frac        -0.03729569        0.65900885        0.91544607  H
       atom_frac         0.33557597        0.70253225        0.27070600  O
       atom_frac         0.36879942        0.69697325        0.36789162  H
       atom_frac         0.24552526        0.75632604        0.27149446  H
       atom_frac        -0.30110099        0.67429865        0.52211666  O
       atom_frac        -0.40664143        0.68267489        0.53208105  H
       atom_frac        -0.27831010        0.77577540        0.54951285  H
       atom_frac        -1.37430742       -0.01856482        0.10411244  O
       atom_frac        -1.42954043       -0.00990339        0.18294723  H
       atom_frac        -1.42030943       -0.09591776        0.05691050  H
       atom_frac        -0.72943170        0.36942162        0.36709704  O
       atom_frac        -0.67838783        0.29735759        0.43073281  H
       atom_frac        -0.69666011        0.46149295        0.44692531  H
       atom_frac         0.85557104        1.03749317        0.43288093  O
       atom_frac         0.78948217        0.98599846        0.48830978  H
       atom_frac         0.82258933        1.13016018        0.41764009  H
       atom_frac        -0.05005406       -0.47540780       -1.37352202  O
       atom_frac         0.01764661       -0.41801749       -1.40932403  H
       atom_frac        -0.13504700       -0.44748631       -1.41610703  H
       atom_frac         0.66704441       -0.79344283       -0.33148781  O
       atom_frac         0.62426458       -0.71774555       -0.31293197  H
       atom_frac         0.72139512       -0.83235787       -0.25882096  H
       atom_frac         0.44066965        2.04016353        0.77735640  O
       atom_frac         0.47048630        2.08826673        0.85074134  H
       atom_frac         0.42325009        2.09289753        0.69680801  H
       atom_frac         0.86071796        0.42330109        1.01488180  O
       atom_frac         0.81705787        0.43428955        1.10300778  H
       atom_frac         0.81892447        0.48663494        0.95059629  H
       atom_frac         0.54899877        1.36947262        2.24359236  O
       atom_frac         0.60841990        1.44582983        2.23961436  H
       atom_frac         0.45011179        1.37524582        2.27642616  H
       atom_frac         0.38983386       -0.02148457        0.28007164  O
       atom_frac         0.37119642       -0.12144836        0.27994924  H
       atom_frac         0.30640703        0.02882214        0.27002464  H
       atom_frac         0.65225236        0.93759231        0.60265486  O
       atom_frac         0.63570694        1.03933937        0.62362300  H
       atom_frac         0.60181234        0.87683192        0.66623963  H
       atom_frac        -0.30963431        1.61695526        0.84682862  O
       atom_frac        -0.25737460        1.68700887        0.79794613  H
       atom_frac        -0.38412696        1.65514406        0.89702078  H
       atom_frac         1.13218998        1.54008805        0.05758676  O
       atom_frac         1.12947678        1.52360484        0.15317444  H
       atom_frac         1.03599377        1.50402084        0.03398814  H
       atom_frac         0.09726150        1.09334837        0.55956597  O
       atom_frac         0.06332549        1.17495859        0.61970212  H
       atom_frac         0.03228525        1.08957437        0.48781610  H
       atom_frac         0.82487413        0.16317147       -0.08901501  O
       atom_frac         0.92683641        0.18330525       -0.11567312  H
       atom_frac         0.80036455        0.26124142       -0.06134985  H
       atom_frac         0.98578120       -0.02963733        1.04990657  O
       atom_frac         0.92663853       -0.04281981        1.12609038  H
       atom_frac         0.90152408        0.02733957        1.02132616  H
       atom_frac        -0.19639695       -0.16196073        0.24820990  O
       atom_frac        -0.25495924       -0.11058128        0.18063387  H
       atom_frac        -0.18746073       -0.09096157        0.29549099  H

 
  Finished reading input file 'geometry.in'.
 

 
  Consistency checks for stacksize environment parameter are next.
 
  | Maximum stacksize for task 0: unlimited
  | Maximum stacksize for task 1: unlimited
  | Maximum stacksize for task 2: unlimited
  | Maximum stacksize for task 3: unlimited
  | Maximum stacksize for task 4: unlimited
  | Maximum stacksize for task 5: unlimited
  | Maximum stacksize for task 6: unlimited
  | Maximum stacksize for task 7: unlimited
  | Maximum stacksize for task 8: unlimited
  | Maximum stacksize for task 9: unlimited
  | Maximum stacksize for task 10: unlimited
  | Maximum stacksize for task 11: unlimited
  | Maximum stacksize for task 12: unlimited
  | Maximum stacksize for task 13: unlimited
  | Maximum stacksize for task 14: unlimited
  | Maximum stacksize for task 15: unlimited
  | Maximum stacksize for task 16: unlimited
  | Maximum stacksize for task 17: unlimited
  | Current stacksize for task 0: unlimited
  | Current stacksize for task 1: unlimited
  | Current stacksize for task 2: unlimited
  | Current stacksize for task 3: unlimited
  | Current stacksize for task 4: unlimited
  | Current stacksize for task 5: unlimited
  | Current stacksize for task 6: unlimited
  | Current stacksize for task 7: unlimited
  | Current stacksize for task 8: unlimited
  | Current stacksize for task 9: unlimited
  | Current stacksize for task 10: unlimited
  | Current stacksize for task 11: unlimited
  | Current stacksize for task 12: unlimited
  | Current stacksize for task 13: unlimited
  | Current stacksize for task 14: unlimited
  | Current stacksize for task 15: unlimited
  | Current stacksize for task 16: unlimited
  | Current stacksize for task 17: unlimited
 
  Consistency checks for the contents of control.in are next.
 
  MPI_IN_PLACE appears to work with this MPI implementation.
  | Keeping use_mpi_in_place .true. (see manual).
  Explicit treatment of the Coulomb operator is needed, but the RI method is not specified.
  Coulomb operator: Defaulting to 'LVL fast' resolution of identity - RI_type = LVL_fast
  Species H: Using default value for prodbas_acc =   1.000000E-06.
  Species H: Using default value max_l_prodbas =     6.
  Species O: Using default value for prodbas_acc =   1.000000E-06.
  Species O: Using default value max_l_prodbas =     6.
  Target number of points in a grid batch is not set.  Since GPU acceleration is enabled, defaulting to  200
  Method for grid partitioning is not set. Defaulting to parallel hash+maxmin partitioning.
  Batch size limit is not set. Defaulting to    200
  By default, will store active basis functions for each batch.
  If in need of memory, prune_basis_once .false. can be used to disable this option.
  communication_type for Hartree potential was not specified.
  Defaulting to calc_hartree .
  Defaulting to Pulay charge density mixer.
  Pulay mixer: Number of relevant iterations not set.
  Defaulting to    8 iterations.
  Pulay mixer: Number of initial linear mixing iterations not set.
  Defaulting to    0 iterations.
  Work space size for distributed Hartree potential not set.
  Defaulting to   0.200000E+03 MB.
  Mixing parameter for charge density mixing has not been set.
  Using default: charge_mix_param =     0.0500.
  The mixing parameter will be adjusted in iteration number     2 of the first full s.c.f. cycle only.
  Algorithm-dependent basis array size parameters:
  | n_max_pulay                         :        8
  Maximum number of self-consistency iterations not provided.
  Presetting  1000 iterations.
  Presetting      1001 iterations before the initial mixing cycle
  is restarted anyway using the sc_init_iter criterion / keyword.
  Presetting a factor      1.000 between actual scf density residual
  and density convergence criterion sc_accuracy_rho below which sc_init_iter
  takes no effect.
  Calculation of forces was not defined in control.in. No forces will be calculated.
  Geometry relaxation not requested: no relaxation will be performed.
  No accuracy limit for integral partition fn. given. Defaulting to  0.1000E-14.
  No occupation type (smearing scheme) given. Defaulting to Gaussian broadening, width =  0.1000E-01 eV.
  The width will be adjusted in iteration number     2 of the first full s.c.f. cycle only.
  S.C.F. convergence parameters will be adjusted in iteration number     2 of the first full s.c.f. cycle only.
  No accuracy for occupation numbers given. Defaulting to  0.1000E-12.
  No threshold value for occupation numbers given. Defaulting to  0.0000E+00.
  No accuracy for fermi level given. Defaulting to  0.1000E-19.
  Maximum # of iterations to find E_F not set. Defaulting to  200.
  Preferred method for the eigenvalue solver ('KS_method') not specified in 'control.in'.
  Calling BLACS routine to test compilation state
  Since ScaLAPACK support is enabled, defaulting to ELPA (via ELSI).
  Will not use alltoall communication since running on < 1024 CPUs.
  Threshold for basis singularities not set.
  Default threshold for basis singularities:  0.1000E-04
  partition_type (choice of integration weights) for integrals was not specified.
  | Using a version of the partition function of Stratmann and coworkers ('stratmann_sparse').
  | At each grid point, the set of atoms used to build the partition table is smoothly restricted to
  | only those atoms whose free-atom density would be non-zero at that grid point.
  Partitioning for Hartree potential was not defined. Using partition_type for integrals.
  | Adjusted default value of keyword multip_moments_threshold to:       0.10000000E-11
  | This value may affect high angular momentum components of the Hartree potential in periodic systems.
  Angular momentum expansion for Kerker preconditioner not set explicitly.
  | Using default value of   0
  No explicit requirement for turning off preconditioner.
  | By default, it will be turned off when the charge convergence reaches
  | sc_accuracy_rho  =   0.100000E-05
  No special mixing parameter while Kerker preconditioner is on.
  Using default: charge_mix_param =     0.0500.
  Threshold for auxiliary basis singularities not set.
  Default threshold for auxiliary basis singularities:  0.1000E-04
  No q(lm)/r^(l+1) cutoff set for long-range Hartree potential.
  | Using default value of  0.100000E-09 .
  | Verify using the multipole_threshold keyword.
  Defaulting to new monopole extrapolation.
  Density update method: automatic selection selected.
  Using density matrix based charge density update.
  Using density matrix based charge density update.
  Using packed matrix style: index .
  Defaulting to use time-reversal symmetry for k-point grid.
  Charge integration errors on the 3D integration grid will be compensated
  by explicit normalization and distribution of residual charges.
  Use the "compensate_multipole_errors" flag to change this behaviour.
  Default to 1D ("use_logsbt") integrations for auxiliary 2-center integrals.
  Default onset of logarithmic r-grid for SBT is -38.000000000000
  Default onset of logarithmic k-grid for SBT is -25.000000000000
  Default range of logarithmic r- and k-grid for SBT is  45.000000000000
  Default number of logarithmic r- and k-grid for SBT is   4096
  Default of use_2d_corr is to use the efficient 2D distribution where possible
 
  Consistency checks for the contents of geometry.in are next.
 

  Range separation radius for Ewald summation (hartree_convergence_parameter):      2.95352457 bohr.
  Number of empty states per atom not set in control.in .
  | Since you are using a method that relies on the unoccupied spectrum
  | (MP2,GW,RPA et al.), will use the full Hamiltonian size (see below)
  | as the max. possible number of states (occupied plus empty).

  Structure-dependent array size parameters: 
  | Maximum number of distinct radial functions  :        9
  | Maximum number of basis functions            :      768
  | Number of Kohn-Sham states (occupied + empty):      768
------------------------------------------------------------

  Performing system and environment tests:
  | Environment variable OMP_NUM_THREADS correctly set to 1.
  | Checking for ScaLAPACK...
  | Testing pdtran()...
  | All pdtran() tests passed.
CUDA runtime version: 11060
CUDA driver version: 11060
  Initializing GPUs...

  Number of GPUs available to MPI task         0 :   1
  Number of GPUs available to MPI task         1 :   1
  Number of GPUs available to MPI task         2 :   1
  Number of GPUs available to MPI task         3 :   1
  Number of GPUs available to MPI task         4 :   1
  Number of GPUs available to MPI task         5 :   1
  Number of GPUs available to MPI task         6 :   1
  Number of GPUs available to MPI task         7 :   1
  Number of GPUs available to MPI task         8 :   1
  Number of GPUs available to MPI task         9 :   1
  Number of GPUs available to MPI task        10 :   1
  Number of GPUs available to MPI task        11 :   1
  Number of GPUs available to MPI task        12 :   1
  Number of GPUs available to MPI task        13 :   1
  Number of GPUs available to MPI task        14 :   1
  Number of GPUs available to MPI task        15 :   1
  Number of GPUs available to MPI task        16 :   1
  Number of GPUs available to MPI task        17 :   1

  | MPI task         0, GPU activated = T, Device Name = NVIDIA A100-SXM4-80GB
  | MPI task         1, GPU activated = T, Device Name = NVIDIA A100-SXM4-80GB
  | MPI task         2, GPU activated = T, Device Name = NVIDIA A100-SXM4-80GB
  | MPI task         3, GPU activated = T, Device Name = NVIDIA A100-SXM4-80GB
  | MPI task         4, GPU activated = T, Device Name = NVIDIA A100-SXM4-80GB
  | MPI task         5, GPU activated = T, Device Name = NVIDIA A100-SXM4-80GB
  | MPI task         6, GPU activated = T, Device Name = NVIDIA A100-SXM4-80GB
  | MPI task         7, GPU activated = T, Device Name = NVIDIA A100-SXM4-80GB
  | MPI task         8, GPU activated = T, Device Name = NVIDIA A100-SXM4-80GB
  | MPI task         9, GPU activated = T, Device Name = NVIDIA A100-SXM4-80GB
  | MPI task        10, GPU activated = T, Device Name = NVIDIA A100-SXM4-80GB
  | MPI task        11, GPU activated = T, Device Name = NVIDIA A100-SXM4-80GB
  | MPI task        12, GPU activated = T, Device Name = NVIDIA A100-SXM4-80GB
  | MPI task        13, GPU activated = T, Device Name = NVIDIA A100-SXM4-80GB
  | MPI task        14, GPU activated = T, Device Name = NVIDIA A100-SXM4-80GB
  | MPI task        15, GPU activated = T, Device Name = NVIDIA A100-SXM4-80GB
  | MPI task        16, GPU activated = T, Device Name = NVIDIA A100-SXM4-80GB
  | MPI task        17, GPU activated = T, Device Name = NVIDIA A100-SXM4-80GB

------------------------------------------------------------
          Preparing all fixed parts of the calculation.
------------------------------------------------------------
  Determining machine precision:
    2.225073858507201E-308
  Setting up grids for atomic and cluster calculations.

  Creating wave function, potential, and density for free atoms.
  Runtime choices for atomic solver:
  | atomic solver xc        : PW-LDA
  | compute density gradient: 0
  | compute kinetic density : F

  Species: H

  List of occupied orbitals and eigenvalues:
    n    l              occ      energy [Ha]    energy [eV]
    1    0           1.0000        -0.232375        -6.3233


  Species: O

  List of occupied orbitals and eigenvalues:
    n    l              occ      energy [Ha]    energy [eV]
    1    0           2.0000       -18.757744      -510.4242
    2    0           2.0000        -0.870917       -23.6989
    2    1           4.0000        -0.337950        -9.1961


  Adding cutoff potential to free-atom effective potential.
  Creating fixed part of basis set: Ionic, confined, hydrogenic.
 
  H                    hydrogenic:
 
  List of hydrogenic basis orbitals: 
    n    l      effective z      eigenvalue [eV]  inner max. [A]     outer max. [A]     outer radius [A]   
    2    0         2.100000       -14.9728           0.193243           1.317208           4.696947
    2    1         3.500000       -41.6669           0.602369           0.602369           3.862494
 
 
  O                    hydrogenic:
 
  List of hydrogenic basis orbitals: 
    n    l      effective z      eigenvalue [eV]  inner max. [A]     outer max. [A]     outer radius [A]   
    2    1         1.800000       -10.9749           1.164242           1.164242           4.691341
    3    2         7.600000       -87.3180           0.624125           0.624125           3.413946
    3    0         6.400000       -61.9207           0.061167           1.081902           4.151495
 
  Creating atomic-like basis functions for current effective potential.

  Species H                   :

  List of atomic basis orbitals and eigenvalues:
    n    l      energy [Ha]    energy [eV]    outer radius [A]
    1    0        -0.232375        -6.3233       4.696947


  Species O                   :

  List of atomic basis orbitals and eigenvalues:
    n    l      energy [Ha]    energy [eV]    outer radius [A]
    1    0       -18.757744      -510.4242       1.830144
    2    0        -0.870917       -23.6989       4.578029
    2    1        -0.337950        -9.1961       4.634338

  Assembling full basis from fixed parts.
  | Species H :   atomic orbital   1 s accepted.
  | Species H :    hydro orbital   2 s accepted.
  | Species H :    hydro orbital   2 p accepted.
  | Species O :   atomic orbital   1 s accepted.
  | Species O :    hydro orbital   3 s accepted.
  | Species O :   atomic orbital   2 s accepted.
  | Species O :   atomic orbital   2 p accepted.
  | Species O :    hydro orbital   2 p accepted.
  | Species O :    hydro orbital   3 d accepted.
 
  Basis size parameters after reduction:
  | Total number of radial functions:        9
  | Total number of basis functions :      768
 
  Per-task memory consumption for arrays in subroutine allocate_ext:
  |           2.268304MB.
  Testing on-site integration grid accuracy.
  |  Species  Function  <phi|h_atom|phi> (log., in eV)  <phi|h_atom|phi> (rad., in eV)
           1        1                 -6.3245358373                 -6.3232436907
           1        2                 14.1326137532                 14.1384481100
           1        3                 25.3627025200                 25.3628451197
           2        4               -510.4241781764               -510.4240769407
           2        5                 14.9072942213                 14.9072945271
           2        6                -21.2004736474                -21.2005650551
           2        7                 -9.1962086505                 -9.1963509834
           2        8                  8.1896755006                  8.1702200081
           2        9                 45.7920584937                 45.7920228520

  Preparing densities etc. for the partition functions (integrals / Hartree potential).

  Preparations completed.
  max(cpu_time)          :      0.075 s.
  Wall clock time (cpu1) :      0.069 s.
------------------------------------------------------------

  Initializing index lists of integration centers etc. from given atomic structure:
  Mapping all atomic coordinates to central unit cell.

  Initializing the k-points
  Using symmetry for reducing the k-points
  | k-points reduced from:        1 to        1
  | Number of k-points                             :         1
  | Consuming          0 KiB for k_phase_exx.
  The eigenvectors in the calculations are REAL.
  | Number of basis functions in the Hamiltonian integrals :      4464
  | Number of basis functions in a single unit cell        :       768
  | Number of centers in hartree potential         :      2586
  | Number of centers in hartree multipole         :      1926
  | Number of centers in electron density summation:      1527
  | Number of centers in basis integrals           :      1617
  | Number of centers in integrals                 :       697
  | Number of centers in hamiltonian               :      1529
  | Consuming          0 KiB for k_phase.
  | Number of super-cells (origin) [n_cells]                     :         125
  | Number of super-cells (after PM_index) [n_cells]             :          28
  | Number of super-cells in hamiltonian [n_cells_in_hamiltonian]:          28
  | Size of matrix packed + index [n_hamiltonian_matrix_size] :      805835
  | Size of matrix packed + index (no_symmetry):     1610901

------------------------------------------------------------
          Begin self-consistency loop: Initialization.

          Date     :  20230221, Time     :  143322.302
------------------------------------------------------------
  | Estimated reciprocal-space cutoff momentum G_max:         3.20225298 bohr^-1 .
  | Reciprocal lattice points for long-range Hartree potential:    3574
  Using simple linear distribution as default method for k-point parallelism.
  * Using 18 tasks for Scalapack Eigenvalue solver.
  Detailed listing of tasks and assigned k-points:
   Task     0 k-point     1 on adag037
   Task     1 k-point     1 on adag037
   Task     2 k-point     1 on adag037
   Task     3 k-point     1 on adag037
   Task     4 k-point     1 on adag037
   Task     5 k-point     1 on adag037
   Task     6 k-point     1 on adag037
   Task     7 k-point     1 on adag037
   Task     8 k-point     1 on adag037
   Task     9 k-point     1 on adag037
   Task    10 k-point     1 on adag037
   Task    11 k-point     1 on adag037
   Task    12 k-point     1 on adag037
   Task    13 k-point     1 on adag037
   Task    14 k-point     1 on adag037
   Task    15 k-point     1 on adag037
   Task    16 k-point     1 on adag037
   Task    17 k-point     1 on adag037
  K-point:     1 Tasks:    18 split into      6 X      3 BLACS grid
  Calculating block size based on n_basis =          768  max_nprow =            6  max_npcol =            3
  ScaLAPACK block size set to:           16
  Allocating        0.250 MB for ovlp
  Allocating        0.250 MB for ham
  Allocating        0.250 MB for eigenvec
  Required Scalapack workspace - INTEGER:            1  REAL:             1
  Partitioning the integration grid into batches with parallel hashing+maxmin method.
  | Number of batches:     4286
  | Maximal batch size:     200
  | Minimal batch size:      99
  | Average batch size:     118.891
  | Standard deviation of batch sizes:      19.745

  Integration load balanced across    18 MPI tasks.
  Work distribution over tasks is as follows:
  Task     0 has      28269 integration points.
  Task     1 has      28336 integration points.
  Task     2 has      28277 integration points.
  Task     3 has      28299 integration points.
  Task     4 has      28306 integration points.
  Task     5 has      28329 integration points.
  Task     6 has      28327 integration points.
  Task     7 has      28323 integration points.
  Task     8 has      28294 integration points.
  Task     9 has      28314 integration points.
  Task    10 has      28319 integration points.
  Task    11 has      28313 integration points.
  Task    12 has      28301 integration points.
  Task    13 has      28305 integration points.
  Task    14 has      28311 integration points.
  Task    15 has      28285 integration points.
  Task    16 has      28291 integration points.
  Task    17 has      28369 integration points.
  Initializing partition tables, free-atom densities, potentials, etc. across the integration grid (initialize_grid_storage).
  | initialize_grid_storage: Actual outermost partition radius vs. multipole_radius_free
  | (-- VB: in principle, multipole_radius_free should be larger, hence this output)
  | Species        1: Confinement radius =              4.999999999999999 AA, multipole_radius_free =              5.054417573612229 AA.
  | Species        1: outer_partition_radius set to              5.054417573612229 AA .
  | Species        2: Confinement radius =              4.999999999999999 AA, multipole_radius_free =              5.048384829883283 AA.
  | Species        2: outer_partition_radius set to              5.048384829883283 AA .
  | The sparse table of interatomic distances needs       5474.30 kbyte instead of     20917.51 kbyte of memory.
  | Net number of integration points:   509568
  | of which are non-zero points    :   406577
  | Numerical average free-atom electrostatic potential    :     -5.53029473 eV
  Renormalizing the initial density to the exact electron count on the 3D integration grid.
  | Initial density: Formal number of electrons (from input files) :     320.0000000000
  | Integrated number of electrons on 3D grid     :     320.0004435988
  | Charge integration error                      :       0.0004435988
  | Normalization factor for density and gradient :       0.9999986138
  Renormalizing the free-atom superposition density to the exact electron count on the 3D integration grid.
  | Formal number of electrons (from input files) :     320.0000000000
  | Integrated number of electrons on 3D grid     :     320.0004435988
  | Charge integration error                      :       0.0004435988
  | Normalization factor for density and gradient :       0.9999986138
  Obtaining max. number of non-zero basis functions in each batch (get_n_compute_maxes).
  | Maximal number of non-zero basis functions:      419 in task     0
  | Maximal number of non-zero basis functions:      444 in task     1
  | Maximal number of non-zero basis functions:      428 in task     2
  | Maximal number of non-zero basis functions:      413 in task     3
  | Maximal number of non-zero basis functions:      416 in task     4
  | Maximal number of non-zero basis functions:      400 in task     5
  | Maximal number of non-zero basis functions:      416 in task     6
  | Maximal number of non-zero basis functions:      429 in task     7
  | Maximal number of non-zero basis functions:      419 in task     8
  | Maximal number of non-zero basis functions:      421 in task     9
  | Maximal number of non-zero basis functions:      427 in task    10
  | Maximal number of non-zero basis functions:      435 in task    11
  | Maximal number of non-zero basis functions:      422 in task    12
  | Maximal number of non-zero basis functions:      417 in task    13
  | Maximal number of non-zero basis functions:      430 in task    14
  | Maximal number of non-zero basis functions:      443 in task    15
  | Maximal number of non-zero basis functions:      436 in task    16
  | Maximal number of non-zero basis functions:      439 in task    17
  Integrating Hamiltonian matrix: batch-based integration.
  GPU acceleration will be used when integrating the Hamiltonian matrix.
  Reporting GPU memory usage by myid 0.  Note that it is likely not the only MPI task binding to its GPU!
  Allocating        1.404 MB on GPU for hamiltonian_shell
  Allocating        0.670 MB on GPU for wave
  Allocating        0.002 MB on GPU for partition
  Allocating        0.670 MB on GPU for h_times_psi
  Time summed over all CPUs for integration: real work       13.912 s, elapsed       14.410 s
  Deallocating memory used on GPU for Hamiltonian integration.
  Integrating overlap matrix.
  Time summed over all CPUs for integration: real work       10.969 s, elapsed       11.487 s
  Deallocating overlap matrix.

  Updating Kohn-Sham eigenvalues and eigenvectors using ELSI and the ELPA eigensolver.
  Singularity check in k-point 1 (analysis for other k-points may follow below):
  Overlap matrix is not singular
  | Lowest and highest eigenvalues :  0.2040E-02,  0.7349E+01
  Finished singularity check of overlap matrix
  | Time :     0.160 s
  Starting ELPA eigensolver (GPU)
  Finished Cholesky decomposition
  | Time :     0.008 s
  Finished transformation to standard eigenproblem
  | Time :     0.028 s
  Finished solving standard eigenproblem
  | Time :     0.197 s
  Finished back-transformation of eigenvectors
  | Time :     0.016 s

  Obtaining occupation numbers and electronic chemical potential using ELSI.
  | Note that, for insulating systems, the printed 'chemical potential' value is not uniquely defined.
  | It can be anywhere in the energy gap, as long as it correctly separates occupied and unoccupied states.
  | In systems with a gap, the physically relevant chemical potential is the VBM or HOMO.

  | Chemical potential (Fermi level):    -9.59064795 eV
  Writing Kohn-Sham eigenvalues.

  State    Occupation    Eigenvalue [Ha]    Eigenvalue [eV]
      1       2.00000         -18.903578         -514.39252
      2       2.00000         -18.902363         -514.35948
      3       2.00000         -18.901601         -514.33873
      4       2.00000         -18.899957         -514.29399
      5       2.00000         -18.892417         -514.08882
      6       2.00000         -18.890380         -514.03341
      7       2.00000         -18.884207         -513.86541
      8       2.00000         -18.879117         -513.72691
      9       2.00000         -18.878379         -513.70682
     10       2.00000         -18.877454         -513.68166
     11       2.00000         -18.876139         -513.64587
     12       2.00000         -18.875688         -513.63360
     13       2.00000         -18.875401         -513.62579
     14       2.00000         -18.875171         -513.61954
     15       2.00000         -18.873202         -513.56597
     16       2.00000         -18.870075         -513.48086
     17       2.00000         -18.869740         -513.47174
     18       2.00000         -18.869570         -513.46713
     19       2.00000         -18.869210         -513.45734
     20       2.00000         -18.867919         -513.42220
     21       2.00000         -18.866853         -513.39319
     22       2.00000         -18.866450         -513.38221
     23       2.00000         -18.865930         -513.36808
     24       2.00000         -18.864446         -513.32769
     25       2.00000         -18.861538         -513.24857
     26       2.00000         -18.859666         -513.19762
     27       2.00000         -18.856010         -513.09814
     28       2.00000         -18.855948         -513.09644
     29       2.00000         -18.852549         -513.00395
     30       2.00000         -18.848642         -512.89764
     31       2.00000         -18.843975         -512.77064
     32       2.00000         -18.820184         -512.12327
     33       2.00000          -1.167864          -31.77919
     34       2.00000          -1.156406          -31.46741
     35       2.00000          -1.152042          -31.34867
     36       2.00000          -1.148139          -31.24245
     37       2.00000          -1.144694          -31.14871
     38       2.00000          -1.124820          -30.60790
     39       2.00000          -1.123268          -30.56567
     40       2.00000          -1.119873          -30.47331
     41       2.00000          -1.115756          -30.36126
     42       2.00000          -1.113857          -30.30959
     43       2.00000          -1.112630          -30.27620
     44       2.00000          -1.108868          -30.17384
     45       2.00000          -1.108329          -30.15917
     46       2.00000          -1.107496          -30.13651
     47       2.00000          -1.103838          -30.03696
     48       2.00000          -1.101829          -29.98230
     49       2.00000          -1.100469          -29.94530
     50       2.00000          -1.098538          -29.89274
     51       2.00000          -1.096357          -29.83339
     52       2.00000          -1.094762          -29.79000
     53       2.00000          -1.090685          -29.67904
     54       2.00000          -1.089569          -29.64869
     55       2.00000          -1.086881          -29.57555
     56       2.00000          -1.084323          -29.50592
     57       2.00000          -1.078713          -29.35326
     58       2.00000          -1.076518          -29.29353
     59       2.00000          -1.069474          -29.10188
     60       2.00000          -1.065399          -28.99097
     61       2.00000          -1.063887          -28.94985
     62       2.00000          -1.062949          -28.92433
     63       2.00000          -1.052450          -28.63861
     64       2.00000          -1.012478          -27.55092
     65       2.00000          -0.713111          -19.40475
     66       2.00000          -0.694995          -18.91178
     67       2.00000          -0.687965          -18.72047
     68       2.00000          -0.684773          -18.63363
     69       2.00000          -0.684330          -18.62157
     70       2.00000          -0.673423          -18.32476
     71       2.00000          -0.667723          -18.16968
     72       2.00000          -0.665252          -18.10244
     73       2.00000          -0.664566          -18.08376
     74       2.00000          -0.659884          -17.95634
     75       2.00000          -0.657873          -17.90162
     76       2.00000          -0.655813          -17.84558
     77       2.00000          -0.654203          -17.80176
     78       2.00000          -0.652019          -17.74233
     79       2.00000          -0.650132          -17.69099
     80       2.00000          -0.648799          -17.65472
     81       2.00000          -0.644487          -17.53739
     82       2.00000          -0.642595          -17.48589
     83       2.00000          -0.641963          -17.46871
     84       2.00000          -0.641113          -17.44556
     85       2.00000          -0.638722          -17.38050
     86       2.00000          -0.637672          -17.35194
     87       2.00000          -0.635757          -17.29982
     88       2.00000          -0.634329          -17.26097
     89       2.00000          -0.625607          -17.02364
     90       2.00000          -0.617836          -16.81218
     91       2.00000          -0.615323          -16.74379
     92       2.00000          -0.604850          -16.45881
     93       2.00000          -0.603645          -16.42601
     94       2.00000          -0.586053          -15.94732
     95       2.00000          -0.583392          -15.87491
     96       2.00000          -0.579129          -15.75890
     97       2.00000          -0.575458          -15.65902
     98       2.00000          -0.569676          -15.50166
     99       2.00000          -0.567655          -15.44668
    100       2.00000          -0.561283          -15.27328
    101       2.00000          -0.556741          -15.14968
    102       2.00000          -0.555090          -15.10478
    103       2.00000          -0.552966          -15.04698
    104       2.00000          -0.551700          -15.01253
    105       2.00000          -0.545689          -14.84895
    106       2.00000          -0.544548          -14.81789
    107       2.00000          -0.540318          -14.70281
    108       2.00000          -0.538836          -14.66247
    109       2.00000          -0.535781          -14.57933
    110       2.00000          -0.533614          -14.52038
    111       2.00000          -0.533329          -14.51263
    112       2.00000          -0.531608          -14.46579
    113       2.00000          -0.527643          -14.35790
    114       2.00000          -0.526467          -14.32590
    115       2.00000          -0.522338          -14.21355
    116       2.00000          -0.522216          -14.21022
    117       2.00000          -0.518657          -14.11337
    118       2.00000          -0.515927          -14.03910
    119       2.00000          -0.511687          -13.92372
    120       2.00000          -0.508926          -13.84859
    121       2.00000          -0.504860          -13.73795
    122       2.00000          -0.503298          -13.69543
    123       2.00000          -0.501702          -13.65200
    124       2.00000          -0.500859          -13.62906
    125       2.00000          -0.498079          -13.55341
    126       2.00000          -0.495354          -13.47926
    127       2.00000          -0.491735          -13.38078
    128       2.00000          -0.489141          -13.31021
    129       2.00000          -0.480646          -13.07903
    130       2.00000          -0.479260          -13.04133
    131       2.00000          -0.477769          -13.00075
    132       2.00000          -0.475135          -12.92908
    133       2.00000          -0.471253          -12.82344
    134       2.00000          -0.468494          -12.74836
    135       2.00000          -0.467141          -12.71156
    136       2.00000          -0.464872          -12.64982
    137       2.00000          -0.463807          -12.62083
    138       2.00000          -0.462933          -12.59705
    139       2.00000          -0.461839          -12.56728
    140       2.00000          -0.460984          -12.54401
    141       2.00000          -0.460583          -12.53311
    142       2.00000          -0.459414          -12.50130
    143       2.00000          -0.458891          -12.48707
    144       2.00000          -0.458467          -12.47553
    145       2.00000          -0.457061          -12.43727
    146       2.00000          -0.456500          -12.42201
    147       2.00000          -0.454795          -12.37559
    148       2.00000          -0.454587          -12.36994
    149       2.00000          -0.453168          -12.33132
    150       2.00000          -0.452617          -12.31632
    151       2.00000          -0.449663          -12.23597
    152       2.00000          -0.448412          -12.20191
    153       2.00000          -0.446445          -12.14839
    154       2.00000          -0.445291          -12.11698
    155       2.00000          -0.443547          -12.06953
    156       2.00000          -0.442237          -12.03387
    157       2.00000          -0.440681          -11.99153
    158       2.00000          -0.439608          -11.96235
    159       2.00000          -0.429153          -11.67785
    160       2.00000          -0.415564          -11.30807
    161       0.00000          -0.175108           -4.76493
    162       0.00000          -0.122825           -3.34224
    163       0.00000          -0.114588           -3.11810
    164       0.00000          -0.108778           -2.96001
    165       0.00000          -0.103506           -2.81655
    166       0.00000          -0.100447           -2.73331
    167       0.00000          -0.096582           -2.62812
    168       0.00000          -0.077921           -2.12034
    169       0.00000          -0.072802           -1.98104
    170       0.00000          -0.063956           -1.74034
    171       0.00000          -0.057099           -1.55374
    172       0.00000          -0.052121           -1.41829
    173       0.00000          -0.049730           -1.35321
    174       0.00000          -0.047776           -1.30005
    175       0.00000          -0.043248           -1.17683
    176       0.00000          -0.041794           -1.13726
    177       0.00000          -0.037296           -1.01488
    178       0.00000          -0.033352           -0.90755
    179       0.00000          -0.031236           -0.84997
    180       0.00000          -0.015819           -0.43047
    181       0.00000          -0.005058           -0.13763
    182       0.00000          -0.002765           -0.07524
    183       0.00000           0.000760            0.02068
    184       0.00000           0.009974            0.27140
    185       0.00000           0.010652            0.28986
    186       0.00000           0.012009            0.32679
    187       0.00000           0.017419            0.47399
    188       0.00000           0.023510            0.63975
    189       0.00000           0.031467            0.85626
    190       0.00000           0.033393            0.90866
    191       0.00000           0.037325            1.01565
    192       0.00000           0.039013            1.06161
    193       0.00000           0.043025            1.17078
    194       0.00000           0.046648            1.26935
    195       0.00000           0.052173            1.41970
    196       0.00000           0.055655            1.51445
    197       0.00000           0.058602            1.59465
    198       0.00000           0.063917            1.73926
    199       0.00000           0.064250            1.74832
    200       0.00000           0.067528            1.83752
    201       0.00000           0.073443            1.99848
    202       0.00000           0.075491            2.05420
    203       0.00000           0.077597            2.11152
    204       0.00000           0.078644            2.14002
    205       0.00000           0.081092            2.20663
    206       0.00000           0.085270            2.32032
    207       0.00000           0.087201            2.37285
    208       0.00000           0.090935            2.47446
    209       0.00000           0.093221            2.53667
    210       0.00000           0.094602            2.57425
    211       0.00000           0.098660            2.68466
    212       0.00000           0.100956            2.74715
    213       0.00000           0.102683            2.79415
    214       0.00000           0.106025            2.88508
    215       0.00000           0.107756            2.93218
    216       0.00000           0.108638            2.95619
    217       0.00000           0.112247            3.05441
    218       0.00000           0.115944            3.15500
    219       0.00000           0.119340            3.24741
    220       0.00000           0.122686            3.33845
    221       0.00000           0.128691            3.50185
    222       0.00000           0.131521            3.57886
    223       0.00000           0.132624            3.60889
    224       0.00000           0.134075            3.64836
    225       0.00000           0.143939            3.91679
    226       0.00000           0.147628            4.01715
    227       0.00000           0.151940            4.13450
    228       0.00000           0.156737            4.26503
    229       0.00000           0.169147            4.60272
    230       0.00000           0.171813            4.67527
    231       0.00000           0.175561            4.77726
    232       0.00000           0.183902            5.00422
    233       0.00000           0.189234            5.14932
    234       0.00000           0.190983            5.19690
    235       0.00000           0.199958            5.44114
    236       0.00000           0.204755            5.57166
    237       0.00000           0.213171            5.80067
    238       0.00000           0.215129            5.85396
    239       0.00000           0.218138            5.93584
    240       0.00000           0.229306            6.23974
    241       0.00000           0.234136            6.37115
    242       0.00000           0.234628            6.38456
    243       0.00000           0.238809            6.49833
    244       0.00000           0.244062            6.64127
    245       0.00000           0.249953            6.80155
    246       0.00000           0.254328            6.92061
    247       0.00000           0.260298            7.08307
    248       0.00000           0.269317            7.32848
    249       0.00000           0.278559            7.57998
    250       0.00000           0.279970            7.61837
    251       0.00000           0.287006            7.80982
    252       0.00000           0.294733            8.02009
    253       0.00000           0.298557            8.12415
    254       0.00000           0.307257            8.36089
    255       0.00000           0.310643            8.45302
    256       0.00000           0.318950            8.67908
    257       0.00000           0.322415            8.77336
    258       0.00000           0.335482            9.12894
    259       0.00000           0.339241            9.23121
    260       0.00000           0.343195            9.33881
    261       0.00000           0.356641            9.70470
[...]
  |    H      0     4.527807 A      4.527807 A        1.268855E-16 a.u.
  |    H      0     4.527807 A      4.583499 A       -4.900954E-17 a.u.
  |    H      0     4.527807 A      4.583499 A        4.713786E-16 a.u.
  |    H      2     3.678162 A  2.180220E+05 A            0.556529 a.u.
  |    H      1     3.958095 A  1.721251E+08 A            0.841931 a.u.
  |    H      0     4.527807 A  3.866455E+16 A            0.581436 a.u.
  |    O      0     2.043000 A      2.043000 A       -1.436841E-16 a.u.
  |    O      3     3.498446 A      3.498446 A        3.043453E-17 a.u.
  |    O      3     3.498446 A      3.498446 A        1.541443E-16 a.u.
  |    O      0     3.905335 A      3.905335 A        2.173090E-16 a.u.
  |    O      0     3.905335 A      3.905335 A        7.213445E-17 a.u.
  |    O      0     4.101052 A      4.101052 A        2.361718E-16 a.u.
  |    O      1     4.101052 A      4.101052 A        3.235185E-17 a.u.
  |    O      0     4.359549 A      4.359549 A       -5.329475E-17 a.u.
  |    O      1     4.413171 A      4.413171 A        3.261883E-17 a.u.
  |    O      1     4.522403 A      4.522403 A        6.417997E-16 a.u.
  |    O      1     4.522403 A      4.522403 A        4.224783E-16 a.u.
  |    O      2     4.522403 A      4.522403 A       -4.387647E-16 a.u.
  |    O      0     4.522403 A      4.578029 A        2.602039E-16 a.u.
  |    O      0     4.578029 A      4.578029 A        1.226235E-16 a.u.
  |    O      1     4.578029 A      4.578029 A       -6.107316E-16 a.u.
  |    O      1     4.578029 A      4.578029 A       -2.224438E-16 a.u.
  |    O      2     4.578029 A      4.578029 A       -7.020279E-16 a.u.
  |    O      2     4.522403 A      4.578029 A        1.323470E-15 a.u.
  |    O      2     4.578029 A      4.578029 A        7.923696E-16 a.u.
  |    O      2     4.522403 A      4.578029 A       -9.951815E-16 a.u.
  |    O      0     4.578029 A      4.634338 A       -8.813582E-18 a.u.
  |    O      1     4.578029 A      4.634338 A       -3.325386E-17 a.u.
  |    O      1     4.634338 A      4.634338 A        9.588032E-16 a.u.
  |    O      2     4.578029 A      4.634338 A        1.064715E-17 a.u.
  |    O      2     4.578029 A      4.634338 A       -3.770343E-15 a.u.
  |    O      4     3.251020 A  1.511584E+03 A            1.513372 a.u.
  |    O      3     3.541477 A  1.434166E+04 A            4.293220 a.u.
  |    O      2     4.634338 A  5.584435E+05 A            9.352428 a.u.
  |    O      1     4.634338 A  2.821283E+08 A            2.261940 a.u.
  |    O      0     4.578029 A  4.264100E+16 A            0.641234 a.u.

  | Shrink_full_auxil_basis : there are       38  radial auxiliary wave functions
                            accepted and       5 rejected.
  | Shrink_full_auxil_basis : there are totally                4544 partial auxiliary wave functions.
 
  | Maximal number of product basis functions per thread :   256   256
 
  | Minimal total memory requirement for three-center overlap :      10.450 Gbs
  | Number of local auxiliary basis functions on task:      0   256
  | Number of local auxiliary basis functions on task:      1   256
  | Number of local auxiliary basis functions on task:      2   256
  | Number of local auxiliary basis functions on task:      3   256
  | Number of local auxiliary basis functions on task:      4   256
  | Number of local auxiliary basis functions on task:      5   256
  | Number of local auxiliary basis functions on task:      6   256
  | Number of local auxiliary basis functions on task:      7   256
  | Number of local auxiliary basis functions on task:      8   256
  | Number of local auxiliary basis functions on task:      9   256
  | Number of local auxiliary basis functions on task:     10   256
  | Number of local auxiliary basis functions on task:     11   256
  | Number of local auxiliary basis functions on task:     12   256
  | Number of local auxiliary basis functions on task:     13   256
  | Number of local auxiliary basis functions on task:     14   240
  | Number of local auxiliary basis functions on task:     15   240
  | Number of local auxiliary basis functions on task:     16   240
  | Number of local auxiliary basis functions on task:     17   240
  | 2D aux task distribution:      3 X      6
  | 2D block size (nb_aux_2d):     64
 
  Basis pair condensation :    295296  -->     223934
 
 --------------------------------------------
  Constructing auxiliary basis (full product) ...
 
  Product basis:
  | charge radius: extent of product basis function
  | field radius: extent of its Coulomb potential
  | Species   l  charge radius    field radius  multipol momen
  |    H      1     3.910002 A      3.910002 A       -2.487223E-16 a.u.
  |    H      1     3.958095 A      3.958095 A       -2.441841E-16 a.u.
  |    H      0     4.527807 A      4.527807 A        1.268855E-16 a.u.
  |    H      0     4.527807 A      4.583499 A       -4.900954E-17 a.u.
  |    H      0     4.527807 A      4.583499 A        4.713786E-16 a.u.
  |    H      2     3.678162 A  2.180220E+05 A            0.556529 a.u.
  |    H      1     3.958095 A  1.721251E+08 A            0.841931 a.u.
  |    H      0     4.527807 A  3.866455E+16 A            0.581436 a.u.
  |    O      0     2.043000 A      2.043000 A       -1.436841E-16 a.u.
  |    O      3     3.498446 A      3.498446 A        3.043453E-17 a.u.
  |    O      3     3.498446 A      3.498446 A        1.541443E-16 a.u.
  |    O      0     3.905335 A      3.905335 A        2.173090E-16 a.u.
  |    O      0     3.905335 A      3.905335 A        7.213445E-17 a.u.
  |    O      0     4.101052 A      4.101052 A        2.361718E-16 a.u.
  |    O      1     4.101052 A      4.101052 A        3.235185E-17 a.u.
  |    O      0     4.359549 A      4.359549 A       -5.329475E-17 a.u.
  |    O      1     4.413171 A      4.413171 A        3.261883E-17 a.u.
  |    O      1     4.522403 A      4.522403 A        6.417997E-16 a.u.
  |    O      1     4.522403 A      4.522403 A        4.224783E-16 a.u.
  |    O      2     4.522403 A      4.522403 A       -4.387647E-16 a.u.
  |    O      0     4.522403 A      4.578029 A        2.602039E-16 a.u.
  |    O      0     4.578029 A      4.578029 A        1.226235E-16 a.u.
  |    O      1     4.578029 A      4.578029 A       -6.107316E-16 a.u.
  |    O      1     4.578029 A      4.578029 A       -2.224438E-16 a.u.
  |    O      2     4.578029 A      4.578029 A       -7.020279E-16 a.u.
  |    O      2     4.522403 A      4.578029 A        1.323470E-15 a.u.
  |    O      2     4.578029 A      4.578029 A        7.923696E-16 a.u.
  |    O      2     4.522403 A      4.578029 A       -9.951815E-16 a.u.
  |    O      0     4.578029 A      4.634338 A       -8.813582E-18 a.u.
  |    O      1     4.578029 A      4.634338 A       -3.325386E-17 a.u.
  |    O      1     4.634338 A      4.634338 A        9.588032E-16 a.u.
  |    O      2     4.578029 A      4.634338 A        1.064715E-17 a.u.
  |    O      2     4.578029 A      4.634338 A       -3.770343E-15 a.u.
  |    O      4     3.251020 A  1.511584E+03 A            1.513372 a.u.
  |    O      3     3.541477 A  1.434166E+04 A            4.293220 a.u.
  |    O      2     4.634338 A  5.584435E+05 A            9.352428 a.u.
  |    O      1     4.634338 A  2.821283E+08 A            2.261940 a.u.
  |    O      0     4.578029 A  4.264100E+16 A            0.641234 a.u.

  | Shrink_full_auxil_basis : there are       38  radial auxiliary wave functions
                            accepted and       5 rejected.
  | Shrink_full_auxil_basis : there are totally                4544 partial auxiliary wave functions.
 
  | Maximal number of product basis functions per thread :   256   256
 
  | Minimal total memory requirement for three-center overlap :      10.450 Gbs
  | Number of local auxiliary basis functions on task:      0   256
  | Number of local auxiliary basis functions on task:      1   256
  | Number of local auxiliary basis functions on task:      2   256
  | Number of local auxiliary basis functions on task:      3   256
  | Number of local auxiliary basis functions on task:      4   256
  | Number of local auxiliary basis functions on task:      5   256
  | Number of local auxiliary basis functions on task:      6   256
  | Number of local auxiliary basis functions on task:      7   256
  | Number of local auxiliary basis functions on task:      8   256
  | Number of local auxiliary basis functions on task:      9   256
  | Number of local auxiliary basis functions on task:     10   256
  | Number of local auxiliary basis functions on task:     11   256
  | Number of local auxiliary basis functions on task:     12   256
  | Number of local auxiliary basis functions on task:     13   256
  | Number of local auxiliary basis functions on task:     14   240
  | Number of local auxiliary basis functions on task:     15   240
  | Number of local auxiliary basis functions on task:     16   240
  | Number of local auxiliary basis functions on task:     17   240
  | 2D aux task distribution:      3 X      6
  | 2D block size (nb_aux_2d):     64
 
  Basis pair condensation :    295296  -->     223934
dP_dE (Bohr^3) at every cycle:--->
 (352.418892013422,0.000000000000000E+000) (1.11773272051577,0.000000000000000E+000) (8.67541202937715,0.000000000000000E+000)
 (1.11606526744401,0.000000000000000E+000) (367.947720694420,0.000000000000000E+000) (5.98838408365634,0.000000000000000E+000)
 (8.68120513672197,0.000000000000000E+000) (5.98599281497980,0.000000000000000E+000) (343.741150036690,0.000000000000000E+000)
DFPT polarizability (Bohr^3)        xx        yy        zz        xy        xz        yz
  | Polarizability:--->                       352.418892013                  367.947720694                  343.741150037                    1.117732721                    8.675412029                    5.988384084

DFPT for dielectric_constant:--->  # PARSE DFPT_dielectric_tensor
               1.696423096589493             0.002208777395371             0.017143681699841
               0.002205482302917             1.727109972921923             0.011833783834007
               0.017155129592809             0.011829058392851             1.679274810626973

                                               :  max(cpu_time)    wall_clock(cpu1)
  | Time for  dielectric calculation            :        0.000 s           0.001 s
===========================================================================

------------------------------------------------------------------------------
  Final output of selected total energy values:

  The following output summarizes some interesting total energy values
  at the end of a run (AFTER all relaxation, molecular dynamics, etc.).

  | Total energy of the DFT / Hartree-Fock s.c.f. calculation      :         -66112.476146888 eV
  | Final zero-broadening corrected energy (caution - metals only) :         -66112.476146888 eV
  | For reference only, the value of 1 Hartree used in FHI-aims is :             27.211384500 eV
  | For reference only, the overall average (free atom contribution
  | + realspace contribution) of the electrostatic potential after
  | s.c.f. convergence is                                          :             -5.112528108 eV

  Before relying on these values, please be sure to understand exactly which
  total energy value is referred to by a given number. Different objects may
  all carry the same name 'total energy'. Definitions:

  Total energy of the DFT / Hartree-Fock s.c.f. calculation:
  | Note that this energy does not include ANY quantities calculated after the
  | s.c.f. cycle, in particular not ANY RPA, MP2, etc. many-body perturbation terms.

  Final zero-broadening corrected energy:
  | For metallic systems only, a broadening of the occupation numbers at the Fermi
  | level can be extrapolated back to zero broadening by an electron-gas inspired
  | formula. For all systems that are not real metals, this value can be
  | meaningless and should be avoided.

------------------------------------------------------------------------------
  Methods described in the following list of references were used in this FHI-aims run.
  If you publish the results, please make sure to cite these reference if they apply.
  FHI-aims is an academic code, and for our developers (often, Ph.D. students
  and postdocs), scientific credit in the community is essential.
  Thank you for helping us!

  For any use of FHI-aims, please cite:

    Volker Blum, Ralf Gehrke, Felix Hanke, Paula Havu, Ville Havu,
    Xinguo Ren, Karsten Reuter, and Matthias Scheffler
    'Ab initio molecular simulations with numeric atom-centered orbitals'
    Computer Physics Communications 180, 2175-2196 (2009)
    http://doi.org/10.1016/j.cpc.2009.06.022


  For Hartree-Fock, hybrid functionals, or many-body perturbation theory used in your run, please cite:

    Xinguo Ren, Patrick Rinke, Volker Blum, Juergen Wieferink, Alex Tkatchenko,
    Andrea Sanfilippo, Karsten Reuter, and Matthias Scheffler,
    'Resolution-of-identity approach to Hartree-Fock, hybrid density functionals,
    RPA, MP2, and GW with numeric atom-centered orbital basis functions'
    New Journal of Physics 14, 053020 (2012).
    http://doi.org/10.1088/1367-2630/14/5/053020


  The provided symmetry information was generated with SPGlib:

    Atsushi Togo, Yusuke Seto, Dimitar Pashov
    SPGlib 1.7.3 obtained from http://spglib.sourceforge.net
    Copyright (C) 2008 Atsushi Togo


  The DFPT (perturbation by an electric field) part of the code was used.
  Here is the corresponding reference:

    Honghui Shang, Nathaniel Raimbault, Mariana Rossi,
    Christian Carbogno, Patrick Rinke and Matthias Scheffler,
    'All-Electron, Real-Space Perturbation Theory for Homogeneous
    Electric Fields: Theory, Implementation, and Application within dft'
    New Journal of Physics, 20(7):073040, 2018


  The ELSI infrastructure was used in your run to solve the Kohn-Sham electronic structure.
  Please check out http://elsi-interchange.org to learn more.
  If scalability is important for your project, please acknowledge ELSI by citing:

    V. W-z. Yu, F. Corsetti, A. Garcia, W. P. Huhn, M. Jacquelin, W. Jia,
    B. Lange, L. Lin, J. Lu, W. Mi, A. Seifitokaldani, A. Vazquez-Mayagoitia,
    C. Yang, H. Yang, and V. Blum
    'ELSI: A unified software interface for Kohn-Sham electronic structure solvers'
    Computer Physics Communications 222, 267-285 (2018).
    http://doi.org/10.1016/j.cpc.2017.09.007


  For the real-space grid partitioning and parallelization used in this calculation, please cite:

    Ville Havu, Volker Blum, Paula Havu, and Matthias Scheffler,
    'Efficient O(N) integration for all-electron electronic structure calculation'
    'using numerically tabulated basis functions'
    Journal of Computational Physics 228, 8367-8379 (2009).
    http://doi.org/10.1016/j.jcp.2009.08.008


  The high-level electronic structure method used in your calculation
  employed our efficient localized resolution of identity for the Coulomb operator.
  Some calculations, especially large-scale hybrid density functional theory,
  are only possible thanks to this development. For this feature, please cite:

    Arvid Ihrig, Juergen Wieferink, Igor Ying Zhang, Matti Ropo, Xinguo Ren,
    Patrick Rinke, Matthias Scheffler, and Volker Blum,
    'Accurate localized resolution of identity approach for linear-scaling
    hybrid density functionals and for many-body perturbation theory'
    New Journal of Physics 117, 093020 (2015).
    http://doi.org/10.1088/1367-2630/17/9/093020

  Of course, there are many other important community references, e.g., those cited in the
  above references. Our list is limited to references that describe implementations in the
  FHI-aims code. The reason is purely practical (length of this list) - please credit others as well.

------------------------------------------------------------
          Leaving FHI-aims.
          Date     :  20230221, Time     :  144207.482

          Computational steps:
          | Number of self-consistency cycles          :           45
          | Number of SCF (re)initializations          :            1
          | Number of coupled perturbed self-consistency cycles          :            0
          | Number of CPSCF (re)initializations          :            0

          Detailed time accounting                     :  max(cpu_time)    wall_clock(cpu1)
          | Total time                                  :      521.855 s         539.653 s
          | GPU initialization                          :        2.437 s          13.038 s
          | Preparation time                            :        0.075 s           0.069 s
          | Boundary condition initalization            :        1.313 s           1.314 s
          | Grid partitioning                           :        0.416 s           0.417 s
          | Preloading free-atom quantities on grid     :        2.549 s           2.549 s
          | Free-atom superposition energy              :        0.331 s           0.331 s
          | Total time for integrations                 :       12.858 s          13.040 s
          | Product basis setup: Total time             :        0.000 s           0.000 s
          | Product basis: | 2-center integrations     :(       0.000 s)  (       0.000 s)
          | Product basis: | LVL 3-center & coefficient:(       0.000 s)  (       0.000 s)
          | Total time for solution of K.-S. equations  :        2.872 s           8.382 s
          | Total time for density update               :        9.643 s          10.462 s
          | Total time for mixing & preconditioning     :        8.128 s           8.131 s
          | Total time for Hartree multipole update     :        0.108 s           0.108 s
          | Total time for Hartree multipole sum        :       36.347 s          36.361 s
          | Total time for total energy evaluation      :        0.009 s           0.011 s
          | Total time for DFPT                         :      444.207 s         444.366 s
          | Total time first_order_DM                   :        0.298 s           0.298 s
          | Total time first_order_density              :       91.786 s          91.810 s
          | Total time first_order_potential            :       52.004 s          52.023 s
          | Total time first_order_H                    :      184.136 s         184.199 s
          | Total time solving of Sternheimer equations :        0.182 s           0.181 s
          | Total time for dielectric constant          :        0.000 s           0.001 s
          | Total time momentum matrix                  :        0.000 s           0.000 s

          GPU acceleration has been used for charge density update.
          GPU acceleration has been used for real-space Hamiltonian integration.
          Due to GPU usage, wall_clock(cpu1) will give a more reliable estimate for timings.

          Partial memory accounting:
          | Residual value for overall tracked memory usage across tasks:     0.000000 MB (should be 0.000000 MB)
          | Peak values for overall tracked memory usage:
          |   Minimum:      120.639 MB (on task  0 after allocating DFPT_pulay_mixing::pulay_mix::alphas)
          |   Maximum:      120.639 MB (on task  0 after allocating DFPT_pulay_mixing::pulay_mix::alphas)
          |   Average:      120.639 MB
          | Largest tracked array allocation:
          |   Minimum:       43.036 MB (DFPT_pulay_mixing::initialize_pulay_mixing::X_in_diffs on task  0)
          |   Maximum:       43.036 MB (DFPT_pulay_mixing::initialize_pulay_mixing::X_in_diffs on task  0)
          |   Average:       43.036 MB
          Note:  These values currently only include a subset of arrays which are explicitly tracked.
          The "true" memory usage will be greater.

          Have a nice day.
------------------------------------------------------------
