------------------------------------------------------------
          Invoking FHI-aims ...

          When using FHI-aims, please cite the following reference:

            Volker Blum, Ralf Gehrke, Felix Hanke, Paula Havu,
            Ville Havu, Xinguo Ren, Karsten Reuter, and Matthias Scheffler,
            'Ab Initio Molecular Simulations with Numeric Atom-Centered Orbitals',
            Computer Physics Communications 180, 2175-2196 (2009)

          In addition, many other developments in FHI-aims are likely important for
          your particular application. A partial list of references is given at the end of
          this file. Thank you for giving credit to the authors of these developments.

          For any questions about FHI-aims, please visit our slack channel at

            https://fhi-aims.slack.com

          and our main development and support site at

            https://aims-git.rz-berlin.mpg.de .

          The latter site, in particular, has a wiki to collect information, as well
          as an issue tracker to log discussions, suggest improvements, and report issues
          or bugs. https://aims-git.rz-berlin.mpg.de is also the main development site
          of the project and all new and updated code versions can be obtained there.
          Please send an email to aims-coordinators@fhi-berlin.mpg.de and we will add
          you to these sites. They are for you and everyone is welcome there.

------------------------------------------------------------



  Date     :  20230221, Time     :  150950.066
  Time zero on CPU 1             :   0.334321000000000E+00  s.
  Internal wall clock time zero  :           446224190.066  s.

  FHI-aims created a unique identifier for this run for later identification
  aims_uuid : 50A0A290-7024-472D-AFEF-D7865D79C44D

  Build configuration of the current instance of FHI-aims
  -------------------------------------------------------
  FHI-aims version      : 221103
  Commit number         : 42523251a
  CMake host system     : Linux-5.3.18-150300.59.68-default
  CMake version         : 3.17.0
  Fortran compiler      : /mpcdf/soft/SLE_15/packages/x86_64/intel_oneapi/2021.3/mpi/2021.3.0/bin/mpiifort (Intel) version 20.2.3.20210609
  Fortran compiler flags: -O3 -ip -fp-model precise
  C compiler            : /mpcdf/soft/SLE_15/packages/x86_64/intel/2021.3.0/bin/icc (Intel) version 20.2.3.20210609
  C compiler flags      : -O3 -ip -fp-model precise -std=gnu99
  CUDA compiler         : /mpcdf/soft/SLE_15/packages/x86_64/cuda/11.6.2/bin/nvcc
  CUDA compiler flags   : -O3 -DAdd_ -lcublas
  HIP compiler          :
  HIP compiler flags    :
  HIP GPU arch          :
  ELPA2 kernel          : AVX512
  Using MPI
  Using ScaLAPACK
  Using LibXC
  Using CUDA
  Using i-PI
  Using RLSY
  Linking against: /mpcdf/soft/SLE_15/packages/x86_64/cuda/11.6.2/lib64/libcublas.so
                   /mpcdf/soft/SLE_15/packages/x86_64/cuda/11.6.2/lib64/libcudart.so
                   /mpcdf/soft/SLE_15/packages/x86_64/intel_oneapi/2021.3/mkl/latest/lib/intel64/libmkl_intel_lp64.so
                   /mpcdf/soft/SLE_15/packages/x86_64/intel_oneapi/2021.3/mkl/latest/lib/intel64/libmkl_sequential.so
                   /mpcdf/soft/SLE_15/packages/x86_64/intel_oneapi/2021.3/mkl/latest/lib/intel64/libmkl_core.so
                   /mpcdf/soft/SLE_15/packages/x86_64/intel_oneapi/2021.3/mkl/latest/lib/intel64/libmkl_blacs_intelmpi_lp64.so
                   /mpcdf/soft/SLE_15/packages/x86_64/intel_oneapi/2021.3/mkl/latest/lib/intel64/libmkl_scalapack_lp64.so

  Using       18 parallel tasks.
  Task        0 on host adag038 reporting.
  Task        1 on host adag038 reporting.
  Task        2 on host adag038 reporting.
  Task        3 on host adag038 reporting.
  Task        4 on host adag038 reporting.
  Task        5 on host adag038 reporting.
  Task        6 on host adag038 reporting.
  Task        7 on host adag038 reporting.
  Task        8 on host adag038 reporting.
  Task        9 on host adag038 reporting.
  Task       10 on host adag038 reporting.
  Task       11 on host adag038 reporting.
  Task       12 on host adag038 reporting.
  Task       13 on host adag038 reporting.
  Task       14 on host adag038 reporting.
  Task       15 on host adag038 reporting.
  Task       16 on host adag038 reporting.
  Task       17 on host adag038 reporting.

  Obtaining array dimensions for all initial allocations:
  
  -----------------------------------------------------------------------
  Parsing control.in (first pass over file, find array dimensions only).
  The contents of control.in will be repeated verbatim below
  unless switched off by setting 'verbatim_writeout .false.' .
  in the first line of control.in .
  -----------------------------------------------------------------------
  
  #########################################################################################
  #
  #  Volker Blum, 2017 : Test run input file control.in for simple H2O
  #
  #########################################################################################
  #
  #  Physical model
  #
    xc                 pw-lda
    spin               none
    relativistic       none
    charge             0.
  
    use_gpu
  
    DFPT dielectric
    ri_density_restart write
    ri_rho1 write
  #  ri_density_restart read 0
  #  ri_rho1 read
    ri_full_output .true.
    sc_accuracy_rho    1d-6
  #  use_calculate_fock_matrix_old .false.
  #  wave_threshold 1e-8
    k_grid 1 1 1
  #  output cube eigenstate 160
  #  output cube eigenstate 161
    wave_threshold 1e-8
    default_prodbas_acc 1e-6
    default_max_l_prodbas 6
  #
  #  Relaxation
  #
  #  relax_geometry   bfgs 1.e-2
  #
  
  ################################################################################
  
  
  ################################################################################
  #
  #  FHI-aims code project
  #  VB, Fritz-Haber Institut, 2009
  #
  #  Suggested "light" defaults for H atom (to be pasted into control.in file)
  #  Be sure to double-check any results obtained with these settings for post-processing,
  #  e.g., with the "tight" defaults and larger basis sets.
  #
  ################################################################################
    species        H
  #     global species definitions
      nucleus             1
      mass                1.00794
  #
      l_hartree           4
  #
      cut_pot             3.5  1.5  1.0
      basis_dep_cutoff    1e-4
  #
      radial_base         24 5.0
      radial_multiplier   1
      angular_grids       specified
        division   0.2421   50
        division   0.3822  110
        division   0.4799  194
        division   0.5341  302
  #      division   0.5626  434
  #      division   0.5922  590
  #      division   0.6542  770
  #      division   0.6868 1202
  #      outer_grid  770
        outer_grid  302
  ################################################################################
  #
  #  Definition of "minimal" basis
  #
  ################################################################################
  #     valence basis states
      valence      1  s   1.
  #     ion occupancy
      ion_occ      1  s   0.5
  ################################################################################
  #
  #  Suggested additional basis functions. For production calculations,
  #  uncomment them one after another (the most important basis functions are
  #  listed first).
  #
  #  Basis constructed for dimers: 0.5 A, 0.7 A, 1.0 A, 1.5 A, 2.5 A
  #
  ################################################################################
  #  "First tier" - improvements: -1014.90 meV to -62.69 meV
       hydro 2 s 2.1
       hydro 2 p 3.5
  #  "Second tier" - improvements: -12.89 meV to -1.83 meV
  #     hydro 1 s 0.85
  #     hydro 2 p 3.7
  #     hydro 2 s 1.2
  #     hydro 3 d 7
  #  "Third tier" - improvements: -0.25 meV to -0.12 meV
  #     hydro 4 f 11.2
  #     hydro 3 p 4.8
  #     hydro 4 d 9
  #     hydro 3 s 3.2
  ################################################################################
  #
  #  FHI-aims code project
  #  VB, Fritz-Haber Institut, 2009
  #
  #  Suggested "light" defaults for O atom (to be pasted into control.in file)
  #  Be sure to double-check any results obtained with these settings for post-processing,
  #  e.g., with the "tight" defaults and larger basis sets.
  #
  ################################################################################
    species        O
  #     global species definitions
      nucleus             8
      mass                15.9994
  #
      l_hartree           4
  #
      cut_pot             3.5  1.5  1.0
      basis_dep_cutoff    1e-4
  #
      radial_base         36 5.0
      radial_multiplier   1
       angular_grids specified
        division   0.2659   50
        division   0.4451  110
        division   0.6052  194
        division   0.7543  302
  #      division   0.8014  434
  #      division   0.8507  590
  #      division   0.8762  770
  #      division   0.9023  974
  #      division   1.2339 1202
  #      outer_grid 974
        outer_grid 302
  ################################################################################
  #
  #  Definition of "minimal" basis
  #
  ################################################################################
  #     valence basis states
      valence      2  s   2.
      valence      2  p   4.
  #     ion occupancy
      ion_occ      2  s   1.
      ion_occ      2  p   3.
  ################################################################################
  #
  #  Suggested additional basis functions. For production calculations,
  #  uncomment them one after another (the most important basis functions are
  #  listed first).
  #
  #  Constructed for dimers: 1.0 A, 1.208 A, 1.5 A, 2.0 A, 3.0 A
  #
  ################################################################################
  #  "First tier" - improvements: -699.05 meV to -159.38 meV
       hydro 2 p 1.8
       hydro 3 d 7.6
       hydro 3 s 6.4
  #  "Second tier" - improvements: -49.91 meV to -5.39 meV
  #     hydro 4 f 11.6
  #     hydro 3 p 6.2
  #     hydro 3 d 5.6
  #     hydro 5 g 17.6
  #     hydro 1 s 0.75
  #  "Third tier" - improvements: -2.83 meV to -0.50 meV
  #     ionic 2 p auto
  #     hydro 4 f 10.8
  #     hydro 4 d 4.7
  #     hydro 2 s 6.8
  #  "Fourth tier" - improvements: -0.40 meV to -0.12 meV
  #     hydro 3 p 5
  #     hydro 3 s 3.3
  #     hydro 5 g 15.6
  #     hydro 4 f 17.6
  #     hydro 4 d 14
  # Further basis functions - -0.08 meV and below
  #     hydro 3 s 2.1
  #     hydro 4 d 11.6
  #     hydro 3 p 16
  #     hydro 2 s 17.2
  
  -----------------------------------------------------------------------
  Completed first pass over input file control.in .
  -----------------------------------------------------------------------
  
  
  -----------------------------------------------------------------------
  Parsing geometry.in (first pass over file, find array dimensions only).
  The contents of geometry.in will be repeated verbatim below
  unless switched off by setting 'verbatim_writeout .false.' .
  in the first line of geometry.in .
  -----------------------------------------------------------------------
  
  #=======================================================
  # FHI-aims file: /ada/ptmp/mpsd/alewis/bulk_water/qmdata/data/geoms/54.in
  # Created using the Atomic Simulation Environment (ASE)
  # Tue Feb 21 11:23:37 2023
  #=======================================================
  lattice_vector 10.3182100000000005 0.0000000000000000 0.0000000000000000
  lattice_vector 0.0000000000000000 10.3182100000000005 0.0000000000000000
  lattice_vector 0.0000000000000000 0.0000000000000000 10.3182100000000005
  atom 10.8605000000000000 16.1640000000000015 -8.9901599999999995 O
  atom 10.1959000000000000 15.9846000000000004 -8.2582000000000004 H
  atom 11.0620999999999992 17.1154000000000011 -9.0110299999999999 H
  atom 18.2156999999999982 17.6270999999999987 -3.8809100000000001 O
  atom 18.2046999999999990 18.6733000000000011 -3.8310399999999998 H
  atom 18.5004999999999988 17.4253000000000000 -4.8708400000000003 H
  atom 5.9982199999999999 0.2127760000000000 -1.1075999999999999 O
  atom 6.8151799999999998 -0.0833630000000000 -0.7241310000000000 H
  atom 5.5148900000000003 -0.4658600000000000 -1.5381700000000000 H
  atom -0.6885380000000000 -0.4499720000000000 7.2105399999999999 O
  atom -0.0559740000000000 -0.5189800000000000 6.3990799999999997 H
  atom -1.3313999999999999 0.2742930000000000 7.1414200000000001 H
  atom -5.3468200000000001 -2.5399600000000002 11.1879000000000008 O
  atom -5.5403799999999999 -3.4518700000000000 11.2365999999999993 H
  atom -6.3103800000000003 -2.0703299999999998 11.4510000000000005 H
  atom 0.3079260000000000 0.2490190000000000 15.0132999999999992 O
  atom 1.0153300000000001 -0.2183990000000000 14.5370000000000008 H
  atom 0.5391960000000000 1.1060300000000001 15.2424999999999997 H
  atom 7.1775599999999997 11.4097000000000008 6.9136499999999996 O
  atom 6.8515899999999998 12.3168000000000006 6.5563599999999997 H
  atom 6.6850699999999996 11.3702000000000005 7.8124200000000004 H
  atom 1.8921800000000000 -5.2911500000000000 -1.0725000000000000 O
  atom 1.2989500000000000 -4.9159600000000001 -1.6970700000000001 H
  atom 1.6255100000000000 -4.8308200000000001 -0.2152670000000000 H
  atom 4.0340900000000000 -2.8066399999999998 -5.6136100000000004 O
  atom 4.9172700000000003 -2.6764700000000001 -5.9250800000000003 H
  atom 3.2336499999999999 -2.5618799999999999 -6.2928899999999999 H
  atom 5.5918200000000002 3.4163100000000002 6.2937300000000000 O
  atom 5.7411799999999999 4.1786799999999999 7.0419299999999998 H
  atom 5.0300900000000004 3.7698600000000000 5.6032500000000001 H
  atom 11.8544999999999998 8.5728899999999992 -11.8265999999999991 O
  atom 12.7631999999999994 8.6047999999999991 -12.4258000000000006 H
  atom 11.2851999999999997 9.3530300000000004 -12.2248999999999999 H
  atom -9.6983200000000007 -1.6169100000000001 11.2583000000000002 O
  atom -9.3559300000000007 -1.6976300000000000 10.4940999999999995 H
  atom -10.4530999999999992 -1.3374999999999999 11.1849000000000007 H
  atom -1.6325400000000001 1.0130200000000000 2.7827899999999999 O
  atom -0.9029770000000000 0.7285190000000000 3.2952800000000000 H
  atom -2.4424199999999998 0.9125799999999999 3.3158799999999999 H
  atom -3.8391799999999998 -2.1689200000000000 3.3477800000000002 O
  atom -4.0919200000000000 -2.0362700000000000 2.4599000000000002 H
  atom -3.2178300000000002 -3.0512600000000001 3.5585200000000001 H
  atom -9.0033600000000007 2.8459900000000000 -5.6353299999999997 O
  atom -8.1242999999999999 3.1137899999999998 -5.3497000000000003 H
  atom -8.7387599999999992 2.8099099999999999 -6.5781400000000003 H
  atom 0.0158780000000000 15.7754999999999992 5.0685000000000002 O
  atom -0.1050010000000000 15.9658999999999995 6.0848500000000003 H
  atom 0.6345720000000000 14.8687000000000005 4.9535799999999997 H
  atom -6.8478000000000003 1.4387000000000001 6.9780300000000004 O
  atom -7.3380599999999996 1.7528500000000000 7.7768400000000000 H
  atom -6.1136799999999996 2.0598500000000000 7.1085000000000003 H
  atom -0.1097360000000000 6.7005100000000004 18.0062999999999995 O
  atom 0.3580670000000000 7.5194799999999997 18.0604000000000013 H
  atom -0.7888640000000000 7.0353300000000001 17.5467000000000013 H
  atom 3.8073800000000002 0.9110770000000000 0.5592009999999999 O
  atom 4.3569599999999999 0.9163650000000000 -0.2860970000000000 H
  atom 3.1286600000000000 1.0842499999999999 0.0630590000000000 H
  atom -0.8354090000000000 2.1351599999999999 8.7994599999999998 O
  atom -1.3289200000000001 2.1091400000000000 7.9941599999999999 H
  atom -1.0678799999999999 3.0920100000000001 9.2134900000000002 H
  atom 3.8042899999999999 4.6302000000000003 14.7766999999999999 O
  atom 4.0948500000000001 4.4340400000000004 13.7574000000000005 H
  atom 3.4348299999999998 5.5045200000000003 14.7036999999999995 H
  atom 2.1160600000000001 9.3682800000000004 3.1914799999999999 O
  atom 1.5510600000000001 9.4776500000000006 2.3728199999999999 H
  atom 2.7739500000000001 9.8633000000000006 2.7832900000000000 H
  atom 6.2487300000000001 10.7769999999999992 4.1991300000000003 O
  atom 6.3868799999999997 9.8292199999999994 4.0799700000000003 H
  atom 6.2419099999999998 10.9405000000000001 5.2058299999999997 H
  atom -1.9243800000000000 4.9459700000000000 10.3354999999999997 O
  atom -1.0279799999999999 5.1115800000000000 10.7140000000000004 H
  atom -2.4880499999999999 4.7362599999999997 11.2238000000000007 H
  atom 4.0308799999999998 3.5666199999999999 1.6049000000000000 O
  atom 4.2175799999999999 2.7308599999999998 1.1235400000000000 H
  atom 4.4494300000000004 4.3143599999999998 1.0763900000000000 H
  atom 8.3938500000000005 0.1387820000000000 0.2064990000000000 O
  atom 8.3630999999999993 0.4382160000000000 1.1328000000000000 H
  atom 8.8305600000000002 0.6967900000000000 -0.4854940000000000 H
  atom 8.3084900000000008 16.3142999999999994 13.7825000000000006 O
  atom 9.0669199999999996 15.9649000000000001 14.2922999999999991 H
  atom 7.6776999999999997 15.6783999999999999 13.5052000000000003 H
  atom 14.8569999999999993 5.2892700000000001 9.7679200000000002 O
  atom 13.8744999999999994 5.2616800000000001 9.4687300000000008 H
  atom 15.4395000000000007 5.6044000000000000 9.1108399999999996 H
  atom 1.8378300000000001 12.4772999999999996 9.1596299999999999 O
  atom 1.7773300000000001 13.4931000000000001 9.3997200000000003 H
  atom 0.9730820000000000 12.2768999999999995 9.0505800000000001 H
  atom 6.7593100000000002 3.8934600000000001 2.4907499999999998 O
  atom 7.1582299999999996 2.9848200000000000 2.5801400000000001 H
  atom 5.8155700000000001 3.8241499999999999 2.2125499999999998 H
  atom 4.3165899999999997 -1.3600200000000000 7.2132899999999998 O
  atom 4.4645400000000004 -1.9014000000000000 6.3253300000000001 H
  atom 4.1368000000000000 -0.5548790000000000 6.7536500000000004 H
  atom 6.6411699999999998 5.5116800000000001 8.1200100000000006 O
  atom 7.1183699999999996 5.9687200000000002 7.4831099999999999 H
  atom 7.1138700000000004 5.5814700000000004 9.1379999999999999 H
  
  -----------------------------------------------------------------------
  Completed first pass over input file geometry.in .
  -----------------------------------------------------------------------
  

  Basic array size parameters:
  | Number of species                 :        2
  | Number of atoms                   :       96
  | Number of lattice vectors         :        3
  | Max. basis fn. angular momentum   :        2
  | Max. atomic/ionic basis occupied n:        2
  | Max. number of basis fn. types    :        2
  | Max. radial fns per species/type  :        3
  | Max. logarithmic grid size        :     1301
  | Max. radial integration grid size :       36
  | Max. angular integration grid size:      302
  | Max. angular grid division number :        8
  | Radial grid for Hartree potential :     1301
  | Number of spin channels           :        1

------------------------------------------------------------
          Reading file control.in.
------------------------------------------------------------
  XC: Using Perdew-Wang parametrisation of Ceperley-Alder LDA.
  Spin treatment: No spin polarisation.
  Non-relativistic treatment of kinetic energy.
  Charge =   0.000000E+00: Neutral system requested explicitly.
  DFPT calculation will begin after the DFT/HF calculation.
  Convergence accuracy of self-consistent charge density:  0.1000E-05
  Found k-point grid:         1         1         1
  Threshold value for wave function integration:  0.1000E-07
 
  Reading configuration options for species H                   .
  | Found nuclear charge :   1.0000
  | Found atomic mass :    1.00794000000000      amu
  | Found l_max for Hartree potential  :   4
  | Found cutoff potl. onset [A], width [A], scale factor :    3.50000    1.50000    1.00000
  | Threshold for basis-dependent cutoff potential is   0.100000E-03
  | Found data for basic radial integration grid :    24 points, outermost radius =    5.000 A
  | Found multiplier for basic radial grid :   1
  | Found angular grid specification: user-specified.
  | Specified grid contains     5 separate shells.
  | Check grid settings after all constraints further below.
  | Found free-atom valence shell :  1 s   1.000
  | No ionic wave fns used. Skipping ion_occ.
  | Found hydrogenic basis function :  2 s   2.100
  | Found hydrogenic basis function :  2 p   3.500
  Species H                   : Missing cutoff potential type.
  Defaulting to exp(1/x)/(1-x)^2 type cutoff potential.
  Species H : No 'logarithmic' tag. Using default grid for free atom:
  | Default logarithmic grid data [bohr] : 0.1000E-03 0.1000E+03 0.1012E+01
  Species H : On-site basis accuracy parameter (for Gram-Schmidt orthonormalisation) not specified.
  Using default value basis_acc =  0.1000000E-03.
  Species H                   : Using default innermost maximum threshold i_radial=  2 for radial functions.
  Species H                   : Default cutoff onset for free atom density etc. : 0.35000000E+01 AA.
  Species H                   : Basic radial grid will be enhanced according to radial_multiplier =   1, to contain    24 grid points.
 
  Reading configuration options for species O                   .
  | Found nuclear charge :   8.0000
  | Found atomic mass :    15.9994000000000      amu
  | Found l_max for Hartree potential  :   4
  | Found cutoff potl. onset [A], width [A], scale factor :    3.50000    1.50000    1.00000
  | Threshold for basis-dependent cutoff potential is   0.100000E-03
  | Found data for basic radial integration grid :    36 points, outermost radius =    5.000 A
  | Found multiplier for basic radial grid :   1
  | Found angular grid specification: user-specified.
  | Specified grid contains     5 separate shells.
  | Check grid settings after all constraints further below.
  | Found free-atom valence shell :  2 s   2.000
  | Found free-atom valence shell :  2 p   4.000
  | No ionic wave fns used. Skipping ion_occ.
  | No ionic wave fns used. Skipping ion_occ.
  | Found hydrogenic basis function :  2 p   1.800
  | Found hydrogenic basis function :  3 d   7.600
  | Found hydrogenic basis function :  3 s   6.400
  Species O                   : Missing cutoff potential type.
  Defaulting to exp(1/x)/(1-x)^2 type cutoff potential.
  Species O : No 'logarithmic' tag. Using default grid for free atom:
  | Default logarithmic grid data [bohr] : 0.1000E-03 0.1000E+03 0.1012E+01
  Species O : On-site basis accuracy parameter (for Gram-Schmidt orthonormalisation) not specified.
  Using default value basis_acc =  0.1000000E-03.
  Species O                   : Using default innermost maximum threshold i_radial=  2 for radial functions.
  Species O                   : Default cutoff onset for free atom density etc. : 0.35000000E+01 AA.
  Species O                   : Basic radial grid will be enhanced according to radial_multiplier =   1, to contain    36 grid points.
 
  Finished reading input file 'control.in'.
 
------------------------------------------------------------


------------------------------------------------------------
          Reading geometry description geometry.in.
------------------------------------------------------------
  | The smallest distance between any two atoms is         0.80817718 AA.
  | The first atom of this pair is atom number                     34 .
  | The second atom of this pair is atom number                    36 .
  | Wigner-Seitz cell of the first atom image           0     0     0 .
  | (The Wigner-Seitz cell of the second atom is 0 0 0  by definition.)

  Symmetry information by spglib:
  | Precision set to  0.1E-04
  | Number of Operations  : 1
  | Space group           : 1
  | International         : P1
  | Schoenflies           : C1^1
  Input structure read successfully.
  The structure contains       96 atoms,  and a total of        320.000 electrons.

  Input geometry:
  | Unit cell:
  |       10.31821000        0.00000000        0.00000000
  |        0.00000000       10.31821000        0.00000000
  |        0.00000000        0.00000000       10.31821000
  | Atomic structure:
  |       Atom                x [A]            y [A]            z [A]
  |    1: Species O            10.86050000       16.16400000       -8.99016000
  |    2: Species H            10.19590000       15.98460000       -8.25820000
  |    3: Species H            11.06210000       17.11540000       -9.01103000
  |    4: Species O            18.21570000       17.62710000       -3.88091000
  |    5: Species H            18.20470000       18.67330000       -3.83104000
  |    6: Species H            18.50050000       17.42530000       -4.87084000
  |    7: Species O             5.99822000        0.21277600       -1.10760000
  |    8: Species H             6.81518000       -0.08336300       -0.72413100
  |    9: Species H             5.51489000       -0.46586000       -1.53817000
  |   10: Species O            -0.68853800       -0.44997200        7.21054000
  |   11: Species H            -0.05597400       -0.51898000        6.39908000
  |   12: Species H            -1.33140000        0.27429300        7.14142000
  |   13: Species O            -5.34682000       -2.53996000       11.18790000
  |   14: Species H            -5.54038000       -3.45187000       11.23660000
  |   15: Species H            -6.31038000       -2.07033000       11.45100000
  |   16: Species O             0.30792600        0.24901900       15.01330000
  |   17: Species H             1.01533000       -0.21839900       14.53700000
  |   18: Species H             0.53919600        1.10603000       15.24250000
  |   19: Species O             7.17756000       11.40970000        6.91365000
  |   20: Species H             6.85159000       12.31680000        6.55636000
  |   21: Species H             6.68507000       11.37020000        7.81242000
  |   22: Species O             1.89218000       -5.29115000       -1.07250000
  |   23: Species H             1.29895000       -4.91596000       -1.69707000
  |   24: Species H             1.62551000       -4.83082000       -0.21526700
  |   25: Species O             4.03409000       -2.80664000       -5.61361000
  |   26: Species H             4.91727000       -2.67647000       -5.92508000
  |   27: Species H             3.23365000       -2.56188000       -6.29289000
  |   28: Species O             5.59182000        3.41631000        6.29373000
  |   29: Species H             5.74118000        4.17868000        7.04193000
  |   30: Species H             5.03009000        3.76986000        5.60325000
  |   31: Species O            11.85450000        8.57289000      -11.82660000
  |   32: Species H            12.76320000        8.60480000      -12.42580000
  |   33: Species H            11.28520000        9.35303000      -12.22490000
  |   34: Species O            -9.69832000       -1.61691000       11.25830000
  |   35: Species H            -9.35593000       -1.69763000       10.49410000
  |   36: Species H           -10.45310000       -1.33750000       11.18490000
  |   37: Species O            -1.63254000        1.01302000        2.78279000
  |   38: Species H            -0.90297700        0.72851900        3.29528000
  |   39: Species H            -2.44242000        0.91258000        3.31588000
  |   40: Species O            -3.83918000       -2.16892000        3.34778000
  |   41: Species H            -4.09192000       -2.03627000        2.45990000
  |   42: Species H            -3.21783000       -3.05126000        3.55852000
  |   43: Species O            -9.00336000        2.84599000       -5.63533000
  |   44: Species H            -8.12430000        3.11379000       -5.34970000
  |   45: Species H            -8.73876000        2.80991000       -6.57814000
  |   46: Species O             0.01587800       15.77550000        5.06850000
  |   47: Species H            -0.10500100       15.96590000        6.08485000
  |   48: Species H             0.63457200       14.86870000        4.95358000
  |   49: Species O            -6.84780000        1.43870000        6.97803000
  |   50: Species H            -7.33806000        1.75285000        7.77684000
  |   51: Species H            -6.11368000        2.05985000        7.10850000
  |   52: Species O            -0.10973600        6.70051000       18.00630000
  |   53: Species H             0.35806700        7.51948000       18.06040000
  |   54: Species H            -0.78886400        7.03533000       17.54670000
  |   55: Species O             3.80738000        0.91107700        0.55920100
  |   56: Species H             4.35696000        0.91636500       -0.28609700
  |   57: Species H             3.12866000        1.08425000        0.06305900
  |   58: Species O            -0.83540900        2.13516000        8.79946000
  |   59: Species H            -1.32892000        2.10914000        7.99416000
  |   60: Species H            -1.06788000        3.09201000        9.21349000
  |   61: Species O             3.80429000        4.63020000       14.77670000
  |   62: Species H             4.09485000        4.43404000       13.75740000
  |   63: Species H             3.43483000        5.50452000       14.70370000
  |   64: Species O             2.11606000        9.36828000        3.19148000
  |   65: Species H             1.55106000        9.47765000        2.37282000
  |   66: Species H             2.77395000        9.86330000        2.78329000
  |   67: Species O             6.24873000       10.77700000        4.19913000
  |   68: Species H             6.38688000        9.82922000        4.07997000
  |   69: Species H             6.24191000       10.94050000        5.20583000
  |   70: Species O            -1.92438000        4.94597000       10.33550000
  |   71: Species H            -1.02798000        5.11158000       10.71400000
  |   72: Species H            -2.48805000        4.73626000       11.22380000
  |   73: Species O             4.03088000        3.56662000        1.60490000
  |   74: Species H             4.21758000        2.73086000        1.12354000
  |   75: Species H             4.44943000        4.31436000        1.07639000
  |   76: Species O             8.39385000        0.13878200        0.20649900
  |   77: Species H             8.36310000        0.43821600        1.13280000
  |   78: Species H             8.83056000        0.69679000       -0.48549400
  |   79: Species O             8.30849000       16.31430000       13.78250000
  |   80: Species H             9.06692000       15.96490000       14.29230000
  |   81: Species H             7.67770000       15.67840000       13.50520000
  |   82: Species O            14.85700000        5.28927000        9.76792000
  |   83: Species H            13.87450000        5.26168000        9.46873000
  |   84: Species H            15.43950000        5.60440000        9.11084000
  |   85: Species O             1.83783000       12.47730000        9.15963000
  |   86: Species H             1.77733000       13.49310000        9.39972000
  |   87: Species H             0.97308200       12.27690000        9.05058000
  |   88: Species O             6.75931000        3.89346000        2.49075000
  |   89: Species H             7.15823000        2.98482000        2.58014000
  |   90: Species H             5.81557000        3.82415000        2.21255000
  |   91: Species O             4.31659000       -1.36002000        7.21329000
  |   92: Species H             4.46454000       -1.90140000        6.32533000
  |   93: Species H             4.13680000       -0.55487900        6.75365000
  |   94: Species O             6.64117000        5.51168000        8.12001000
  |   95: Species H             7.11837000        5.96872000        7.48311000
  |   96: Species H             7.11387000        5.58147000        9.13800000

  Lattice parameters for 3D lattice (in Angstroms) :    10.318210   10.318210   10.318210
  Angle(s) between unit vectors (in degrees)       :    90.000000   90.000000   90.000000


  Quantities derived from the lattice vectors (in Angstrom^-1):
  | Reciprocal lattice vector 1:  0.608941  0.000000  0.000000
  | Reciprocal lattice vector 2:  0.000000  0.608941  0.000000
  | Reciprocal lattice vector 3:  0.000000  0.000000  0.608941
  | Unit cell volume                               :   0.109853E+04  Angstrom^3

  Fractional coordinates:
                         L1                L2                L3
       atom_frac         1.05255660        1.56655079       -0.87129066  O
       atom_frac         0.98814620        1.54916405       -0.80035200  H
       atom_frac         1.07209487        1.65875670       -0.87331330  H
       atom_frac         1.76539342        1.70834864       -0.37612241  O
       atom_frac         1.76432734        1.80974219       -0.37128921  H
       atom_frac         1.79299510        1.68879098       -0.47206250  H
       atom_frac         0.58132370        0.02062141       -0.10734420  O
       atom_frac         0.66050022       -0.00807921       -0.07017991  H
       atom_frac         0.53448127       -0.04514930       -0.14907334  H
       atom_frac        -0.06673037       -0.04360950        0.69881695  O
       atom_frac        -0.00542478       -0.05029748        0.62017346  H
       atom_frac        -0.12903401        0.02658339        0.69211811  H
       atom_frac        -0.51819259       -0.24616285        1.08428691  O
       atom_frac        -0.53695166       -0.33454155        1.08900672  H
       atom_frac        -0.61157701       -0.20064817        1.10978552  H
       atom_frac         0.02984297        0.02413393        1.45502951  O
       atom_frac         0.09840176       -0.02116637        1.40886840  H
       atom_frac         0.05225674        0.10719204        1.47724266  H
       atom_frac         0.69562066        1.10578288        0.67004354  O
       atom_frac         0.66402894        1.19369542        0.63541641  H
       atom_frac         0.64789048        1.10195470        0.75714877  H
       atom_frac         0.18338258       -0.51279728       -0.10394245  O
       atom_frac         0.12588908       -0.47643535       -0.16447330  H
       atom_frac         0.15753798       -0.46818392       -0.02086282  H
       atom_frac         0.39096801       -0.27200842       -0.54404882  O
       atom_frac         0.47656231       -0.25939286       -0.57423526  H
       atom_frac         0.31339254       -0.24828725       -0.60988195  H
       atom_frac         0.54193702        0.33109522        0.60996336  O
       atom_frac         0.55641240        0.40498110        0.68247593  H
       atom_frac         0.48749638        0.36535988        0.54304477  H
       atom_frac         1.14889114        0.83085051       -1.14618718  O
       atom_frac         1.23695874        0.83394310       -1.20425927  H
       atom_frac         1.09371684        0.90645858       -1.18478883  H
       atom_frac        -0.93992272       -0.15670451        1.09110980  O
       atom_frac        -0.90673964       -0.16452757        1.01704656  H
       atom_frac        -1.01307300       -0.12962520        1.08399616  H
       atom_frac        -0.15821930        0.09817788        0.26969697  O
       atom_frac        -0.08751295        0.07060517        0.31936547  H
       atom_frac        -0.23670966        0.08844364        0.32136194  H
       atom_frac        -0.37207810       -0.21020313        0.32445356  O
       atom_frac        -0.39657266       -0.19734721        0.23840375  H
       atom_frac        -0.31185932       -0.29571602        0.34487765  H
       atom_frac        -0.87256995        0.27582207       -0.54615384  O
       atom_frac        -0.78737494        0.30177618       -0.51847171  H
       atom_frac        -0.84692597        0.27232534       -0.63752725  H
       atom_frac         0.00153883        1.52889891        0.49121892  O
       atom_frac        -0.01017628        1.54735172        0.58971953  H
       atom_frac         0.06150020        1.44101545        0.48008133  H
       atom_frac        -0.66366162        0.13943310        0.67628300  O
       atom_frac        -0.71117568        0.16987927        0.75370050  H
       atom_frac        -0.59251362        0.19963249        0.68892763  H
       atom_frac        -0.01063518        0.64938686        1.74509920  O
       atom_frac         0.03470243        0.72875819        1.75034236  H
       atom_frac        -0.07645357        0.68183629        1.70055659  H
       atom_frac         0.36899617        0.08829797        0.05419554  O
       atom_frac         0.42225929        0.08881046       -0.02772739  H
       atom_frac         0.30321732        0.10508121        0.00611143  H
       atom_frac        -0.08096453        0.20693124        0.85280877  O
       atom_frac        -0.12879366        0.20440949        0.77476229  H
       atom_frac        -0.10349470        0.29966535        0.89293492  H
       atom_frac         0.36869670        0.44874062        1.43209917  O
       atom_frac         0.39685663        0.42972958        1.33331266  H
       atom_frac         0.33289010        0.53347625        1.42502430  H
       atom_frac         0.20508014        0.90793655        0.30930559  O
       atom_frac         0.15032259        0.91853626        0.22996431  H
       atom_frac         0.26884023        0.95591193        0.26974543  H
       atom_frac         0.60560213        1.04446411        0.40696303  O
       atom_frac         0.61899108        0.95260903        0.39541451  H
       atom_frac         0.60494117        1.06030988        0.50452840  H
       atom_frac        -0.18650328        0.47934380        1.00167568  O
       atom_frac        -0.09962775        0.49539407        1.03835840  H
       atom_frac        -0.24113194        0.45901954        1.08776619  H
       atom_frac         0.39065691        0.34566267        0.15554054  O
       atom_frac         0.40875113        0.26466412        0.10888904  H
       atom_frac         0.43122111        0.41813066        0.10431945  H
       atom_frac         0.81349866        0.01345020        0.02001306  O
       atom_frac         0.81051849        0.04247016        0.10978648  H
       atom_frac         0.85582286        0.06753012       -0.04705215  H
       atom_frac         0.80522591        1.58111727        1.33574525  O
       atom_frac         0.87872993        1.54725480        1.38515304  H
       atom_frac         0.74409224        1.51948836        1.30887043  H
       atom_frac         1.43988153        0.51261508        0.94666808  O
       atom_frac         1.34466153        0.50994116        0.91767177  H
       atom_frac         1.49633512        0.54315623        0.88298649  H
       atom_frac         0.17811520        1.20925044        0.88771502  O
       atom_frac         0.17225178        1.30769775        0.91098359  H
       atom_frac         0.09430725        1.18982847        0.87714633  H
       atom_frac         0.65508552        0.37733871        0.24139361  O
       atom_frac         0.69374727        0.28927692        0.25005694  H
       atom_frac         0.56362198        0.37062145        0.21443157  H
       atom_frac         0.41834679       -0.13180775        0.69908347  O
       atom_frac         0.43268551       -0.18427615        0.61302590  H
       atom_frac         0.40092225       -0.05377667        0.65453698  H
       atom_frac         0.64363586        0.53417017        0.78695917  O
       atom_frac         0.68988420        0.57846468        0.72523335  H
       atom_frac         0.68944807        0.54093394        0.88561873  H

 
  Finished reading input file 'geometry.in'.
 

 
  Consistency checks for stacksize environment parameter are next.
 
  | Maximum stacksize for task 0: unlimited
  | Maximum stacksize for task 1: unlimited
  | Maximum stacksize for task 2: unlimited
  | Maximum stacksize for task 3: unlimited
  | Maximum stacksize for task 4: unlimited
  | Maximum stacksize for task 5: unlimited
  | Maximum stacksize for task 6: unlimited
  | Maximum stacksize for task 7: unlimited
  | Maximum stacksize for task 8: unlimited
  | Maximum stacksize for task 9: unlimited
  | Maximum stacksize for task 10: unlimited
  | Maximum stacksize for task 11: unlimited
  | Maximum stacksize for task 12: unlimited
  | Maximum stacksize for task 13: unlimited
  | Maximum stacksize for task 14: unlimited
  | Maximum stacksize for task 15: unlimited
  | Maximum stacksize for task 16: unlimited
  | Maximum stacksize for task 17: unlimited
  | Current stacksize for task 0: unlimited
  | Current stacksize for task 1: unlimited
  | Current stacksize for task 2: unlimited
  | Current stacksize for task 3: unlimited
  | Current stacksize for task 4: unlimited
  | Current stacksize for task 5: unlimited
  | Current stacksize for task 6: unlimited
  | Current stacksize for task 7: unlimited
  | Current stacksize for task 8: unlimited
  | Current stacksize for task 9: unlimited
  | Current stacksize for task 10: unlimited
  | Current stacksize for task 11: unlimited
  | Current stacksize for task 12: unlimited
  | Current stacksize for task 13: unlimited
  | Current stacksize for task 14: unlimited
  | Current stacksize for task 15: unlimited
  | Current stacksize for task 16: unlimited
  | Current stacksize for task 17: unlimited
 
  Consistency checks for the contents of control.in are next.
 
  MPI_IN_PLACE appears to work with this MPI implementation.
  | Keeping use_mpi_in_place .true. (see manual).
  Explicit treatment of the Coulomb operator is needed, but the RI method is not specified.
  Coulomb operator: Defaulting to 'LVL fast' resolution of identity - RI_type = LVL_fast
  Species H: Using default value for prodbas_acc =   1.000000E-06.
  Species H: Using default value max_l_prodbas =     6.
  Species O: Using default value for prodbas_acc =   1.000000E-06.
  Species O: Using default value max_l_prodbas =     6.
  Target number of points in a grid batch is not set.  Since GPU acceleration is enabled, defaulting to  200
  Method for grid partitioning is not set. Defaulting to parallel hash+maxmin partitioning.
  Batch size limit is not set. Defaulting to    200
  By default, will store active basis functions for each batch.
  If in need of memory, prune_basis_once .false. can be used to disable this option.
  communication_type for Hartree potential was not specified.
  Defaulting to calc_hartree .
  Defaulting to Pulay charge density mixer.
  Pulay mixer: Number of relevant iterations not set.
  Defaulting to    8 iterations.
  Pulay mixer: Number of initial linear mixing iterations not set.
  Defaulting to    0 iterations.
  Work space size for distributed Hartree potential not set.
  Defaulting to   0.200000E+03 MB.
  Mixing parameter for charge density mixing has not been set.
  Using default: charge_mix_param =     0.0500.
  The mixing parameter will be adjusted in iteration number     2 of the first full s.c.f. cycle only.
  Algorithm-dependent basis array size parameters:
  | n_max_pulay                         :        8
  Maximum number of self-consistency iterations not provided.
  Presetting  1000 iterations.
  Presetting      1001 iterations before the initial mixing cycle
  is restarted anyway using the sc_init_iter criterion / keyword.
  Presetting a factor      1.000 between actual scf density residual
  and density convergence criterion sc_accuracy_rho below which sc_init_iter
  takes no effect.
  Calculation of forces was not defined in control.in. No forces will be calculated.
  Geometry relaxation not requested: no relaxation will be performed.
  No accuracy limit for integral partition fn. given. Defaulting to  0.1000E-14.
  No occupation type (smearing scheme) given. Defaulting to Gaussian broadening, width =  0.1000E-01 eV.
  The width will be adjusted in iteration number     2 of the first full s.c.f. cycle only.
  S.C.F. convergence parameters will be adjusted in iteration number     2 of the first full s.c.f. cycle only.
  No accuracy for occupation numbers given. Defaulting to  0.1000E-12.
  No threshold value for occupation numbers given. Defaulting to  0.0000E+00.
  No accuracy for fermi level given. Defaulting to  0.1000E-19.
  Maximum # of iterations to find E_F not set. Defaulting to  200.
  Preferred method for the eigenvalue solver ('KS_method') not specified in 'control.in'.
  Calling BLACS routine to test compilation state
  Since ScaLAPACK support is enabled, defaulting to ELPA (via ELSI).
  Will not use alltoall communication since running on < 1024 CPUs.
  Threshold for basis singularities not set.
  Default threshold for basis singularities:  0.1000E-04
  partition_type (choice of integration weights) for integrals was not specified.
  | Using a version of the partition function of Stratmann and coworkers ('stratmann_sparse').
  | At each grid point, the set of atoms used to build the partition table is smoothly restricted to
  | only those atoms whose free-atom density would be non-zero at that grid point.
  Partitioning for Hartree potential was not defined. Using partition_type for integrals.
  | Adjusted default value of keyword multip_moments_threshold to:       0.10000000E-11
  | This value may affect high angular momentum components of the Hartree potential in periodic systems.
  Angular momentum expansion for Kerker preconditioner not set explicitly.
  | Using default value of   0
  No explicit requirement for turning off preconditioner.
  | By default, it will be turned off when the charge convergence reaches
  | sc_accuracy_rho  =   0.100000E-05
  No special mixing parameter while Kerker preconditioner is on.
  Using default: charge_mix_param =     0.0500.
  Threshold for auxiliary basis singularities not set.
  Default threshold for auxiliary basis singularities:  0.1000E-04
  No q(lm)/r^(l+1) cutoff set for long-range Hartree potential.
  | Using default value of  0.100000E-09 .
  | Verify using the multipole_threshold keyword.
  Defaulting to new monopole extrapolation.
  Density update method: automatic selection selected.
  Using density matrix based charge density update.
  Using density matrix based charge density update.
  Using packed matrix style: index .
  Defaulting to use time-reversal symmetry for k-point grid.
  Charge integration errors on the 3D integration grid will be compensated
  by explicit normalization and distribution of residual charges.
  Use the "compensate_multipole_errors" flag to change this behaviour.
  Default to 1D ("use_logsbt") integrations for auxiliary 2-center integrals.
  Default onset of logarithmic r-grid for SBT is -38.000000000000
  Default onset of logarithmic k-grid for SBT is -25.000000000000
  Default range of logarithmic r- and k-grid for SBT is  45.000000000000
  Default number of logarithmic r- and k-grid for SBT is   4096
  Default of use_2d_corr is to use the efficient 2D distribution where possible
 
  Consistency checks for the contents of geometry.in are next.
 

  Range separation radius for Ewald summation (hartree_convergence_parameter):      3.14250293 bohr.
  Number of empty states per atom not set in control.in .
  | Since you are using a method that relies on the unoccupied spectrum
  | (MP2,GW,RPA et al.), will use the full Hamiltonian size (see below)
  | as the max. possible number of states (occupied plus empty).

  Structure-dependent array size parameters: 
  | Maximum number of distinct radial functions  :        9
  | Maximum number of basis functions            :      768
  | Number of Kohn-Sham states (occupied + empty):      768
------------------------------------------------------------

  Performing system and environment tests:
  | Environment variable OMP_NUM_THREADS correctly set to 1.
  | Checking for ScaLAPACK...
  | Testing pdtran()...
  | All pdtran() tests passed.
CUDA runtime version: 11060
CUDA driver version: 11060
  Initializing GPUs...

  Number of GPUs available to MPI task         0 :   1
  Number of GPUs available to MPI task         1 :   1
  Number of GPUs available to MPI task         2 :   1
  Number of GPUs available to MPI task         3 :   1
  Number of GPUs available to MPI task         4 :   1
  Number of GPUs available to MPI task         5 :   1
  Number of GPUs available to MPI task         6 :   1
  Number of GPUs available to MPI task         7 :   1
  Number of GPUs available to MPI task         8 :   1
  Number of GPUs available to MPI task         9 :   1
  Number of GPUs available to MPI task        10 :   1
  Number of GPUs available to MPI task        11 :   1
  Number of GPUs available to MPI task        12 :   1
  Number of GPUs available to MPI task        13 :   1
  Number of GPUs available to MPI task        14 :   1
  Number of GPUs available to MPI task        15 :   1
  Number of GPUs available to MPI task        16 :   1
  Number of GPUs available to MPI task        17 :   1

  | MPI task         0, GPU activated = T, Device Name = NVIDIA A100-SXM4-80GB
  | MPI task         1, GPU activated = T, Device Name = NVIDIA A100-SXM4-80GB
  | MPI task         2, GPU activated = T, Device Name = NVIDIA A100-SXM4-80GB
  | MPI task         3, GPU activated = T, Device Name = NVIDIA A100-SXM4-80GB
  | MPI task         4, GPU activated = T, Device Name = NVIDIA A100-SXM4-80GB
  | MPI task         5, GPU activated = T, Device Name = NVIDIA A100-SXM4-80GB
  | MPI task         6, GPU activated = T, Device Name = NVIDIA A100-SXM4-80GB
  | MPI task         7, GPU activated = T, Device Name = NVIDIA A100-SXM4-80GB
  | MPI task         8, GPU activated = T, Device Name = NVIDIA A100-SXM4-80GB
  | MPI task         9, GPU activated = T, Device Name = NVIDIA A100-SXM4-80GB
  | MPI task        10, GPU activated = T, Device Name = NVIDIA A100-SXM4-80GB
  | MPI task        11, GPU activated = T, Device Name = NVIDIA A100-SXM4-80GB
  | MPI task        12, GPU activated = T, Device Name = NVIDIA A100-SXM4-80GB
  | MPI task        13, GPU activated = T, Device Name = NVIDIA A100-SXM4-80GB
  | MPI task        14, GPU activated = T, Device Name = NVIDIA A100-SXM4-80GB
  | MPI task        15, GPU activated = T, Device Name = NVIDIA A100-SXM4-80GB
  | MPI task        16, GPU activated = T, Device Name = NVIDIA A100-SXM4-80GB
  | MPI task        17, GPU activated = T, Device Name = NVIDIA A100-SXM4-80GB

------------------------------------------------------------
          Preparing all fixed parts of the calculation.
------------------------------------------------------------
  Determining machine precision:
    2.225073858507201E-308
  Setting up grids for atomic and cluster calculations.

  Creating wave function, potential, and density for free atoms.
  Runtime choices for atomic solver:
  | atomic solver xc        : PW-LDA
  | compute density gradient: 0
  | compute kinetic density : F

  Species: H

  List of occupied orbitals and eigenvalues:
    n    l              occ      energy [Ha]    energy [eV]
    1    0           1.0000        -0.232375        -6.3233


  Species: O

  List of occupied orbitals and eigenvalues:
    n    l              occ      energy [Ha]    energy [eV]
    1    0           2.0000       -18.757744      -510.4242
    2    0           2.0000        -0.870917       -23.6989
    2    1           4.0000        -0.337950        -9.1961


  Adding cutoff potential to free-atom effective potential.
  Creating fixed part of basis set: Ionic, confined, hydrogenic.
 
  H                    hydrogenic:
 
  List of hydrogenic basis orbitals: 
    n    l      effective z      eigenvalue [eV]  inner max. [A]     outer max. [A]     outer radius [A]   
    2    0         2.100000       -14.9728           0.193243           1.317208           4.696947
    2    1         3.500000       -41.6669           0.602369           0.602369           3.862494
 
 
  O                    hydrogenic:
 
  List of hydrogenic basis orbitals: 
    n    l      effective z      eigenvalue [eV]  inner max. [A]     outer max. [A]     outer radius [A]   
    2    1         1.800000       -10.9749           1.164242           1.164242           4.691341
    3    2         7.600000       -87.3180           0.624125           0.624125           3.413946
    3    0         6.400000       -61.9207           0.061167           1.081902           4.151495
 
  Creating atomic-like basis functions for current effective potential.

  Species H                   :

  List of atomic basis orbitals and eigenvalues:
    n    l      energy [Ha]    energy [eV]    outer radius [A]
    1    0        -0.232375        -6.3233       4.696947


  Species O                   :

  List of atomic basis orbitals and eigenvalues:
    n    l      energy [Ha]    energy [eV]    outer radius [A]
    1    0       -18.757744      -510.4242       1.830144
    2    0        -0.870917       -23.6989       4.578029
    2    1        -0.337950        -9.1961       4.634338

  Assembling full basis from fixed parts.
  | Species H :   atomic orbital   1 s accepted.
  | Species H :    hydro orbital   2 s accepted.
  | Species H :    hydro orbital   2 p accepted.
  | Species O :   atomic orbital   1 s accepted.
  | Species O :    hydro orbital   3 s accepted.
  | Species O :   atomic orbital   2 s accepted.
  | Species O :   atomic orbital   2 p accepted.
  | Species O :    hydro orbital   2 p accepted.
  | Species O :    hydro orbital   3 d accepted.
 
  Basis size parameters after reduction:
  | Total number of radial functions:        9
  | Total number of basis functions :      768
 
  Per-task memory consumption for arrays in subroutine allocate_ext:
  |           2.268304MB.
  Testing on-site integration grid accuracy.
  |  Species  Function  <phi|h_atom|phi> (log., in eV)  <phi|h_atom|phi> (rad., in eV)
           1        1                 -6.3245358373                 -6.3232436907
           1        2                 14.1326137532                 14.1384481100
           1        3                 25.3627025200                 25.3628451197
           2        4               -510.4241781764               -510.4240769407
           2        5                 14.9072942213                 14.9072945271
           2        6                -21.2004736474                -21.2005650551
           2        7                 -9.1962086505                 -9.1963509834
           2        8                  8.1896755006                  8.1702200081
           2        9                 45.7920584937                 45.7920228520

  Preparing densities etc. for the partition functions (integrals / Hartree potential).

  Preparations completed.
  max(cpu_time)          :      0.070 s.
  Wall clock time (cpu1) :      0.065 s.
------------------------------------------------------------

  Initializing index lists of integration centers etc. from given atomic structure:
  Mapping all atomic coordinates to central unit cell.

  Initializing the k-points
  Using symmetry for reducing the k-points
  | k-points reduced from:        1 to        1
  | Number of k-points                             :         1
  | Consuming          0 KiB for k_phase_exx.
  The eigenvectors in the calculations are REAL.
  | Number of basis functions in the Hamiltonian integrals :      4087
  | Number of basis functions in a single unit cell        :       768
  | Number of centers in hartree potential         :      2530
  | Number of centers in hartree multipole         :      1764
  | Number of centers in electron density summation:      1385
  | Number of centers in basis integrals           :      1448
  | Number of centers in integrals                 :       654
  | Number of centers in hamiltonian               :      1385
  | Consuming          0 KiB for k_phase.
  | Number of super-cells (origin) [n_cells]                     :         125
  | Number of super-cells (after PM_index) [n_cells]             :          28
  | Number of super-cells in hamiltonian [n_cells_in_hamiltonian]:          28
  | Size of matrix packed + index [n_hamiltonian_matrix_size] :      692483
  | Size of matrix packed + index (no_symmetry):     1384197

------------------------------------------------------------
          Begin self-consistency loop: Initialization.

          Date     :  20230221, Time     :  151001.584
------------------------------------------------------------
  | Estimated reciprocal-space cutoff momentum G_max:         3.00093000 bohr^-1 .
  | Reciprocal lattice points for long-range Hartree potential:    3406
  Using simple linear distribution as default method for k-point parallelism.
  * Using 18 tasks for Scalapack Eigenvalue solver.
  Detailed listing of tasks and assigned k-points:
   Task     0 k-point     1 on adag038
   Task     1 k-point     1 on adag038
   Task     2 k-point     1 on adag038
   Task     3 k-point     1 on adag038
   Task     4 k-point     1 on adag038
   Task     5 k-point     1 on adag038
   Task     6 k-point     1 on adag038
   Task     7 k-point     1 on adag038
   Task     8 k-point     1 on adag038
   Task     9 k-point     1 on adag038
   Task    10 k-point     1 on adag038
   Task    11 k-point     1 on adag038
   Task    12 k-point     1 on adag038
   Task    13 k-point     1 on adag038
   Task    14 k-point     1 on adag038
   Task    15 k-point     1 on adag038
   Task    16 k-point     1 on adag038
   Task    17 k-point     1 on adag038
  K-point:     1 Tasks:    18 split into      6 X      3 BLACS grid
  Calculating block size based on n_basis =          768  max_nprow =            6  max_npcol =            3
  ScaLAPACK block size set to:           16
  Allocating        0.250 MB for ovlp
  Allocating        0.250 MB for ham
  Allocating        0.250 MB for eigenvec
  Required Scalapack workspace - INTEGER:            1  REAL:             1
  Partitioning the integration grid into batches with parallel hashing+maxmin method.
  | Number of batches:     3735
  | Maximal batch size:     200
  | Minimal batch size:      99
  | Average batch size:     136.431
  | Standard deviation of batch sizes:      27.257

  Integration load balanced across    18 MPI tasks.
  Work distribution over tasks is as follows:
  Task     0 has      28299 integration points.
  Task     1 has      28342 integration points.
  Task     2 has      28267 integration points.
  Task     3 has      28297 integration points.
  Task     4 has      28316 integration points.
  Task     5 has      28343 integration points.
  Task     6 has      28356 integration points.
  Task     7 has      28252 integration points.
  Task     8 has      28312 integration points.
  Task     9 has      28349 integration points.
  Task    10 has      28368 integration points.
  Task    11 has      28285 integration points.
  Task    12 has      28285 integration points.
  Task    13 has      28270 integration points.
  Task    14 has      28355 integration points.
  Task    15 has      28263 integration points.
  Task    16 has      28259 integration points.
  Task    17 has      28350 integration points.
  Initializing partition tables, free-atom densities, potentials, etc. across the integration grid (initialize_grid_storage).
  | initialize_grid_storage: Actual outermost partition radius vs. multipole_radius_free
  | (-- VB: in principle, multipole_radius_free should be larger, hence this output)
  | Species        1: Confinement radius =              4.999999999999999 AA, multipole_radius_free =              5.054417573612229 AA.
  | Species        1: outer_partition_radius set to              5.054417573612229 AA .
  | Species        2: Confinement radius =              4.999999999999999 AA, multipole_radius_free =              5.048384829883283 AA.
  | Species        2: outer_partition_radius set to              5.048384829883283 AA .
  | The sparse table of interatomic distances needs       4196.44 kbyte instead of     16773.63 kbyte of memory.
  | Net number of integration points:   509568
  | of which are non-zero points    :   413218
  | Numerical average free-atom electrostatic potential    :     -4.74386230 eV
  Renormalizing the initial density to the exact electron count on the 3D integration grid.
  | Initial density: Formal number of electrons (from input files) :     320.0000000000
  | Integrated number of electrons on 3D grid     :     319.9988469933
  | Charge integration error                      :      -0.0011530067
  | Normalization factor for density and gradient :       1.0000036032
  Renormalizing the free-atom superposition density to the exact electron count on the 3D integration grid.
  | Formal number of electrons (from input files) :     320.0000000000
  | Integrated number of electrons on 3D grid     :     319.9988469933
  | Charge integration error                      :      -0.0011530067
  | Normalization factor for density and gradient :       1.0000036032
  Obtaining max. number of non-zero basis functions in each batch (get_n_compute_maxes).
  | Maximal number of non-zero basis functions:      391 in task     0
  | Maximal number of non-zero basis functions:      385 in task     1
  | Maximal number of non-zero basis functions:      377 in task     2
  | Maximal number of non-zero basis functions:      388 in task     3
  | Maximal number of non-zero basis functions:      407 in task     4
  | Maximal number of non-zero basis functions:      370 in task     5
  | Maximal number of non-zero basis functions:      402 in task     6
  | Maximal number of non-zero basis functions:      386 in task     7
  | Maximal number of non-zero basis functions:      380 in task     8
  | Maximal number of non-zero basis functions:      376 in task     9
  | Maximal number of non-zero basis functions:      375 in task    10
  | Maximal number of non-zero basis functions:      386 in task    11
  | Maximal number of non-zero basis functions:      399 in task    12
  | Maximal number of non-zero basis functions:      390 in task    13
  | Maximal number of non-zero basis functions:      406 in task    14
  | Maximal number of non-zero basis functions:      398 in task    15
  | Maximal number of non-zero basis functions:      374 in task    16
  | Maximal number of non-zero basis functions:      411 in task    17
  Integrating Hamiltonian matrix: batch-based integration.
  GPU acceleration will be used when integrating the Hamiltonian matrix.
  Reporting GPU memory usage by myid 0.  Note that it is likely not the only MPI task binding to its GPU!
  Allocating        1.223 MB on GPU for hamiltonian_shell
  Allocating        0.626 MB on GPU for wave
  Allocating        0.002 MB on GPU for partition
  Allocating        0.626 MB on GPU for h_times_psi
  Time summed over all CPUs for integration: real work       10.030 s, elapsed       10.458 s
  Deallocating memory used on GPU for Hamiltonian integration.
  Integrating overlap matrix.
  Time summed over all CPUs for integration: real work        8.013 s, elapsed        8.454 s
  Deallocating overlap matrix.

  Updating Kohn-Sham eigenvalues and eigenvectors using ELSI and the ELPA eigensolver.
  Singularity check in k-point 1 (analysis for other k-points may follow below):
  Overlap matrix is not singular
  | Lowest and highest eigenvalues :  0.2416E-02,  0.6458E+01
  Finished singularity check of overlap matrix
  | Time :     0.162 s
  Starting ELPA eigensolver (GPU)
  Finished Cholesky decomposition
  | Time :     0.007 s
  Finished transformation to standard eigenproblem
  | Time :     0.026 s
  Finished solving standard eigenproblem
  | Time :     0.197 s
  Finished back-transformation of eigenvectors
  | Time :     0.019 s

  Obtaining occupation numbers and electronic chemical potential using ELSI.
  | Note that, for insulating systems, the printed 'chemical potential' value is not uniquely defined.
  | It can be anywhere in the energy gap, as long as it correctly separates occupied and unoccupied states.
  | In systems with a gap, the physically relevant chemical potential is the VBM or HOMO.

  | Chemical potential (Fermi level):    -9.31227468 eV
  Writing Kohn-Sham eigenvalues.

  State    Occupation    Eigenvalue [Ha]    Eigenvalue [eV]
      1       2.00000         -18.955064         -515.79353
      2       2.00000         -18.898623         -514.25769
      3       2.00000         -18.892958         -514.10354
      4       2.00000         -18.885969         -513.91337
      5       2.00000         -18.885482         -513.90010
      6       2.00000         -18.880793         -513.77252
      7       2.00000         -18.879575         -513.73939
      8       2.00000         -18.879428         -513.73539
      9       2.00000         -18.878003         -513.69659
     10       2.00000         -18.875441         -513.62689
     11       2.00000         -18.873496         -513.57396
     12       2.00000         -18.870301         -513.48702
     13       2.00000         -18.867563         -513.41251
     14       2.00000         -18.866779         -513.39118
     15       2.00000         -18.865858         -513.36612
     16       2.00000         -18.864644         -513.33308
     17       2.00000         -18.863406         -513.29940
     18       2.00000         -18.863278         -513.29592
     19       2.00000         -18.863194         -513.29362
     20       2.00000         -18.862460         -513.27365
     21       2.00000         -18.862118         -513.26434
     22       2.00000         -18.861279         -513.24151
     23       2.00000         -18.859764         -513.20029
     24       2.00000         -18.859637         -513.19683
     25       2.00000         -18.857975         -513.15160
     26       2.00000         -18.857101         -513.12782
     27       2.00000         -18.856847         -513.12091
     28       2.00000         -18.851986         -512.98864
     29       2.00000         -18.851466         -512.97449
     30       2.00000         -18.846654         -512.84356
     31       2.00000         -18.841800         -512.71147
     32       2.00000         -18.839789         -512.65673
     33       2.00000          -1.225478          -33.34695
     34       2.00000          -1.155428          -31.44081
     35       2.00000          -1.152013          -31.34787
     36       2.00000          -1.130766          -30.76971
     37       2.00000          -1.120494          -30.49018
     38       2.00000          -1.118800          -30.44410
     39       2.00000          -1.116908          -30.39262
     40       2.00000          -1.111549          -30.24678
     41       2.00000          -1.110308          -30.21303
     42       2.00000          -1.108565          -30.16559
     43       2.00000          -1.107619          -30.13985
     44       2.00000          -1.099067          -29.90713
     45       2.00000          -1.096676          -29.84208
     46       2.00000          -1.091276          -29.69514
     47       2.00000          -1.089760          -29.65389
     48       2.00000          -1.088848          -29.62907
     49       2.00000          -1.088308          -29.61435
     50       2.00000          -1.088009          -29.60623
     51       2.00000          -1.082402          -29.45366
     52       2.00000          -1.081790          -29.43701
     53       2.00000          -1.081061          -29.41718
     54       2.00000          -1.079612          -29.37773
     55       2.00000          -1.077678          -29.32510
     56       2.00000          -1.076476          -29.29240
     57       2.00000          -1.074984          -29.25180
     58       2.00000          -1.071184          -29.14840
     59       2.00000          -1.069637          -29.10629
     60       2.00000          -1.064954          -28.97888
     61       2.00000          -1.064329          -28.96188
     62       2.00000          -1.054580          -28.69659
     63       2.00000          -1.047546          -28.50517
     64       2.00000          -1.040900          -28.32432
     65       2.00000          -0.771372          -20.99010
     66       2.00000          -0.684591          -18.62868
     67       2.00000          -0.684083          -18.61485
     68       2.00000          -0.681201          -18.53643
     69       2.00000          -0.674163          -18.34491
     70       2.00000          -0.668661          -18.19518
     71       2.00000          -0.667173          -18.15471
     72       2.00000          -0.660453          -17.97184
     73       2.00000          -0.649156          -17.66444
     74       2.00000          -0.647611          -17.62240
     75       2.00000          -0.646433          -17.59033
     76       2.00000          -0.643832          -17.51955
     77       2.00000          -0.643449          -17.50915
     78       2.00000          -0.638930          -17.38616
     79       2.00000          -0.637850          -17.35678
     80       2.00000          -0.635322          -17.28798
     81       2.00000          -0.634163          -17.25646
     82       2.00000          -0.631768          -17.19128
     83       2.00000          -0.629428          -17.12762
     84       2.00000          -0.628322          -17.09750
     85       2.00000          -0.625561          -17.02238
     86       2.00000          -0.621357          -16.90799
     87       2.00000          -0.620356          -16.88075
     88       2.00000          -0.618575          -16.83229
     89       2.00000          -0.610349          -16.60845
     90       2.00000          -0.609375          -16.58193
     91       2.00000          -0.607570          -16.53282
     92       2.00000          -0.606277          -16.49763
     93       2.00000          -0.601022          -16.35464
     94       2.00000          -0.600307          -16.33520
     95       2.00000          -0.591385          -16.09241
     96       2.00000          -0.590885          -16.07881
     97       2.00000          -0.580095          -15.78519
     98       2.00000          -0.566730          -15.42150
     99       2.00000          -0.564853          -15.37044
    100       2.00000          -0.558170          -15.18857
    101       2.00000          -0.551809          -15.01548
    102       2.00000          -0.548136          -14.91553
    103       2.00000          -0.544327          -14.81188
    104       2.00000          -0.542245          -14.75525
    105       2.00000          -0.541384          -14.73180
    106       2.00000          -0.538863          -14.66320
    107       2.00000          -0.537488          -14.62579
    108       2.00000          -0.532870          -14.50014
    109       2.00000          -0.532371          -14.48654
    110       2.00000          -0.530459          -14.43451
    111       2.00000          -0.526489          -14.32650
    112       2.00000          -0.523296          -14.23960
    113       2.00000          -0.520045          -14.15114
    114       2.00000          -0.519467          -14.13542
    115       2.00000          -0.517400          -14.07917
    116       2.00000          -0.515109          -14.01684
    117       2.00000          -0.512726          -13.95199
    118       2.00000          -0.509651          -13.86832
    119       2.00000          -0.508675          -13.84175
    120       2.00000          -0.506783          -13.79028
    121       2.00000          -0.504307          -13.72290
    122       2.00000          -0.501221          -13.63892
    123       2.00000          -0.500549          -13.62062
    124       2.00000          -0.498968          -13.57762
    125       2.00000          -0.497446          -13.53620
    126       2.00000          -0.495507          -13.48343
    127       2.00000          -0.492864          -13.41150
    128       2.00000          -0.486480          -13.23780
    129       2.00000          -0.484654          -13.18812
    130       2.00000          -0.473670          -12.88923
    131       2.00000          -0.473294          -12.87899
    132       2.00000          -0.469441          -12.77413
    133       2.00000          -0.467344          -12.71708
    134       2.00000          -0.465015          -12.65369
    135       2.00000          -0.463451          -12.61114
    136       2.00000          -0.462926          -12.59686
    137       2.00000          -0.462157          -12.57594
    138       2.00000          -0.461313          -12.55297
    139       2.00000          -0.459316          -12.49861
    140       2.00000          -0.456636          -12.42569
    141       2.00000          -0.455638          -12.39854
    142       2.00000          -0.453428          -12.33841
    143       2.00000          -0.452200          -12.30498
    144       2.00000          -0.451681          -12.29086
    145       2.00000          -0.451029          -12.27311
    146       2.00000          -0.450716          -12.26461
    147       2.00000          -0.450055          -12.24662
    148       2.00000          -0.449232          -12.22424
    149       2.00000          -0.448335          -12.19981
    150       2.00000          -0.447779          -12.18469
    151       2.00000          -0.446588          -12.15227
    152       2.00000          -0.445429          -12.12073
    153       2.00000          -0.442691          -12.04623
    154       2.00000          -0.440606          -11.98949
    155       2.00000          -0.438429          -11.93025
    156       2.00000          -0.437928          -11.91663
    157       2.00000          -0.437052          -11.89278
    158       2.00000          -0.435574          -11.85257
    159       2.00000          -0.434918          -11.83473
    160       2.00000          -0.428770          -11.66741
    161       0.00000          -0.171164           -4.65761
    162       0.00000          -0.121189           -3.29772
    163       0.00000          -0.119020           -3.23869
    164       0.00000          -0.112735           -3.06767
    165       0.00000          -0.109361           -2.97586
    166       0.00000          -0.103424           -2.81431
    167       0.00000          -0.098393           -2.67740
    168       0.00000          -0.081686           -2.22279
    169       0.00000          -0.075346           -2.05027
    170       0.00000          -0.074089           -2.01606
    171       0.00000          -0.067745           -1.84343
    172       0.00000          -0.062463           -1.69970
    173       0.00000          -0.056669           -1.54205
    174       0.00000          -0.053033           -1.44309
    175       0.00000          -0.052464           -1.42761
    176       0.00000          -0.048938           -1.33167
    177       0.00000          -0.046082           -1.25394
    178       0.00000          -0.034492           -0.93856
    179       0.00000          -0.025616           -0.69705
    180       0.00000          -0.024363           -0.66294
    181       0.00000          -0.017430           -0.47430
    182       0.00000          -0.011941           -0.32493
    183       0.00000          -0.005147           -0.14005
    184       0.00000          -0.002699           -0.07344
    185       0.00000           0.001219            0.03318
    186       0.00000           0.006157            0.16754
    187       0.00000           0.010924            0.29726
    188       0.00000           0.011384            0.30978
    189       0.00000           0.020738            0.56431
    190       0.00000           0.021160            0.57578
    191       0.00000           0.026414            0.71877
    192       0.00000           0.029298            0.79724
    193       0.00000           0.036123            0.98295
    194       0.00000           0.037937            1.03231
    195       0.00000           0.039550            1.07622
    196       0.00000           0.040648            1.10608
    197       0.00000           0.049663            1.35140
    198       0.00000           0.051447            1.39995
    199       0.00000           0.053766            1.46304
    200       0.00000           0.056962            1.55003
    201       0.00000           0.059472            1.61831
    202       0.00000           0.061065            1.66168
    203       0.00000           0.064785            1.76288
    204       0.00000           0.069813            1.89971
    205       0.00000           0.070490            1.91814
    206       0.00000           0.073312            1.99493
    207       0.00000           0.076077            2.07017
    208       0.00000           0.078673            2.14079
    209       0.00000           0.080106            2.17981
    210       0.00000           0.081528            2.21849
    211       0.00000           0.084302            2.29398
    212       0.00000           0.087068            2.36924
    213       0.00000           0.088923            2.41972
    214       0.00000           0.093281            2.53831
    215       0.00000           0.098307            2.67507
    216       0.00000           0.100810            2.74319
    217       0.00000           0.102330            2.78454
    218       0.00000           0.105853            2.88041
    219       0.00000           0.108037            2.93984
    220       0.00000           0.110518            3.00734
    221       0.00000           0.116597            3.17276
    222       0.00000           0.121214            3.29840
    223       0.00000           0.128157            3.48733
    224       0.00000           0.134329            3.65526
    225       0.00000           0.139615            3.79911
    226       0.00000           0.145866            3.96922
    227       0.00000           0.146745            3.99312
    228       0.00000           0.154358            4.20030
    229       0.00000           0.155653            4.23553
    230       0.00000           0.160364            4.36372
    231       0.00000           0.167306            4.55264
    232       0.00000           0.183221            4.98569
    233       0.00000           0.186173            5.06603
    234       0.00000           0.187656            5.10638
    235       0.00000           0.190196            5.17550
    236       0.00000           0.194378            5.28929
    237       0.00000           0.199500            5.42866
    238       0.00000           0.206889            5.62974
    239       0.00000           0.211513            5.75557
    240       0.00000           0.217392            5.91555
    241       0.00000           0.223093            6.07066
    242       0.00000           0.224852            6.11854
    243       0.00000           0.230628            6.27571
    244       0.00000           0.233244            6.34690
    245       0.00000           0.244724            6.65929
    246       0.00000           0.248962            6.77459
    247       0.00000           0.256909            6.99085
    248       0.00000           0.260522            7.08917
    249       0.00000           0.263081            7.15881
    250       0.00000           0.265285            7.21876
    251       0.00000           0.277057            7.53909
    252       0.00000           0.281706            7.66561
    253       0.00000           0.284136            7.73173
    254       0.00000           0.287818            7.83192
    255       0.00000           0.294314            8.00869
    256       0.00000           0.306333            8.33575
    257       0.00000           0.310244            8.44216
    258       0.00000           0.313366            8.52711
    259       0.00000           0.319376            8.69066
    260       0.00000           0.325637            8.86104
    261       0.00000           0.332848            9.05726
[...]
  |    H      0     4.527807 A      4.527807 A        1.268855E-16 a.u.
  |    H      0     4.527807 A      4.583499 A       -4.900954E-17 a.u.
  |    H      0     4.527807 A      4.583499 A        4.713786E-16 a.u.
  |    H      2     3.678162 A  2.180220E+05 A            0.556529 a.u.
  |    H      1     3.958095 A  1.721251E+08 A            0.841931 a.u.
  |    H      0     4.527807 A  3.866455E+16 A            0.581436 a.u.
  |    O      0     2.043000 A      2.043000 A       -1.436841E-16 a.u.
  |    O      3     3.498446 A      3.498446 A        3.043453E-17 a.u.
  |    O      3     3.498446 A      3.498446 A        1.541443E-16 a.u.
  |    O      0     3.905335 A      3.905335 A        2.173090E-16 a.u.
  |    O      0     3.905335 A      3.905335 A        7.213445E-17 a.u.
  |    O      0     4.101052 A      4.101052 A        2.361718E-16 a.u.
  |    O      1     4.101052 A      4.101052 A        3.235185E-17 a.u.
  |    O      0     4.359549 A      4.359549 A       -5.329475E-17 a.u.
  |    O      1     4.413171 A      4.413171 A        3.261883E-17 a.u.
  |    O      1     4.522403 A      4.522403 A        6.417997E-16 a.u.
  |    O      1     4.522403 A      4.522403 A        4.224783E-16 a.u.
  |    O      2     4.522403 A      4.522403 A       -4.387647E-16 a.u.
  |    O      0     4.522403 A      4.578029 A        2.602039E-16 a.u.
  |    O      0     4.578029 A      4.578029 A        1.226235E-16 a.u.
  |    O      1     4.578029 A      4.578029 A       -6.107316E-16 a.u.
  |    O      1     4.578029 A      4.578029 A       -2.224438E-16 a.u.
  |    O      2     4.578029 A      4.578029 A       -7.020279E-16 a.u.
  |    O      2     4.522403 A      4.578029 A        1.323470E-15 a.u.
  |    O      2     4.578029 A      4.578029 A        7.923696E-16 a.u.
  |    O      2     4.522403 A      4.578029 A       -9.951815E-16 a.u.
  |    O      0     4.578029 A      4.634338 A       -8.813582E-18 a.u.
  |    O      1     4.578029 A      4.634338 A       -3.325386E-17 a.u.
  |    O      1     4.634338 A      4.634338 A        9.588032E-16 a.u.
  |    O      2     4.578029 A      4.634338 A        1.064715E-17 a.u.
  |    O      2     4.578029 A      4.634338 A       -3.770343E-15 a.u.
  |    O      4     3.251020 A  1.511584E+03 A            1.513372 a.u.
  |    O      3     3.541477 A  1.434166E+04 A            4.293220 a.u.
  |    O      2     4.634338 A  5.584435E+05 A            9.352428 a.u.
  |    O      1     4.634338 A  2.821283E+08 A            2.261940 a.u.
  |    O      0     4.578029 A  4.264100E+16 A            0.641234 a.u.

  | Shrink_full_auxil_basis : there are       38  radial auxiliary wave functions
                            accepted and       5 rejected.
  | Shrink_full_auxil_basis : there are totally                4544 partial auxiliary wave functions.
 
  | Maximal number of product basis functions per thread :   256   256
 
  | Minimal total memory requirement for three-center overlap :      10.450 Gbs
  | Number of local auxiliary basis functions on task:      0   256
  | Number of local auxiliary basis functions on task:      1   256
  | Number of local auxiliary basis functions on task:      2   256
  | Number of local auxiliary basis functions on task:      3   256
  | Number of local auxiliary basis functions on task:      4   256
  | Number of local auxiliary basis functions on task:      5   256
  | Number of local auxiliary basis functions on task:      6   256
  | Number of local auxiliary basis functions on task:      7   256
  | Number of local auxiliary basis functions on task:      8   256
  | Number of local auxiliary basis functions on task:      9   256
  | Number of local auxiliary basis functions on task:     10   256
  | Number of local auxiliary basis functions on task:     11   256
  | Number of local auxiliary basis functions on task:     12   256
  | Number of local auxiliary basis functions on task:     13   256
  | Number of local auxiliary basis functions on task:     14   240
  | Number of local auxiliary basis functions on task:     15   240
  | Number of local auxiliary basis functions on task:     16   240
  | Number of local auxiliary basis functions on task:     17   240
  | 2D aux task distribution:      3 X      6
  | 2D block size (nb_aux_2d):     64
 
  Basis pair condensation :    295296  -->     209619
 
 --------------------------------------------
  Constructing auxiliary basis (full product) ...
 
  Product basis:
  | charge radius: extent of product basis function
  | field radius: extent of its Coulomb potential
  | Species   l  charge radius    field radius  multipol momen
  |    H      1     3.910002 A      3.910002 A       -2.487223E-16 a.u.
  |    H      1     3.958095 A      3.958095 A       -2.441841E-16 a.u.
  |    H      0     4.527807 A      4.527807 A        1.268855E-16 a.u.
  |    H      0     4.527807 A      4.583499 A       -4.900954E-17 a.u.
  |    H      0     4.527807 A      4.583499 A        4.713786E-16 a.u.
  |    H      2     3.678162 A  2.180220E+05 A            0.556529 a.u.
  |    H      1     3.958095 A  1.721251E+08 A            0.841931 a.u.
  |    H      0     4.527807 A  3.866455E+16 A            0.581436 a.u.
  |    O      0     2.043000 A      2.043000 A       -1.436841E-16 a.u.
  |    O      3     3.498446 A      3.498446 A        3.043453E-17 a.u.
  |    O      3     3.498446 A      3.498446 A        1.541443E-16 a.u.
  |    O      0     3.905335 A      3.905335 A        2.173090E-16 a.u.
  |    O      0     3.905335 A      3.905335 A        7.213445E-17 a.u.
  |    O      0     4.101052 A      4.101052 A        2.361718E-16 a.u.
  |    O      1     4.101052 A      4.101052 A        3.235185E-17 a.u.
  |    O      0     4.359549 A      4.359549 A       -5.329475E-17 a.u.
  |    O      1     4.413171 A      4.413171 A        3.261883E-17 a.u.
  |    O      1     4.522403 A      4.522403 A        6.417997E-16 a.u.
  |    O      1     4.522403 A      4.522403 A        4.224783E-16 a.u.
  |    O      2     4.522403 A      4.522403 A       -4.387647E-16 a.u.
  |    O      0     4.522403 A      4.578029 A        2.602039E-16 a.u.
  |    O      0     4.578029 A      4.578029 A        1.226235E-16 a.u.
  |    O      1     4.578029 A      4.578029 A       -6.107316E-16 a.u.
  |    O      1     4.578029 A      4.578029 A       -2.224438E-16 a.u.
  |    O      2     4.578029 A      4.578029 A       -7.020279E-16 a.u.
  |    O      2     4.522403 A      4.578029 A        1.323470E-15 a.u.
  |    O      2     4.578029 A      4.578029 A        7.923696E-16 a.u.
  |    O      2     4.522403 A      4.578029 A       -9.951815E-16 a.u.
  |    O      0     4.578029 A      4.634338 A       -8.813582E-18 a.u.
  |    O      1     4.578029 A      4.634338 A       -3.325386E-17 a.u.
  |    O      1     4.634338 A      4.634338 A        9.588032E-16 a.u.
  |    O      2     4.578029 A      4.634338 A        1.064715E-17 a.u.
  |    O      2     4.578029 A      4.634338 A       -3.770343E-15 a.u.
  |    O      4     3.251020 A  1.511584E+03 A            1.513372 a.u.
  |    O      3     3.541477 A  1.434166E+04 A            4.293220 a.u.
  |    O      2     4.634338 A  5.584435E+05 A            9.352428 a.u.
  |    O      1     4.634338 A  2.821283E+08 A            2.261940 a.u.
  |    O      0     4.578029 A  4.264100E+16 A            0.641234 a.u.

  | Shrink_full_auxil_basis : there are       38  radial auxiliary wave functions
                            accepted and       5 rejected.
  | Shrink_full_auxil_basis : there are totally                4544 partial auxiliary wave functions.
 
  | Maximal number of product basis functions per thread :   256   256
 
  | Minimal total memory requirement for three-center overlap :      10.450 Gbs
  | Number of local auxiliary basis functions on task:      0   256
  | Number of local auxiliary basis functions on task:      1   256
  | Number of local auxiliary basis functions on task:      2   256
  | Number of local auxiliary basis functions on task:      3   256
  | Number of local auxiliary basis functions on task:      4   256
  | Number of local auxiliary basis functions on task:      5   256
  | Number of local auxiliary basis functions on task:      6   256
  | Number of local auxiliary basis functions on task:      7   256
  | Number of local auxiliary basis functions on task:      8   256
  | Number of local auxiliary basis functions on task:      9   256
  | Number of local auxiliary basis functions on task:     10   256
  | Number of local auxiliary basis functions on task:     11   256
  | Number of local auxiliary basis functions on task:     12   256
  | Number of local auxiliary basis functions on task:     13   256
  | Number of local auxiliary basis functions on task:     14   240
  | Number of local auxiliary basis functions on task:     15   240
  | Number of local auxiliary basis functions on task:     16   240
  | Number of local auxiliary basis functions on task:     17   240
  | 2D aux task distribution:      3 X      6
  | 2D block size (nb_aux_2d):     64
 
  Basis pair condensation :    295296  -->     209619
dP_dE (Bohr^3) at every cycle:--->
 (350.489230740814,0.000000000000000E+000) (-9.03304753671534,0.000000000000000E+000) (5.85084903587181,0.000000000000000E+000)
 (-9.02299693589070,0.000000000000000E+000) (338.347051216772,0.000000000000000E+000) (15.8004450312241,0.000000000000000E+000)
 (5.87275897456705,0.000000000000000E+000) (15.8037470804385,0.000000000000000E+000) (355.297160212251,0.000000000000000E+000)
DFPT polarizability (Bohr^3)        xx        yy        zz        xy        xz        yz
  | Polarizability:--->                       350.489230741                  338.347051217                  355.297160212                   -9.033047537                    5.850849036                   15.800445031

DFPT for dielectric_constant:--->  # PARSE DFPT_dielectric_tensor
               1.594120928709034            -0.015312089847219             0.009917884939235
              -0.015295052883535             1.573538490383817             0.026783633426126
               0.009955024891005             0.026789230792247             1.602270940955346

                                               :  max(cpu_time)    wall_clock(cpu1)
  | Time for  dielectric calculation            :        0.000 s           0.000 s
===========================================================================

------------------------------------------------------------------------------
  Final output of selected total energy values:

  The following output summarizes some interesting total energy values
  at the end of a run (AFTER all relaxation, molecular dynamics, etc.).

  | Total energy of the DFT / Hartree-Fock s.c.f. calculation      :         -66110.624032775 eV
  | Final zero-broadening corrected energy (caution - metals only) :         -66110.624032775 eV
  | For reference only, the value of 1 Hartree used in FHI-aims is :             27.211384500 eV
  | For reference only, the overall average (free atom contribution
  | + realspace contribution) of the electrostatic potential after
  | s.c.f. convergence is                                          :             -4.379188154 eV

  Before relying on these values, please be sure to understand exactly which
  total energy value is referred to by a given number. Different objects may
  all carry the same name 'total energy'. Definitions:

  Total energy of the DFT / Hartree-Fock s.c.f. calculation:
  | Note that this energy does not include ANY quantities calculated after the
  | s.c.f. cycle, in particular not ANY RPA, MP2, etc. many-body perturbation terms.

  Final zero-broadening corrected energy:
  | For metallic systems only, a broadening of the occupation numbers at the Fermi
  | level can be extrapolated back to zero broadening by an electron-gas inspired
  | formula. For all systems that are not real metals, this value can be
  | meaningless and should be avoided.

------------------------------------------------------------------------------
  Methods described in the following list of references were used in this FHI-aims run.
  If you publish the results, please make sure to cite these reference if they apply.
  FHI-aims is an academic code, and for our developers (often, Ph.D. students
  and postdocs), scientific credit in the community is essential.
  Thank you for helping us!

  For any use of FHI-aims, please cite:

    Volker Blum, Ralf Gehrke, Felix Hanke, Paula Havu, Ville Havu,
    Xinguo Ren, Karsten Reuter, and Matthias Scheffler
    'Ab initio molecular simulations with numeric atom-centered orbitals'
    Computer Physics Communications 180, 2175-2196 (2009)
    http://doi.org/10.1016/j.cpc.2009.06.022


  For Hartree-Fock, hybrid functionals, or many-body perturbation theory used in your run, please cite:

    Xinguo Ren, Patrick Rinke, Volker Blum, Juergen Wieferink, Alex Tkatchenko,
    Andrea Sanfilippo, Karsten Reuter, and Matthias Scheffler,
    'Resolution-of-identity approach to Hartree-Fock, hybrid density functionals,
    RPA, MP2, and GW with numeric atom-centered orbital basis functions'
    New Journal of Physics 14, 053020 (2012).
    http://doi.org/10.1088/1367-2630/14/5/053020


  The provided symmetry information was generated with SPGlib:

    Atsushi Togo, Yusuke Seto, Dimitar Pashov
    SPGlib 1.7.3 obtained from http://spglib.sourceforge.net
    Copyright (C) 2008 Atsushi Togo


  The DFPT (perturbation by an electric field) part of the code was used.
  Here is the corresponding reference:

    Honghui Shang, Nathaniel Raimbault, Mariana Rossi,
    Christian Carbogno, Patrick Rinke and Matthias Scheffler,
    'All-Electron, Real-Space Perturbation Theory for Homogeneous
    Electric Fields: Theory, Implementation, and Application within dft'
    New Journal of Physics, 20(7):073040, 2018


  The ELSI infrastructure was used in your run to solve the Kohn-Sham electronic structure.
  Please check out http://elsi-interchange.org to learn more.
  If scalability is important for your project, please acknowledge ELSI by citing:

    V. W-z. Yu, F. Corsetti, A. Garcia, W. P. Huhn, M. Jacquelin, W. Jia,
    B. Lange, L. Lin, J. Lu, W. Mi, A. Seifitokaldani, A. Vazquez-Mayagoitia,
    C. Yang, H. Yang, and V. Blum
    'ELSI: A unified software interface for Kohn-Sham electronic structure solvers'
    Computer Physics Communications 222, 267-285 (2018).
    http://doi.org/10.1016/j.cpc.2017.09.007


  For the real-space grid partitioning and parallelization used in this calculation, please cite:

    Ville Havu, Volker Blum, Paula Havu, and Matthias Scheffler,
    'Efficient O(N) integration for all-electron electronic structure calculation'
    'using numerically tabulated basis functions'
    Journal of Computational Physics 228, 8367-8379 (2009).
    http://doi.org/10.1016/j.jcp.2009.08.008


  The high-level electronic structure method used in your calculation
  employed our efficient localized resolution of identity for the Coulomb operator.
  Some calculations, especially large-scale hybrid density functional theory,
  are only possible thanks to this development. For this feature, please cite:

    Arvid Ihrig, Juergen Wieferink, Igor Ying Zhang, Matti Ropo, Xinguo Ren,
    Patrick Rinke, Matthias Scheffler, and Volker Blum,
    'Accurate localized resolution of identity approach for linear-scaling
    hybrid density functionals and for many-body perturbation theory'
    New Journal of Physics 117, 093020 (2015).
    http://doi.org/10.1088/1367-2630/17/9/093020

  Of course, there are many other important community references, e.g., those cited in the
  above references. Our list is limited to references that describe implementations in the
  FHI-aims code. The reason is purely practical (length of this list) - please credit others as well.

------------------------------------------------------------
          Leaving FHI-aims.
          Date     :  20230221, Time     :  151644.175

          Computational steps:
          | Number of self-consistency cycles          :           45
          | Number of SCF (re)initializations          :            1
          | Number of coupled perturbed self-consistency cycles          :            0
          | Number of CPSCF (re)initializations          :            0

          Detailed time accounting                     :  max(cpu_time)    wall_clock(cpu1)
          | Total time                                  :      401.961 s         414.109 s
          | GPU initialization                          :        2.194 s          10.074 s
          | Preparation time                            :        0.070 s           0.065 s
          | Boundary condition initalization            :        1.293 s           1.293 s
          | Grid partitioning                           :        0.423 s           0.423 s
          | Preloading free-atom quantities on grid     :        1.947 s           1.948 s
          | Free-atom superposition energy              :        0.287 s           0.286 s
          | Total time for integrations                 :       11.391 s          11.599 s
          | Product basis setup: Total time             :        0.000 s           0.000 s
          | Product basis: | 2-center integrations     :(       0.000 s)  (       0.000 s)
          | Product basis: | LVL 3-center & coefficient:(       0.000 s)  (       0.000 s)
          | Total time for solution of K.-S. equations  :        2.620 s           5.603 s
          | Total time for density update               :        7.902 s           8.190 s
          | Total time for mixing & preconditioning     :        8.304 s           8.307 s
          | Total time for Hartree multipole update     :        0.104 s           0.103 s
          | Total time for Hartree multipole sum        :       37.322 s          37.333 s
          | Total time for total energy evaluation      :        0.006 s           0.007 s
          | Total time for DFPT                         :      327.602 s         327.737 s
          | Total time first_order_DM                   :        0.266 s           0.267 s
          | Total time first_order_density              :       61.885 s          61.894 s
          | Total time first_order_potential            :       51.530 s          51.551 s
          | Total time first_order_H                    :      120.826 s         120.881 s
          | Total time solving of Sternheimer equations :        0.173 s           0.174 s
          | Total time for dielectric constant          :        0.000 s           0.000 s
          | Total time momentum matrix                  :        0.000 s           0.000 s

          GPU acceleration has been used for charge density update.
          GPU acceleration has been used for real-space Hamiltonian integration.
          Due to GPU usage, wall_clock(cpu1) will give a more reliable estimate for timings.

          Partial memory accounting:
          | Residual value for overall tracked memory usage across tasks:     0.000000 MB (should be 0.000000 MB)
          | Peak values for overall tracked memory usage:
          |   Minimum:      103.775 MB (on task  0 after allocating DFPT_pulay_mixing::pulay_mix::alphas)
          |   Maximum:      103.775 MB (on task  0 after allocating DFPT_pulay_mixing::pulay_mix::alphas)
          |   Average:      103.775 MB
          | Largest tracked array allocation:
          |   Minimum:       36.983 MB (DFPT_pulay_mixing::initialize_pulay_mixing::X_in_diffs on task  0)
          |   Maximum:       36.983 MB (DFPT_pulay_mixing::initialize_pulay_mixing::X_in_diffs on task  0)
          |   Average:       36.983 MB
          Note:  These values currently only include a subset of arrays which are explicitly tracked.
          The "true" memory usage will be greater.

          Have a nice day.
------------------------------------------------------------
