------------------------------------------------------------
          Invoking FHI-aims ...

          When using FHI-aims, please cite the following reference:

            Volker Blum, Ralf Gehrke, Felix Hanke, Paula Havu,
            Ville Havu, Xinguo Ren, Karsten Reuter, and Matthias Scheffler,
            'Ab Initio Molecular Simulations with Numeric Atom-Centered Orbitals',
            Computer Physics Communications 180, 2175-2196 (2009)

          In addition, many other developments in FHI-aims are likely important for
          your particular application. A partial list of references is given at the end of
          this file. Thank you for giving credit to the authors of these developments.

          For any questions about FHI-aims, please visit our slack channel at

            https://fhi-aims.slack.com

          and our main development and support site at

            https://aims-git.rz-berlin.mpg.de .

          The latter site, in particular, has a wiki to collect information, as well
          as an issue tracker to log discussions, suggest improvements, and report issues
          or bugs. https://aims-git.rz-berlin.mpg.de is also the main development site
          of the project and all new and updated code versions can be obtained there.
          Please send an email to aims-coordinators@fhi-berlin.mpg.de and we will add
          you to these sites. They are for you and everyone is welcome there.

------------------------------------------------------------



  Date     :  20230221, Time     :  121529.736
  Time zero on CPU 1             :   0.105730200000000E+01  s.
  Internal wall clock time zero  :           446213729.736  s.

  FHI-aims created a unique identifier for this run for later identification
  aims_uuid : EEBAD5B5-F02C-4C8B-A49D-65D1550F4642

  Build configuration of the current instance of FHI-aims
  -------------------------------------------------------
  FHI-aims version      : 221103
  Commit number         : 42523251a
  CMake host system     : Linux-5.3.18-150300.59.68-default
  CMake version         : 3.17.0
  Fortran compiler      : /mpcdf/soft/SLE_15/packages/x86_64/intel_oneapi/2021.3/mpi/2021.3.0/bin/mpiifort (Intel) version 20.2.3.20210609
  Fortran compiler flags: -O3 -ip -fp-model precise
  C compiler            : /mpcdf/soft/SLE_15/packages/x86_64/intel/2021.3.0/bin/icc (Intel) version 20.2.3.20210609
  C compiler flags      : -O3 -ip -fp-model precise -std=gnu99
  CUDA compiler         : /mpcdf/soft/SLE_15/packages/x86_64/cuda/11.6.2/bin/nvcc
  CUDA compiler flags   : -O3 -DAdd_ -lcublas
  HIP compiler          :
  HIP compiler flags    :
  HIP GPU arch          :
  ELPA2 kernel          : AVX512
  Using MPI
  Using ScaLAPACK
  Using LibXC
  Using CUDA
  Using i-PI
  Using RLSY
  Linking against: /mpcdf/soft/SLE_15/packages/x86_64/cuda/11.6.2/lib64/libcublas.so
                   /mpcdf/soft/SLE_15/packages/x86_64/cuda/11.6.2/lib64/libcudart.so
                   /mpcdf/soft/SLE_15/packages/x86_64/intel_oneapi/2021.3/mkl/latest/lib/intel64/libmkl_intel_lp64.so
                   /mpcdf/soft/SLE_15/packages/x86_64/intel_oneapi/2021.3/mkl/latest/lib/intel64/libmkl_sequential.so
                   /mpcdf/soft/SLE_15/packages/x86_64/intel_oneapi/2021.3/mkl/latest/lib/intel64/libmkl_core.so
                   /mpcdf/soft/SLE_15/packages/x86_64/intel_oneapi/2021.3/mkl/latest/lib/intel64/libmkl_blacs_intelmpi_lp64.so
                   /mpcdf/soft/SLE_15/packages/x86_64/intel_oneapi/2021.3/mkl/latest/lib/intel64/libmkl_scalapack_lp64.so

  Using       18 parallel tasks.
  Task        0 on host adag037 reporting.
  Task        1 on host adag037 reporting.
  Task        2 on host adag037 reporting.
  Task        3 on host adag037 reporting.
  Task        4 on host adag037 reporting.
  Task        5 on host adag037 reporting.
  Task        6 on host adag037 reporting.
  Task        7 on host adag037 reporting.
  Task        8 on host adag037 reporting.
  Task        9 on host adag037 reporting.
  Task       10 on host adag037 reporting.
  Task       11 on host adag037 reporting.
  Task       12 on host adag037 reporting.
  Task       13 on host adag037 reporting.
  Task       14 on host adag037 reporting.
  Task       15 on host adag037 reporting.
  Task       16 on host adag037 reporting.
  Task       17 on host adag037 reporting.

  Obtaining array dimensions for all initial allocations:
  
  -----------------------------------------------------------------------
  Parsing control.in (first pass over file, find array dimensions only).
  The contents of control.in will be repeated verbatim below
  unless switched off by setting 'verbatim_writeout .false.' .
  in the first line of control.in .
  -----------------------------------------------------------------------
  
  #########################################################################################
  #
  #  Volker Blum, 2017 : Test run input file control.in for simple H2O
  #
  #########################################################################################
  #
  #  Physical model
  #
    xc                 pw-lda
    spin               none
    relativistic       none
    charge             0.
  
    use_gpu
  
    DFPT dielectric
    ri_density_restart write
    ri_rho1 write
  #  ri_density_restart read 0
  #  ri_rho1 read
    ri_full_output .true.
    sc_accuracy_rho    1d-6
  #  use_calculate_fock_matrix_old .false.
  #  wave_threshold 1e-8
    k_grid 1 1 1
  #  output cube eigenstate 160
  #  output cube eigenstate 161
    wave_threshold 1e-8
    default_prodbas_acc 1e-6
    default_max_l_prodbas 6
  #
  #  Relaxation
  #
  #  relax_geometry   bfgs 1.e-2
  #
  
  ################################################################################
  
  
  ################################################################################
  #
  #  FHI-aims code project
  #  VB, Fritz-Haber Institut, 2009
  #
  #  Suggested "light" defaults for H atom (to be pasted into control.in file)
  #  Be sure to double-check any results obtained with these settings for post-processing,
  #  e.g., with the "tight" defaults and larger basis sets.
  #
  ################################################################################
    species        H
  #     global species definitions
      nucleus             1
      mass                1.00794
  #
      l_hartree           4
  #
      cut_pot             3.5  1.5  1.0
      basis_dep_cutoff    1e-4
  #
      radial_base         24 5.0
      radial_multiplier   1
      angular_grids       specified
        division   0.2421   50
        division   0.3822  110
        division   0.4799  194
        division   0.5341  302
  #      division   0.5626  434
  #      division   0.5922  590
  #      division   0.6542  770
  #      division   0.6868 1202
  #      outer_grid  770
        outer_grid  302
  ################################################################################
  #
  #  Definition of "minimal" basis
  #
  ################################################################################
  #     valence basis states
      valence      1  s   1.
  #     ion occupancy
      ion_occ      1  s   0.5
  ################################################################################
  #
  #  Suggested additional basis functions. For production calculations,
  #  uncomment them one after another (the most important basis functions are
  #  listed first).
  #
  #  Basis constructed for dimers: 0.5 A, 0.7 A, 1.0 A, 1.5 A, 2.5 A
  #
  ################################################################################
  #  "First tier" - improvements: -1014.90 meV to -62.69 meV
       hydro 2 s 2.1
       hydro 2 p 3.5
  #  "Second tier" - improvements: -12.89 meV to -1.83 meV
  #     hydro 1 s 0.85
  #     hydro 2 p 3.7
  #     hydro 2 s 1.2
  #     hydro 3 d 7
  #  "Third tier" - improvements: -0.25 meV to -0.12 meV
  #     hydro 4 f 11.2
  #     hydro 3 p 4.8
  #     hydro 4 d 9
  #     hydro 3 s 3.2
  ################################################################################
  #
  #  FHI-aims code project
  #  VB, Fritz-Haber Institut, 2009
  #
  #  Suggested "light" defaults for O atom (to be pasted into control.in file)
  #  Be sure to double-check any results obtained with these settings for post-processing,
  #  e.g., with the "tight" defaults and larger basis sets.
  #
  ################################################################################
    species        O
  #     global species definitions
      nucleus             8
      mass                15.9994
  #
      l_hartree           4
  #
      cut_pot             3.5  1.5  1.0
      basis_dep_cutoff    1e-4
  #
      radial_base         36 5.0
      radial_multiplier   1
       angular_grids specified
        division   0.2659   50
        division   0.4451  110
        division   0.6052  194
        division   0.7543  302
  #      division   0.8014  434
  #      division   0.8507  590
  #      division   0.8762  770
  #      division   0.9023  974
  #      division   1.2339 1202
  #      outer_grid 974
        outer_grid 302
  ################################################################################
  #
  #  Definition of "minimal" basis
  #
  ################################################################################
  #     valence basis states
      valence      2  s   2.
      valence      2  p   4.
  #     ion occupancy
      ion_occ      2  s   1.
      ion_occ      2  p   3.
  ################################################################################
  #
  #  Suggested additional basis functions. For production calculations,
  #  uncomment them one after another (the most important basis functions are
  #  listed first).
  #
  #  Constructed for dimers: 1.0 A, 1.208 A, 1.5 A, 2.0 A, 3.0 A
  #
  ################################################################################
  #  "First tier" - improvements: -699.05 meV to -159.38 meV
       hydro 2 p 1.8
       hydro 3 d 7.6
       hydro 3 s 6.4
  #  "Second tier" - improvements: -49.91 meV to -5.39 meV
  #     hydro 4 f 11.6
  #     hydro 3 p 6.2
  #     hydro 3 d 5.6
  #     hydro 5 g 17.6
  #     hydro 1 s 0.75
  #  "Third tier" - improvements: -2.83 meV to -0.50 meV
  #     ionic 2 p auto
  #     hydro 4 f 10.8
  #     hydro 4 d 4.7
  #     hydro 2 s 6.8
  #  "Fourth tier" - improvements: -0.40 meV to -0.12 meV
  #     hydro 3 p 5
  #     hydro 3 s 3.3
  #     hydro 5 g 15.6
  #     hydro 4 f 17.6
  #     hydro 4 d 14
  # Further basis functions - -0.08 meV and below
  #     hydro 3 s 2.1
  #     hydro 4 d 11.6
  #     hydro 3 p 16
  #     hydro 2 s 17.2
  
  -----------------------------------------------------------------------
  Completed first pass over input file control.in .
  -----------------------------------------------------------------------
  
  
  -----------------------------------------------------------------------
  Parsing geometry.in (first pass over file, find array dimensions only).
  The contents of geometry.in will be repeated verbatim below
  unless switched off by setting 'verbatim_writeout .false.' .
  in the first line of geometry.in .
  -----------------------------------------------------------------------
  
  #=======================================================
  # FHI-aims file: /ada/ptmp/mpsd/alewis/bulk_water/qmdata/data/geoms/5.in
  # Created using the Atomic Simulation Environment (ASE)
  # Tue Feb 21 11:23:37 2023
  #=======================================================
  lattice_vector 10.3974100000000007 0.0000000000000000 0.0000000000000000
  lattice_vector 0.0000000000000000 10.3974100000000007 0.0000000000000000
  lattice_vector 0.0000000000000000 0.0000000000000000 10.3974100000000007
  atom 7.5849599999999997 9.9302899999999994 1.4211400000000001 O
  atom 6.7763400000000003 9.6107999999999993 0.9473320000000000 H
  atom 8.3601700000000001 9.5892400000000002 1.4575800000000001 H
  atom 8.4026300000000003 10.1471000000000000 -1.4544800000000000 O
  atom 7.9909699999999999 10.2036999999999995 -0.5578640000000000 H
  atom 9.0889500000000005 10.7675000000000001 -1.5553900000000001 H
  atom -1.0737600000000000 1.7136800000000001 4.2022899999999996 O
  atom -0.4300160000000000 1.1056100000000000 3.5957499999999998 H
  atom -1.7871600000000001 1.3317399999999999 4.0308099999999998 H
  atom -0.9261610000000000 2.5016699999999998 7.1226300000000000 O
  atom -0.7960030000000000 2.6221999999999999 6.1579300000000003 H
  atom -1.9337299999999999 2.2984700000000000 7.3432399999999998 H
  atom -9.8658699999999993 -0.2301160000000000 12.5828000000000007 O
  atom -10.3460999999999999 -1.0445000000000000 12.6783999999999999 H
  atom -8.9778000000000002 -0.4445940000000000 12.8619000000000003 H
  atom -0.9408490000000000 -2.1398999999999999 17.3573999999999984 O
  atom -1.6941600000000001 -1.7593200000000000 17.0597999999999992 H
  atom -0.5068040000000000 -1.5611600000000001 17.8781999999999996 H
  atom 1.6733800000000001 3.2961700000000000 4.1477599999999999 O
  atom 0.8479190000000000 3.3341200000000000 3.8375699999999999 H
  atom 1.5129900000000001 3.7079000000000000 5.0814199999999996 H
  atom -3.7842400000000000 -0.8474820000000000 -4.0216799999999999 O
  atom -3.7740200000000002 -0.7936390000000000 -5.0088999999999997 H
  atom -3.6620100000000000 0.0685350000000000 -3.8079900000000002 H
  atom 4.7561600000000004 4.0360199999999997 -0.7314920000000000 O
  atom 5.0551500000000003 3.9828999999999999 0.1187040000000000 H
  atom 4.8298199999999998 4.9167699999999996 -0.9719220000000000 H
  atom 8.4641000000000002 -3.3797299999999999 9.5118100000000005 O
  atom 8.9147300000000005 -4.0064399999999996 10.0394000000000005 H
  atom 9.0120500000000003 -3.1977199999999999 8.6501000000000001 H
  atom 3.9933100000000001 6.6016500000000002 -1.9891200000000000 O
  atom 4.6656800000000000 7.3268100000000000 -1.7200800000000001 H
  atom 3.3036799999999999 6.9843799999999998 -1.4063099999999999 H
  atom 6.0656699999999999 -2.1993200000000002 8.9067000000000007 O
  atom 6.4218500000000001 -1.4550700000000001 8.4968699999999995 H
  atom 6.8615500000000003 -2.4798700000000000 9.3570600000000006 H
  atom 0.9769010000000000 -0.5522960000000000 -0.5855490000000000 O
  atom 0.3665600000000000 -0.3563640000000000 0.1678880000000000 H
  atom 1.5873299999999999 -1.3881699999999999 -0.2482250000000000 H
  atom 2.5302799999999999 5.8404999999999996 3.3408300000000000 O
  atom 3.1760000000000002 6.3583299999999996 3.8352800000000000 H
  atom 2.4189099999999999 5.0151700000000003 3.7099400000000000 H
  atom -4.5650800000000000 6.6715799999999996 6.1310700000000002 O
  atom -4.5649499999999996 7.6162299999999998 6.6460400000000002 H
  atom -5.1852400000000003 6.1775700000000002 6.4267599999999998 H
  atom -6.3544400000000003 8.2992100000000004 4.5090500000000002 O
  atom -6.0071399999999997 9.1264500000000002 5.0663000000000000 H
  atom -5.6436599999999997 7.8107600000000001 4.8663400000000001 H
  atom -1.8508100000000001 6.3148700000000000 5.1856600000000004 O
  atom -1.2698499999999999 6.8069800000000003 5.8396200000000000 H
  atom -2.8417800000000000 6.3208099999999998 5.6007600000000002 H
  atom -1.1882999999999999 3.9092300000000000 13.3948999999999998 O
  atom -1.6703100000000000 4.4483800000000002 14.0474999999999994 H
  atom -1.1176200000000001 3.0323000000000002 13.7116000000000007 H
  atom 6.5701700000000001 6.1663699999999997 1.1618800000000000 O
  atom 7.3487600000000004 6.5600500000000004 0.9689860000000000 H
  atom 6.0825199999999997 7.0709700000000000 1.3731700000000000 H
  atom 1.2590900000000000 1.8934400000000000 -1.7770300000000001 O
  atom 0.4815970000000000 2.2503299999999999 -2.4987699999999999 H
  atom 0.9816550000000001 1.0262199999999999 -1.3941699999999999 H
  atom 16.3014000000000010 3.7635299999999998 4.9641299999999999 O
  atom 15.5345999999999993 4.2939900000000000 5.1395900000000001 H
  atom 16.2777999999999992 3.5167600000000001 4.0723200000000004 H
  atom 3.0961799999999999 15.2963000000000005 6.3447699999999996 O
  atom 3.3839399999999999 14.4009999999999998 6.5880200000000002 H
  atom 2.4713400000000001 15.5959000000000003 6.9966900000000001 H
  atom 6.9128100000000003 10.5600000000000005 14.2905999999999995 O
  atom 6.0589199999999996 11.0909999999999993 14.2345000000000006 H
  atom 6.8947399999999996 10.2164000000000001 13.4370999999999992 H
  atom 1.5816900000000000 4.2949099999999998 9.8097399999999997 O
  atom 1.6016300000000001 3.3831300000000000 9.4701100000000000 H
  atom 2.4434700000000000 4.6839399999999998 9.8447999999999993 H
  atom 5.2012000000000000 -1.6402000000000001 1.5105200000000001 O
  atom 4.9390499999999999 -1.6695000000000000 2.4072100000000001 H
  atom 4.5699800000000002 -1.2794700000000001 1.0576700000000001 H
  atom 3.9489899999999998 0.8034030000000000 4.8703900000000004 O
  atom 3.5323300000000000 1.4304600000000001 4.4082400000000002 H
  atom 4.2152000000000003 1.0030800000000000 5.7450900000000003 H
  atom 3.7637800000000001 12.8834999999999997 7.4862599999999997 O
  atom 2.7591199999999998 12.5038000000000000 7.7921500000000004 H
  atom 4.0192399999999999 13.5827000000000009 8.2531199999999991 H
  atom 9.2856400000000008 8.0164000000000009 2.3139799999999999 O
  atom 9.9324899999999996 7.4080599999999999 1.8880500000000000 H
  atom 9.0785300000000007 7.4286700000000003 3.0195200000000000 H
  atom 6.6069500000000003 12.4244000000000003 6.9726600000000003 O
  atom 6.1277200000000001 12.8823000000000008 7.5047899999999998 H
  atom 6.6234200000000003 13.0707000000000004 6.1130899999999997 H
  atom 2.7251599999999998 7.1527700000000003 0.6681910000000000 O
  atom 2.4362499999999998 6.5303800000000001 1.3906600000000000 H
  atom 3.7227500000000000 6.8565100000000001 0.8003370000000000 H
  atom 9.8568300000000004 5.5842400000000003 0.9336230000000000 O
  atom 9.5450900000000001 4.7504200000000001 1.6267600000000000 H
  atom 10.6546000000000003 5.4139499999999998 0.4649250000000000 H
  atom 6.7061700000000002 3.5967099999999999 1.9941599999999999 O
  atom 7.4274199999999997 3.6024799999999999 2.6975799999999999 H
  atom 6.7881000000000000 4.3745500000000002 1.7597400000000001 H
  
  -----------------------------------------------------------------------
  Completed first pass over input file geometry.in .
  -----------------------------------------------------------------------
  

  Basic array size parameters:
  | Number of species                 :        2
  | Number of atoms                   :       96
  | Number of lattice vectors         :        3
  | Max. basis fn. angular momentum   :        2
  | Max. atomic/ionic basis occupied n:        2
  | Max. number of basis fn. types    :        2
  | Max. radial fns per species/type  :        3
  | Max. logarithmic grid size        :     1301
  | Max. radial integration grid size :       36
  | Max. angular integration grid size:      302
  | Max. angular grid division number :        8
  | Radial grid for Hartree potential :     1301
  | Number of spin channels           :        1

------------------------------------------------------------
          Reading file control.in.
------------------------------------------------------------
  XC: Using Perdew-Wang parametrisation of Ceperley-Alder LDA.
  Spin treatment: No spin polarisation.
  Non-relativistic treatment of kinetic energy.
  Charge =   0.000000E+00: Neutral system requested explicitly.
  DFPT calculation will begin after the DFT/HF calculation.
  Convergence accuracy of self-consistent charge density:  0.1000E-05
  Found k-point grid:         1         1         1
  Threshold value for wave function integration:  0.1000E-07
 
  Reading configuration options for species H                   .
  | Found nuclear charge :   1.0000
  | Found atomic mass :    1.00794000000000      amu
  | Found l_max for Hartree potential  :   4
  | Found cutoff potl. onset [A], width [A], scale factor :    3.50000    1.50000    1.00000
  | Threshold for basis-dependent cutoff potential is   0.100000E-03
  | Found data for basic radial integration grid :    24 points, outermost radius =    5.000 A
  | Found multiplier for basic radial grid :   1
  | Found angular grid specification: user-specified.
  | Specified grid contains     5 separate shells.
  | Check grid settings after all constraints further below.
  | Found free-atom valence shell :  1 s   1.000
  | No ionic wave fns used. Skipping ion_occ.
  | Found hydrogenic basis function :  2 s   2.100
  | Found hydrogenic basis function :  2 p   3.500
  Species H                   : Missing cutoff potential type.
  Defaulting to exp(1/x)/(1-x)^2 type cutoff potential.
  Species H : No 'logarithmic' tag. Using default grid for free atom:
  | Default logarithmic grid data [bohr] : 0.1000E-03 0.1000E+03 0.1012E+01
  Species H : On-site basis accuracy parameter (for Gram-Schmidt orthonormalisation) not specified.
  Using default value basis_acc =  0.1000000E-03.
  Species H                   : Using default innermost maximum threshold i_radial=  2 for radial functions.
  Species H                   : Default cutoff onset for free atom density etc. : 0.35000000E+01 AA.
  Species H                   : Basic radial grid will be enhanced according to radial_multiplier =   1, to contain    24 grid points.
 
  Reading configuration options for species O                   .
  | Found nuclear charge :   8.0000
  | Found atomic mass :    15.9994000000000      amu
  | Found l_max for Hartree potential  :   4
  | Found cutoff potl. onset [A], width [A], scale factor :    3.50000    1.50000    1.00000
  | Threshold for basis-dependent cutoff potential is   0.100000E-03
  | Found data for basic radial integration grid :    36 points, outermost radius =    5.000 A
  | Found multiplier for basic radial grid :   1
  | Found angular grid specification: user-specified.
  | Specified grid contains     5 separate shells.
  | Check grid settings after all constraints further below.
  | Found free-atom valence shell :  2 s   2.000
  | Found free-atom valence shell :  2 p   4.000
  | No ionic wave fns used. Skipping ion_occ.
  | No ionic wave fns used. Skipping ion_occ.
  | Found hydrogenic basis function :  2 p   1.800
  | Found hydrogenic basis function :  3 d   7.600
  | Found hydrogenic basis function :  3 s   6.400
  Species O                   : Missing cutoff potential type.
  Defaulting to exp(1/x)/(1-x)^2 type cutoff potential.
  Species O : No 'logarithmic' tag. Using default grid for free atom:
  | Default logarithmic grid data [bohr] : 0.1000E-03 0.1000E+03 0.1012E+01
  Species O : On-site basis accuracy parameter (for Gram-Schmidt orthonormalisation) not specified.
  Using default value basis_acc =  0.1000000E-03.
  Species O                   : Using default innermost maximum threshold i_radial=  2 for radial functions.
  Species O                   : Default cutoff onset for free atom density etc. : 0.35000000E+01 AA.
  Species O                   : Basic radial grid will be enhanced according to radial_multiplier =   1, to contain    36 grid points.
 
  Finished reading input file 'control.in'.
 
------------------------------------------------------------


------------------------------------------------------------
          Reading geometry description geometry.in.
------------------------------------------------------------
  | The smallest distance between any two atoms is         0.81651719 AA.
  | The first atom of this pair is atom number                     94 .
  | The second atom of this pair is atom number                    96 .
  | Wigner-Seitz cell of the first atom image           0     0     0 .
  | (The Wigner-Seitz cell of the second atom is 0 0 0  by definition.)

  Symmetry information by spglib:
  | Precision set to  0.1E-04
  | Number of Operations  : 1
  | Space group           : 1
  | International         : P1
  | Schoenflies           : C1^1
  Input structure read successfully.
  The structure contains       96 atoms,  and a total of        320.000 electrons.

  Input geometry:
  | Unit cell:
  |       10.39741000        0.00000000        0.00000000
  |        0.00000000       10.39741000        0.00000000
  |        0.00000000        0.00000000       10.39741000
  | Atomic structure:
  |       Atom                x [A]            y [A]            z [A]
  |    1: Species O             7.58496000        9.93029000        1.42114000
  |    2: Species H             6.77634000        9.61080000        0.94733200
  |    3: Species H             8.36017000        9.58924000        1.45758000
  |    4: Species O             8.40263000       10.14710000       -1.45448000
  |    5: Species H             7.99097000       10.20370000       -0.55786400
  |    6: Species H             9.08895000       10.76750000       -1.55539000
  |    7: Species O            -1.07376000        1.71368000        4.20229000
  |    8: Species H            -0.43001600        1.10561000        3.59575000
  |    9: Species H            -1.78716000        1.33174000        4.03081000
  |   10: Species O            -0.92616100        2.50167000        7.12263000
  |   11: Species H            -0.79600300        2.62220000        6.15793000
  |   12: Species H            -1.93373000        2.29847000        7.34324000
  |   13: Species O            -9.86587000       -0.23011600       12.58280000
  |   14: Species H           -10.34610000       -1.04450000       12.67840000
  |   15: Species H            -8.97780000       -0.44459400       12.86190000
  |   16: Species O            -0.94084900       -2.13990000       17.35740000
  |   17: Species H            -1.69416000       -1.75932000       17.05980000
  |   18: Species H            -0.50680400       -1.56116000       17.87820000
  |   19: Species O             1.67338000        3.29617000        4.14776000
  |   20: Species H             0.84791900        3.33412000        3.83757000
  |   21: Species H             1.51299000        3.70790000        5.08142000
  |   22: Species O            -3.78424000       -0.84748200       -4.02168000
  |   23: Species H            -3.77402000       -0.79363900       -5.00890000
  |   24: Species H            -3.66201000        0.06853500       -3.80799000
  |   25: Species O             4.75616000        4.03602000       -0.73149200
  |   26: Species H             5.05515000        3.98290000        0.11870400
  |   27: Species H             4.82982000        4.91677000       -0.97192200
  |   28: Species O             8.46410000       -3.37973000        9.51181000
  |   29: Species H             8.91473000       -4.00644000       10.03940000
  |   30: Species H             9.01205000       -3.19772000        8.65010000
  |   31: Species O             3.99331000        6.60165000       -1.98912000
  |   32: Species H             4.66568000        7.32681000       -1.72008000
  |   33: Species H             3.30368000        6.98438000       -1.40631000
  |   34: Species O             6.06567000       -2.19932000        8.90670000
  |   35: Species H             6.42185000       -1.45507000        8.49687000
  |   36: Species H             6.86155000       -2.47987000        9.35706000
  |   37: Species O             0.97690100       -0.55229600       -0.58554900
  |   38: Species H             0.36656000       -0.35636400        0.16788800
  |   39: Species H             1.58733000       -1.38817000       -0.24822500
  |   40: Species O             2.53028000        5.84050000        3.34083000
  |   41: Species H             3.17600000        6.35833000        3.83528000
  |   42: Species H             2.41891000        5.01517000        3.70994000
  |   43: Species O            -4.56508000        6.67158000        6.13107000
  |   44: Species H            -4.56495000        7.61623000        6.64604000
  |   45: Species H            -5.18524000        6.17757000        6.42676000
  |   46: Species O            -6.35444000        8.29921000        4.50905000
  |   47: Species H            -6.00714000        9.12645000        5.06630000
  |   48: Species H            -5.64366000        7.81076000        4.86634000
  |   49: Species O            -1.85081000        6.31487000        5.18566000
  |   50: Species H            -1.26985000        6.80698000        5.83962000
  |   51: Species H            -2.84178000        6.32081000        5.60076000
  |   52: Species O            -1.18830000        3.90923000       13.39490000
  |   53: Species H            -1.67031000        4.44838000       14.04750000
  |   54: Species H            -1.11762000        3.03230000       13.71160000
  |   55: Species O             6.57017000        6.16637000        1.16188000
  |   56: Species H             7.34876000        6.56005000        0.96898600
  |   57: Species H             6.08252000        7.07097000        1.37317000
  |   58: Species O             1.25909000        1.89344000       -1.77703000
  |   59: Species H             0.48159700        2.25033000       -2.49877000
  |   60: Species H             0.98165500        1.02622000       -1.39417000
  |   61: Species O            16.30140000        3.76353000        4.96413000
  |   62: Species H            15.53460000        4.29399000        5.13959000
  |   63: Species H            16.27780000        3.51676000        4.07232000
  |   64: Species O             3.09618000       15.29630000        6.34477000
  |   65: Species H             3.38394000       14.40100000        6.58802000
  |   66: Species H             2.47134000       15.59590000        6.99669000
  |   67: Species O             6.91281000       10.56000000       14.29060000
  |   68: Species H             6.05892000       11.09100000       14.23450000
  |   69: Species H             6.89474000       10.21640000       13.43710000
  |   70: Species O             1.58169000        4.29491000        9.80974000
  |   71: Species H             1.60163000        3.38313000        9.47011000
  |   72: Species H             2.44347000        4.68394000        9.84480000
  |   73: Species O             5.20120000       -1.64020000        1.51052000
  |   74: Species H             4.93905000       -1.66950000        2.40721000
  |   75: Species H             4.56998000       -1.27947000        1.05767000
  |   76: Species O             3.94899000        0.80340300        4.87039000
  |   77: Species H             3.53233000        1.43046000        4.40824000
  |   78: Species H             4.21520000        1.00308000        5.74509000
  |   79: Species O             3.76378000       12.88350000        7.48626000
  |   80: Species H             2.75912000       12.50380000        7.79215000
  |   81: Species H             4.01924000       13.58270000        8.25312000
  |   82: Species O             9.28564000        8.01640000        2.31398000
  |   83: Species H             9.93249000        7.40806000        1.88805000
  |   84: Species H             9.07853000        7.42867000        3.01952000
  |   85: Species O             6.60695000       12.42440000        6.97266000
  |   86: Species H             6.12772000       12.88230000        7.50479000
  |   87: Species H             6.62342000       13.07070000        6.11309000
  |   88: Species O             2.72516000        7.15277000        0.66819100
  |   89: Species H             2.43625000        6.53038000        1.39066000
  |   90: Species H             3.72275000        6.85651000        0.80033700
  |   91: Species O             9.85683000        5.58424000        0.93362300
  |   92: Species H             9.54509000        4.75042000        1.62676000
  |   93: Species H            10.65460000        5.41395000        0.46492500
  |   94: Species O             6.70617000        3.59671000        1.99416000
  |   95: Species H             7.42742000        3.60248000        2.69758000
  |   96: Species H             6.78810000        4.37455000        1.75974000

  Lattice parameters for 3D lattice (in Angstroms) :    10.397410   10.397410   10.397410
  Angle(s) between unit vectors (in degrees)       :    90.000000   90.000000   90.000000


  Quantities derived from the lattice vectors (in Angstrom^-1):
  | Reciprocal lattice vector 1:  0.604303  0.000000  0.000000
  | Reciprocal lattice vector 2:  0.000000  0.604303  0.000000
  | Reciprocal lattice vector 3:  0.000000  0.000000  0.604303
  | Unit cell volume                               :   0.112402E+04  Angstrom^3

  Fractional coordinates:
                         L1                L2                L3
       atom_frac         0.72950475        0.95507343        0.13668212  O
       atom_frac         0.65173346        0.92434558        0.09111231  H
       atom_frac         0.80406274        0.92227199        0.14018683  H
       atom_frac         0.80814645        0.97592574       -0.13988868  O
       atom_frac         0.76855390        0.98136940       -0.05365413  H
       atom_frac         0.87415520        1.03559444       -0.14959399  H
       atom_frac        -0.10327187        0.16481797        0.40416700  O
       atom_frac        -0.04135799        0.10633514        0.34583132  H
       atom_frac        -0.17188511        0.12808382        0.38767443  H
       atom_frac        -0.08907613        0.24060511        0.68503887  O
       atom_frac        -0.07655782        0.25219742        0.59225615  H
       atom_frac        -0.18598189        0.22106178        0.70625665  H
       atom_frac        -0.94887765       -0.02213205        1.21018600  O
       atom_frac        -0.99506512       -0.10045771        1.21938060  H
       atom_frac        -0.86346504       -0.04276007        1.23702922  H
       atom_frac        -0.09048879       -0.20581087        1.66939651  O
       atom_frac        -0.16294058       -0.16920752        1.64077400  H
       atom_frac        -0.04874329       -0.15014893        1.71948591  H
       atom_frac         0.16094200        0.31701837        0.39892242  O
       atom_frac         0.08155098        0.32066832        0.36908903  H
       atom_frac         0.14551605        0.35661766        0.48871979  H
       atom_frac        -0.36395987       -0.08150895       -0.38679633  O
       atom_frac        -0.36297693       -0.07633045       -0.48174497  H
       atom_frac        -0.35220406        0.00659155       -0.36624409  H
       atom_frac         0.45743700        0.38817552       -0.07035329  O
       atom_frac         0.48619320        0.38306655        0.01141669  H
       atom_frac         0.46452145        0.47288411       -0.09347732  H
       atom_frac         0.81405850       -0.32505499        0.91482494  O
       atom_frac         0.85739910       -0.38533058        0.96556739  H
       atom_frac         0.86675913       -0.30754967        0.83194757  H
       atom_frac         0.38406776        0.63493216       -0.19130918  O
       atom_frac         0.44873483        0.70467645       -0.16543351  H
       atom_frac         0.31774067        0.67174229       -0.13525580  H
       atom_frac         0.58338278       -0.21152575        0.85662679  O
       atom_frac         0.61763939       -0.13994543        0.81721025  H
       atom_frac         0.65992877       -0.23850844        0.89994143  H
       atom_frac         0.09395619       -0.05311861       -0.05631681  O
       atom_frac         0.03525493       -0.03427430        0.01614710  H
       atom_frac         0.15266590       -0.13351113       -0.02387373  H
       atom_frac         0.24335676        0.56172643        0.32131367  O
       atom_frac         0.30546069        0.61153018        0.36886879  H
       atom_frac         0.23264544        0.48234801        0.35681386  H
       atom_frac        -0.43905934        0.64165787        0.58967281  O
       atom_frac        -0.43904684        0.73251223        0.63920149  H
       atom_frac        -0.49870497        0.59414508        0.61811163  H
       atom_frac        -0.61115605        0.79819974        0.43367050  O
       atom_frac        -0.57775350        0.87776187        0.48726558  H
       atom_frac        -0.54279479        0.75122170        0.46803387  H
       atom_frac        -0.17800683        0.60735029        0.49874536  O
       atom_frac        -0.12213138        0.65468035        0.56164179  H
       atom_frac        -0.27331614        0.60792159        0.53866876  H
       atom_frac        -0.11428808        0.37598113        1.28829199  O
       atom_frac        -0.16064674        0.42783539        1.35105762  H
       atom_frac        -0.10749023        0.29163994        1.31875150  H
       atom_frac         0.63190448        0.59306789        0.11174706  O
       atom_frac         0.70678756        0.63093116        0.09319494  H
       atom_frac         0.58500338        0.68007033        0.13206847  H
       atom_frac         0.12109650        0.18210689       -0.17091083  O
       atom_frac         0.04631894        0.21643178       -0.24032620  H
       atom_frac         0.09441342        0.09869958       -0.13408820  H
       atom_frac         1.56783276        0.36196803        0.47743909  O
       atom_frac         1.49408362        0.41298650        0.49431445  H
       atom_frac         1.56556296        0.33823423        0.39166677  H
       atom_frac         0.29778377        1.47116445        0.61022601  O
       atom_frac         0.32545990        1.38505647        0.63362126  H
       atom_frac         0.23768804        1.49997932        0.67292624  H
       atom_frac         0.66485884        1.01563755        1.37443844  O
       atom_frac         0.58273358        1.06670796        1.36904287  H
       atom_frac         0.66312091        0.98259086        1.29235069  H
       atom_frac         0.15212346        0.41307499        0.94347919  O
       atom_frac         0.15404125        0.32538199        0.91081433  H
       atom_frac         0.23500756        0.45049104        0.94685119  H
       atom_frac         0.50023996       -0.15775082        0.14527849  O
       atom_frac         0.47502695       -0.16056883        0.23152016  H
       atom_frac         0.43953061       -0.12305661        0.10172437  H
       atom_frac         0.37980516        0.07726953        0.46842339  O
       atom_frac         0.33973172        0.13757849        0.42397482  H
       atom_frac         0.40540865        0.09647403        0.55255011  H
       atom_frac         0.36199207        1.23910666        0.72001200  O
       atom_frac         0.26536609        1.20258795        0.74943183  H
       atom_frac         0.38656165        1.30635418        0.79376691  H
       atom_frac         0.89307241        0.77099970        0.22255350  O
       atom_frac         0.95528502        0.71249090        0.18158849  H
       atom_frac         0.87315303        0.71447312        0.29041078  H
       atom_frac         0.63544190        1.19495144        0.67061509  O
       atom_frac         0.58935062        1.23899125        0.72179418  H
       atom_frac         0.63702595        1.25711115        0.58794354  H
       atom_frac         0.26209989        0.68793767        0.06426514  O
       atom_frac         0.23431316        0.62807757        0.13375062  H
       atom_frac         0.35804590        0.65944403        0.07697465  H
       atom_frac         0.94800821        0.53707991        0.08979380  O
       atom_frac         0.91802574        0.45688494        0.15645819  H
       atom_frac         1.02473597        0.52070179        0.04471546  H
       atom_frac         0.64498466        0.34592365        0.19179392  O
       atom_frac         0.71435290        0.34647859        0.25944730  H
       atom_frac         0.65286451        0.42073459        0.16924792  H

 
  Finished reading input file 'geometry.in'.
 

 
  Consistency checks for stacksize environment parameter are next.
 
  | Maximum stacksize for task 0: unlimited
  | Maximum stacksize for task 1: unlimited
  | Maximum stacksize for task 2: unlimited
  | Maximum stacksize for task 3: unlimited
  | Maximum stacksize for task 4: unlimited
  | Maximum stacksize for task 5: unlimited
  | Maximum stacksize for task 6: unlimited
  | Maximum stacksize for task 7: unlimited
  | Maximum stacksize for task 8: unlimited
  | Maximum stacksize for task 9: unlimited
  | Maximum stacksize for task 10: unlimited
  | Maximum stacksize for task 11: unlimited
  | Maximum stacksize for task 12: unlimited
  | Maximum stacksize for task 13: unlimited
  | Maximum stacksize for task 14: unlimited
  | Maximum stacksize for task 15: unlimited
  | Maximum stacksize for task 16: unlimited
  | Maximum stacksize for task 17: unlimited
  | Current stacksize for task 0: unlimited
  | Current stacksize for task 1: unlimited
  | Current stacksize for task 2: unlimited
  | Current stacksize for task 3: unlimited
  | Current stacksize for task 4: unlimited
  | Current stacksize for task 5: unlimited
  | Current stacksize for task 6: unlimited
  | Current stacksize for task 7: unlimited
  | Current stacksize for task 8: unlimited
  | Current stacksize for task 9: unlimited
  | Current stacksize for task 10: unlimited
  | Current stacksize for task 11: unlimited
  | Current stacksize for task 12: unlimited
  | Current stacksize for task 13: unlimited
  | Current stacksize for task 14: unlimited
  | Current stacksize for task 15: unlimited
  | Current stacksize for task 16: unlimited
  | Current stacksize for task 17: unlimited
 
  Consistency checks for the contents of control.in are next.
 
  MPI_IN_PLACE appears to work with this MPI implementation.
  | Keeping use_mpi_in_place .true. (see manual).
  Explicit treatment of the Coulomb operator is needed, but the RI method is not specified.
  Coulomb operator: Defaulting to 'LVL fast' resolution of identity - RI_type = LVL_fast
  Species H: Using default value for prodbas_acc =   1.000000E-06.
  Species H: Using default value max_l_prodbas =     6.
  Species O: Using default value for prodbas_acc =   1.000000E-06.
  Species O: Using default value max_l_prodbas =     6.
  Target number of points in a grid batch is not set.  Since GPU acceleration is enabled, defaulting to  200
  Method for grid partitioning is not set. Defaulting to parallel hash+maxmin partitioning.
  Batch size limit is not set. Defaulting to    200
  By default, will store active basis functions for each batch.
  If in need of memory, prune_basis_once .false. can be used to disable this option.
  communication_type for Hartree potential was not specified.
  Defaulting to calc_hartree .
  Defaulting to Pulay charge density mixer.
  Pulay mixer: Number of relevant iterations not set.
  Defaulting to    8 iterations.
  Pulay mixer: Number of initial linear mixing iterations not set.
  Defaulting to    0 iterations.
  Work space size for distributed Hartree potential not set.
  Defaulting to   0.200000E+03 MB.
  Mixing parameter for charge density mixing has not been set.
  Using default: charge_mix_param =     0.0500.
  The mixing parameter will be adjusted in iteration number     2 of the first full s.c.f. cycle only.
  Algorithm-dependent basis array size parameters:
  | n_max_pulay                         :        8
  Maximum number of self-consistency iterations not provided.
  Presetting  1000 iterations.
  Presetting      1001 iterations before the initial mixing cycle
  is restarted anyway using the sc_init_iter criterion / keyword.
  Presetting a factor      1.000 between actual scf density residual
  and density convergence criterion sc_accuracy_rho below which sc_init_iter
  takes no effect.
  Calculation of forces was not defined in control.in. No forces will be calculated.
  Geometry relaxation not requested: no relaxation will be performed.
  No accuracy limit for integral partition fn. given. Defaulting to  0.1000E-14.
  No occupation type (smearing scheme) given. Defaulting to Gaussian broadening, width =  0.1000E-01 eV.
  The width will be adjusted in iteration number     2 of the first full s.c.f. cycle only.
  S.C.F. convergence parameters will be adjusted in iteration number     2 of the first full s.c.f. cycle only.
  No accuracy for occupation numbers given. Defaulting to  0.1000E-12.
  No threshold value for occupation numbers given. Defaulting to  0.0000E+00.
  No accuracy for fermi level given. Defaulting to  0.1000E-19.
  Maximum # of iterations to find E_F not set. Defaulting to  200.
  Preferred method for the eigenvalue solver ('KS_method') not specified in 'control.in'.
  Calling BLACS routine to test compilation state
  Since ScaLAPACK support is enabled, defaulting to ELPA (via ELSI).
  Will not use alltoall communication since running on < 1024 CPUs.
  Threshold for basis singularities not set.
  Default threshold for basis singularities:  0.1000E-04
  partition_type (choice of integration weights) for integrals was not specified.
  | Using a version of the partition function of Stratmann and coworkers ('stratmann_sparse').
  | At each grid point, the set of atoms used to build the partition table is smoothly restricted to
  | only those atoms whose free-atom density would be non-zero at that grid point.
  Partitioning for Hartree potential was not defined. Using partition_type for integrals.
  | Adjusted default value of keyword multip_moments_threshold to:       0.10000000E-11
  | This value may affect high angular momentum components of the Hartree potential in periodic systems.
  Angular momentum expansion for Kerker preconditioner not set explicitly.
  | Using default value of   0
  No explicit requirement for turning off preconditioner.
  | By default, it will be turned off when the charge convergence reaches
  | sc_accuracy_rho  =   0.100000E-05
  No special mixing parameter while Kerker preconditioner is on.
  Using default: charge_mix_param =     0.0500.
  Threshold for auxiliary basis singularities not set.
  Default threshold for auxiliary basis singularities:  0.1000E-04
  No q(lm)/r^(l+1) cutoff set for long-range Hartree potential.
  | Using default value of  0.100000E-09 .
  | Verify using the multipole_threshold keyword.
  Defaulting to new monopole extrapolation.
  Density update method: automatic selection selected.
  Using density matrix based charge density update.
  Using density matrix based charge density update.
  Using packed matrix style: index .
  Defaulting to use time-reversal symmetry for k-point grid.
  Charge integration errors on the 3D integration grid will be compensated
  by explicit normalization and distribution of residual charges.
  Use the "compensate_multipole_errors" flag to change this behaviour.
  Default to 1D ("use_logsbt") integrations for auxiliary 2-center integrals.
  Default onset of logarithmic r-grid for SBT is -38.000000000000
  Default onset of logarithmic k-grid for SBT is -25.000000000000
  Default range of logarithmic r- and k-grid for SBT is  45.000000000000
  Default number of logarithmic r- and k-grid for SBT is   4096
  Default of use_2d_corr is to use the efficient 2D distribution where possible
 
  Consistency checks for the contents of geometry.in are next.
 

  Range separation radius for Ewald summation (hartree_convergence_parameter):      3.17125957 bohr.
  Number of empty states per atom not set in control.in .
  | Since you are using a method that relies on the unoccupied spectrum
  | (MP2,GW,RPA et al.), will use the full Hamiltonian size (see below)
  | as the max. possible number of states (occupied plus empty).

  Structure-dependent array size parameters: 
  | Maximum number of distinct radial functions  :        9
  | Maximum number of basis functions            :      768
  | Number of Kohn-Sham states (occupied + empty):      768
------------------------------------------------------------

  Performing system and environment tests:
  | Environment variable OMP_NUM_THREADS correctly set to 1.
  | Checking for ScaLAPACK...
  | Testing pdtran()...
  | All pdtran() tests passed.
CUDA runtime version: 11060
CUDA driver version: 11060
  Initializing GPUs...

  Number of GPUs available to MPI task         0 :   1
  Number of GPUs available to MPI task         1 :   1
  Number of GPUs available to MPI task         2 :   1
  Number of GPUs available to MPI task         3 :   1
  Number of GPUs available to MPI task         4 :   1
  Number of GPUs available to MPI task         5 :   1
  Number of GPUs available to MPI task         6 :   1
  Number of GPUs available to MPI task         7 :   1
  Number of GPUs available to MPI task         8 :   1
  Number of GPUs available to MPI task         9 :   1
  Number of GPUs available to MPI task        10 :   1
  Number of GPUs available to MPI task        11 :   1
  Number of GPUs available to MPI task        12 :   1
  Number of GPUs available to MPI task        13 :   1
  Number of GPUs available to MPI task        14 :   1
  Number of GPUs available to MPI task        15 :   1
  Number of GPUs available to MPI task        16 :   1
  Number of GPUs available to MPI task        17 :   1

  | MPI task         0, GPU activated = T, Device Name = NVIDIA A100-SXM4-80GB
  | MPI task         1, GPU activated = T, Device Name = NVIDIA A100-SXM4-80GB
  | MPI task         2, GPU activated = T, Device Name = NVIDIA A100-SXM4-80GB
  | MPI task         3, GPU activated = T, Device Name = NVIDIA A100-SXM4-80GB
  | MPI task         4, GPU activated = T, Device Name = NVIDIA A100-SXM4-80GB
  | MPI task         5, GPU activated = T, Device Name = NVIDIA A100-SXM4-80GB
  | MPI task         6, GPU activated = T, Device Name = NVIDIA A100-SXM4-80GB
  | MPI task         7, GPU activated = T, Device Name = NVIDIA A100-SXM4-80GB
  | MPI task         8, GPU activated = T, Device Name = NVIDIA A100-SXM4-80GB
  | MPI task         9, GPU activated = T, Device Name = NVIDIA A100-SXM4-80GB
  | MPI task        10, GPU activated = T, Device Name = NVIDIA A100-SXM4-80GB
  | MPI task        11, GPU activated = T, Device Name = NVIDIA A100-SXM4-80GB
  | MPI task        12, GPU activated = T, Device Name = NVIDIA A100-SXM4-80GB
  | MPI task        13, GPU activated = T, Device Name = NVIDIA A100-SXM4-80GB
  | MPI task        14, GPU activated = T, Device Name = NVIDIA A100-SXM4-80GB
  | MPI task        15, GPU activated = T, Device Name = NVIDIA A100-SXM4-80GB
  | MPI task        16, GPU activated = T, Device Name = NVIDIA A100-SXM4-80GB
  | MPI task        17, GPU activated = T, Device Name = NVIDIA A100-SXM4-80GB

------------------------------------------------------------
          Preparing all fixed parts of the calculation.
------------------------------------------------------------
  Determining machine precision:
    2.225073858507201E-308
  Setting up grids for atomic and cluster calculations.

  Creating wave function, potential, and density for free atoms.
  Runtime choices for atomic solver:
  | atomic solver xc        : PW-LDA
  | compute density gradient: 0
  | compute kinetic density : F

  Species: H

  List of occupied orbitals and eigenvalues:
    n    l              occ      energy [Ha]    energy [eV]
    1    0           1.0000        -0.232375        -6.3233


  Species: O

  List of occupied orbitals and eigenvalues:
    n    l              occ      energy [Ha]    energy [eV]
    1    0           2.0000       -18.757744      -510.4242
    2    0           2.0000        -0.870917       -23.6989
    2    1           4.0000        -0.337950        -9.1961


  Adding cutoff potential to free-atom effective potential.
  Creating fixed part of basis set: Ionic, confined, hydrogenic.
 
  H                    hydrogenic:
 
  List of hydrogenic basis orbitals: 
    n    l      effective z      eigenvalue [eV]  inner max. [A]     outer max. [A]     outer radius [A]   
    2    0         2.100000       -14.9728           0.193243           1.317208           4.696947
    2    1         3.500000       -41.6669           0.602369           0.602369           3.862494
 
 
  O                    hydrogenic:
 
  List of hydrogenic basis orbitals: 
    n    l      effective z      eigenvalue [eV]  inner max. [A]     outer max. [A]     outer radius [A]   
    2    1         1.800000       -10.9749           1.164242           1.164242           4.691341
    3    2         7.600000       -87.3180           0.624125           0.624125           3.413946
    3    0         6.400000       -61.9207           0.061167           1.081902           4.151495
 
  Creating atomic-like basis functions for current effective potential.

  Species H                   :

  List of atomic basis orbitals and eigenvalues:
    n    l      energy [Ha]    energy [eV]    outer radius [A]
    1    0        -0.232375        -6.3233       4.696947


  Species O                   :

  List of atomic basis orbitals and eigenvalues:
    n    l      energy [Ha]    energy [eV]    outer radius [A]
    1    0       -18.757744      -510.4242       1.830144
    2    0        -0.870917       -23.6989       4.578029
    2    1        -0.337950        -9.1961       4.634338

  Assembling full basis from fixed parts.
  | Species H :   atomic orbital   1 s accepted.
  | Species H :    hydro orbital   2 s accepted.
  | Species H :    hydro orbital   2 p accepted.
  | Species O :   atomic orbital   1 s accepted.
  | Species O :    hydro orbital   3 s accepted.
  | Species O :   atomic orbital   2 s accepted.
  | Species O :   atomic orbital   2 p accepted.
  | Species O :    hydro orbital   2 p accepted.
  | Species O :    hydro orbital   3 d accepted.
 
  Basis size parameters after reduction:
  | Total number of radial functions:        9
  | Total number of basis functions :      768
 
  Per-task memory consumption for arrays in subroutine allocate_ext:
  |           2.268304MB.
  Testing on-site integration grid accuracy.
  |  Species  Function  <phi|h_atom|phi> (log., in eV)  <phi|h_atom|phi> (rad., in eV)
           1        1                 -6.3245358373                 -6.3232436907
           1        2                 14.1326137532                 14.1384481100
           1        3                 25.3627025200                 25.3628451197
           2        4               -510.4241781764               -510.4240769407
           2        5                 14.9072942213                 14.9072945271
           2        6                -21.2004736474                -21.2005650551
           2        7                 -9.1962086505                 -9.1963509834
           2        8                  8.1896755006                  8.1702200081
           2        9                 45.7920584937                 45.7920228520

  Preparing densities etc. for the partition functions (integrals / Hartree potential).

  Preparations completed.
  max(cpu_time)          :      0.087 s.
  Wall clock time (cpu1) :      0.075 s.
------------------------------------------------------------

  Initializing index lists of integration centers etc. from given atomic structure:
  Mapping all atomic coordinates to central unit cell.

  Initializing the k-points
  Using symmetry for reducing the k-points
  | k-points reduced from:        1 to        1
  | Number of k-points                             :         1
  | Consuming          0 KiB for k_phase_exx.
  The eigenvectors in the calculations are REAL.
  | Number of basis functions in the Hamiltonian integrals :      4351
  | Number of basis functions in a single unit cell        :       768
  | Number of centers in hartree potential         :      2512
  | Number of centers in hartree multipole         :      1727
  | Number of centers in electron density summation:      1336
  | Number of centers in basis integrals           :      1414
  | Number of centers in integrals                 :       666
  | Number of centers in hamiltonian               :      1337
  | Consuming          0 KiB for k_phase.
  | Number of super-cells (origin) [n_cells]                     :         125
  | Number of super-cells (after PM_index) [n_cells]             :          28
  | Number of super-cells in hamiltonian [n_cells_in_hamiltonian]:          28
  | Size of matrix packed + index [n_hamiltonian_matrix_size] :      675825
  | Size of matrix packed + index (no_symmetry):     1350881

------------------------------------------------------------
          Begin self-consistency loop: Initialization.

          Date     :  20230221, Time     :  121609.583
------------------------------------------------------------
  | Estimated reciprocal-space cutoff momentum G_max:         2.97244184 bohr^-1 .
  | Reciprocal lattice points for long-range Hartree potential:    3406
  Using simple linear distribution as default method for k-point parallelism.
  * Using 18 tasks for Scalapack Eigenvalue solver.
  Detailed listing of tasks and assigned k-points:
   Task     0 k-point     1 on adag037
   Task     1 k-point     1 on adag037
   Task     2 k-point     1 on adag037
   Task     3 k-point     1 on adag037
   Task     4 k-point     1 on adag037
   Task     5 k-point     1 on adag037
   Task     6 k-point     1 on adag037
   Task     7 k-point     1 on adag037
   Task     8 k-point     1 on adag037
   Task     9 k-point     1 on adag037
   Task    10 k-point     1 on adag037
   Task    11 k-point     1 on adag037
   Task    12 k-point     1 on adag037
   Task    13 k-point     1 on adag037
   Task    14 k-point     1 on adag037
   Task    15 k-point     1 on adag037
   Task    16 k-point     1 on adag037
   Task    17 k-point     1 on adag037
  K-point:     1 Tasks:    18 split into      6 X      3 BLACS grid
  Calculating block size based on n_basis =          768  max_nprow =            6  max_npcol =            3
  ScaLAPACK block size set to:           16
  Allocating        0.250 MB for ovlp
  Allocating        0.250 MB for ham
  Allocating        0.250 MB for eigenvec
  Required Scalapack workspace - INTEGER:            1  REAL:             1
  Partitioning the integration grid into batches with parallel hashing+maxmin method.
  | Number of batches:     3825
  | Maximal batch size:     200
  | Minimal batch size:      99
  | Average batch size:     133.220
  | Standard deviation of batch sizes:      25.372

  Integration load balanced across    18 MPI tasks.
  Work distribution over tasks is as follows:
  Task     0 has      28289 integration points.
  Task     1 has      28378 integration points.
  Task     2 has      28299 integration points.
  Task     3 has      28414 integration points.
  Task     4 has      28246 integration points.
  Task     5 has      28290 integration points.
  Task     6 has      28281 integration points.
  Task     7 has      28335 integration points.
  Task     8 has      28396 integration points.
  Task     9 has      28363 integration points.
  Task    10 has      28364 integration points.
  Task    11 has      28302 integration points.
  Task    12 has      28268 integration points.
  Task    13 has      28225 integration points.
  Task    14 has      28242 integration points.
  Task    15 has      28280 integration points.
  Task    16 has      28332 integration points.
  Task    17 has      28264 integration points.
  Initializing partition tables, free-atom densities, potentials, etc. across the integration grid (initialize_grid_storage).
  | initialize_grid_storage: Actual outermost partition radius vs. multipole_radius_free
  | (-- VB: in principle, multipole_radius_free should be larger, hence this output)
  | Species        1: Confinement radius =              4.999999999999999 AA, multipole_radius_free =              5.054417573612229 AA.
  | Species        1: outer_partition_radius set to              5.054417573612229 AA .
  | Species        2: Confinement radius =              4.999999999999999 AA, multipole_radius_free =              5.048384829883283 AA.
  | Species        2: outer_partition_radius set to              5.048384829883283 AA .
  | The sparse table of interatomic distances needs       4013.56 kbyte instead of     15995.17 kbyte of memory.
  | Net number of integration points:   509568
  | of which are non-zero points    :   411605
  | Numerical average free-atom electrostatic potential    :     -4.63630610 eV
  Renormalizing the initial density to the exact electron count on the 3D integration grid.
  | Initial density: Formal number of electrons (from input files) :     320.0000000000
  | Integrated number of electrons on 3D grid     :     319.9993726271
  | Charge integration error                      :      -0.0006273729
  | Normalization factor for density and gradient :       1.0000019605
  Renormalizing the free-atom superposition density to the exact electron count on the 3D integration grid.
  | Formal number of electrons (from input files) :     320.0000000000
  | Integrated number of electrons on 3D grid     :     319.9993726271
  | Charge integration error                      :      -0.0006273729
  | Normalization factor for density and gradient :       1.0000019605
  Obtaining max. number of non-zero basis functions in each batch (get_n_compute_maxes).
  | Maximal number of non-zero basis functions:      391 in task     0
  | Maximal number of non-zero basis functions:      396 in task     1
  | Maximal number of non-zero basis functions:      386 in task     2
  | Maximal number of non-zero basis functions:      392 in task     3
  | Maximal number of non-zero basis functions:      392 in task     4
  | Maximal number of non-zero basis functions:      382 in task     5
  | Maximal number of non-zero basis functions:      389 in task     6
  | Maximal number of non-zero basis functions:      391 in task     7
  | Maximal number of non-zero basis functions:      383 in task     8
  | Maximal number of non-zero basis functions:      392 in task     9
  | Maximal number of non-zero basis functions:      381 in task    10
  | Maximal number of non-zero basis functions:      388 in task    11
  | Maximal number of non-zero basis functions:      390 in task    12
  | Maximal number of non-zero basis functions:      389 in task    13
  | Maximal number of non-zero basis functions:      397 in task    14
  | Maximal number of non-zero basis functions:      384 in task    15
  | Maximal number of non-zero basis functions:      394 in task    16
  | Maximal number of non-zero basis functions:      381 in task    17
  Integrating Hamiltonian matrix: batch-based integration.
  GPU acceleration will be used when integrating the Hamiltonian matrix.
  Reporting GPU memory usage by myid 0.  Note that it is likely not the only MPI task binding to its GPU!
  Allocating        1.223 MB on GPU for hamiltonian_shell
  Allocating        0.626 MB on GPU for wave
  Allocating        0.002 MB on GPU for partition
  Allocating        0.626 MB on GPU for h_times_psi
  Time summed over all CPUs for integration: real work       10.776 s, elapsed       11.154 s
  Deallocating memory used on GPU for Hamiltonian integration.
  Integrating overlap matrix.
  Time summed over all CPUs for integration: real work       10.575 s, elapsed       10.919 s
  Deallocating overlap matrix.

  Updating Kohn-Sham eigenvalues and eigenvectors using ELSI and the ELPA eigensolver.
  Singularity check in k-point 1 (analysis for other k-points may follow below):
  Overlap matrix is not singular
  | Lowest and highest eigenvalues :  0.2257E-02,  0.6930E+01
  Finished singularity check of overlap matrix
  | Time :     0.588 s
  Starting ELPA eigensolver (GPU)
  Finished Cholesky decomposition
  | Time :     0.015 s
  Finished transformation to standard eigenproblem
  | Time :     0.082 s
  Finished solving standard eigenproblem
  | Time :     1.037 s
  Finished back-transformation of eigenvectors
  | Time :     0.109 s

  Obtaining occupation numbers and electronic chemical potential using ELSI.
  | Note that, for insulating systems, the printed 'chemical potential' value is not uniquely defined.
  | It can be anywhere in the energy gap, as long as it correctly separates occupied and unoccupied states.
  | In systems with a gap, the physically relevant chemical potential is the VBM or HOMO.

  | Chemical potential (Fermi level):    -5.32707230 eV
  Writing Kohn-Sham eigenvalues.

  State    Occupation    Eigenvalue [Ha]    Eigenvalue [eV]
      1       2.00000         -18.911484         -514.60767
      2       2.00000         -18.910154         -514.57146
      3       2.00000         -18.906886         -514.48255
      4       2.00000         -18.902570         -514.36509
      5       2.00000         -18.901014         -514.32277
      6       2.00000         -18.899595         -514.28416
      7       2.00000         -18.898839         -514.26357
      8       2.00000         -18.888845         -513.99163
      9       2.00000         -18.888706         -513.98784
     10       2.00000         -18.887948         -513.96721
     11       2.00000         -18.886849         -513.93731
     12       2.00000         -18.885621         -513.90391
     13       2.00000         -18.885037         -513.88800
     14       2.00000         -18.881579         -513.79391
     15       2.00000         -18.879174         -513.72848
     16       2.00000         -18.878128         -513.70000
     17       2.00000         -18.877615         -513.68604
     18       2.00000         -18.876198         -513.64747
     19       2.00000         -18.875692         -513.63372
     20       2.00000         -18.875425         -513.62644
     21       2.00000         -18.874427         -513.59928
     22       2.00000         -18.872879         -513.55717
     23       2.00000         -18.868417         -513.43574
     24       2.00000         -18.863640         -513.30576
     25       2.00000         -18.858977         -513.17887
     26       2.00000         -18.858465         -513.16493
     27       2.00000         -18.855936         -513.09613
     28       2.00000         -18.851714         -512.98123
     29       2.00000         -18.850090         -512.93703
     30       2.00000         -18.849504         -512.92110
     31       2.00000         -18.845885         -512.82262
     32       2.00000         -18.833337         -512.48119
     33       2.00000          -1.168673          -31.80120
     34       2.00000          -1.162427          -31.63124
     35       2.00000          -1.159363          -31.54786
     36       2.00000          -1.154735          -31.42195
     37       2.00000          -1.146535          -31.19881
     38       2.00000          -1.141199          -31.05360
     39       2.00000          -1.137032          -30.94021
     40       2.00000          -1.135030          -30.88575
     41       2.00000          -1.132311          -30.81174
     42       2.00000          -1.128463          -30.70703
     43       2.00000          -1.125875          -30.63663
     44       2.00000          -1.121689          -30.52272
     45       2.00000          -1.120472          -30.48960
     46       2.00000          -1.118678          -30.44078
     47       2.00000          -1.116141          -30.37174
     48       2.00000          -1.115488          -30.35396
     49       2.00000          -1.115104          -30.34352
     50       2.00000          -1.108927          -30.17544
     51       2.00000          -1.104638          -30.05873
     52       2.00000          -1.103809          -30.03617
     53       2.00000          -1.103365          -30.02408
     54       2.00000          -1.102308          -29.99532
     55       2.00000          -1.096927          -29.84891
     56       2.00000          -1.093269          -29.74936
     57       2.00000          -1.086043          -29.55273
     58       2.00000          -1.075468          -29.26497
     59       2.00000          -1.072165          -29.17510
     60       2.00000          -1.068065          -29.06352
     61       2.00000          -1.064925          -28.97809
     62       2.00000          -1.054720          -28.70038
     63       2.00000          -1.053945          -28.67929
     64       2.00000          -1.032069          -28.08404
     65       2.00000          -0.726738          -19.77554
     66       2.00000          -0.710248          -19.32684
     67       2.00000          -0.707657          -19.25632
     68       2.00000          -0.706224          -19.21733
     69       2.00000          -0.690307          -18.78420
     70       2.00000          -0.684465          -18.62524
     71       2.00000          -0.680371          -18.51382
     72       2.00000          -0.677331          -18.43112
     73       2.00000          -0.671684          -18.27746
     74       2.00000          -0.666437          -18.13467
     75       2.00000          -0.666168          -18.12735
     76       2.00000          -0.663326          -18.05003
     77       2.00000          -0.660442          -17.97154
     78       2.00000          -0.660367          -17.96949
     79       2.00000          -0.654942          -17.82188
     80       2.00000          -0.653898          -17.79348
     81       2.00000          -0.652044          -17.74302
     82       2.00000          -0.649223          -17.66625
     83       2.00000          -0.644424          -17.53566
     84       2.00000          -0.640749          -17.43568
     85       2.00000          -0.634189          -17.25717
     86       2.00000          -0.632030          -17.19841
     87       2.00000          -0.628822          -17.11113
     88       2.00000          -0.627641          -17.07899
     89       2.00000          -0.623814          -16.97484
     90       2.00000          -0.620289          -16.87893
     91       2.00000          -0.618794          -16.83824
     92       2.00000          -0.607687          -16.53599
     93       2.00000          -0.602642          -16.39872
     94       2.00000          -0.599307          -16.30798
     95       2.00000          -0.591588          -16.09794
     96       2.00000          -0.588788          -16.02175
     97       2.00000          -0.568233          -15.46241
     98       2.00000          -0.567134          -15.43251
     99       2.00000          -0.566500          -15.41524
    100       2.00000          -0.562035          -15.29375
    101       2.00000          -0.560055          -15.23987
    102       2.00000          -0.555885          -15.12641
    103       2.00000          -0.554460          -15.08764
    104       2.00000          -0.553248          -15.05463
    105       2.00000          -0.551627          -15.01053
    106       2.00000          -0.543848          -14.79886
    107       2.00000          -0.542112          -14.75163
    108       2.00000          -0.538091          -14.64220
    109       2.00000          -0.536907          -14.60997
    110       2.00000          -0.536059          -14.58691
    111       2.00000          -0.533481          -14.51675
    112       2.00000          -0.532535          -14.49102
    113       2.00000          -0.530010          -14.42230
    114       2.00000          -0.528489          -14.38092
    115       2.00000          -0.525030          -14.28680
    116       2.00000          -0.523006          -14.23172
    117       2.00000          -0.521490          -14.19047
    118       2.00000          -0.520110          -14.15292
    119       2.00000          -0.517198          -14.07368
    120       2.00000          -0.516821          -14.06342
    121       2.00000          -0.514710          -14.00596
    122       2.00000          -0.512261          -13.93934
    123       2.00000          -0.509251          -13.85743
    124       2.00000          -0.504942          -13.74016
    125       2.00000          -0.496487          -13.51010
    126       2.00000          -0.492868          -13.41163
    127       2.00000          -0.490840          -13.35643
    128       2.00000          -0.489647          -13.32398
    129       2.00000          -0.483708          -13.16237
    130       2.00000          -0.483389          -13.15370
    131       2.00000          -0.481333          -13.09775
    132       2.00000          -0.476151          -12.95673
    133       2.00000          -0.475458          -12.93787
    134       2.00000          -0.474562          -12.91350
    135       2.00000          -0.473550          -12.88595
    136       2.00000          -0.471881          -12.84053
    137       2.00000          -0.468738          -12.75500
    138       2.00000          -0.465649          -12.67095
    139       2.00000          -0.465005          -12.65343
    140       2.00000          -0.463993          -12.62590
    141       2.00000          -0.462608          -12.58822
    142       2.00000          -0.462201          -12.57713
    143       2.00000          -0.461420          -12.55588
    144       2.00000          -0.460731          -12.53712
    145       2.00000          -0.460467          -12.52993
    146       2.00000          -0.457459          -12.44810
    147       2.00000          -0.455798          -12.40289
    148       2.00000          -0.455195          -12.38648
    149       2.00000          -0.455034          -12.38211
    150       2.00000          -0.454282          -12.36164
    151       2.00000          -0.447559          -12.17869
    152       2.00000          -0.447103          -12.16628
    153       2.00000          -0.446643          -12.15377
    154       2.00000          -0.443247          -12.06136
    155       2.00000          -0.443123          -12.05800
    156       2.00000          -0.440478          -11.98602
    157       2.00000          -0.436181          -11.86910
    158       2.00000          -0.433364          -11.79244
    159       2.00000          -0.431558          -11.74328
    160       2.00000          -0.427703          -11.63839
    161       0.00000          -0.168964           -4.59775
    162       0.00000          -0.125175           -3.40619
    163       0.00000          -0.116855           -3.17978
    164       0.00000          -0.114996           -3.12919
    165       0.00000          -0.109812           -2.98813
    166       0.00000          -0.100705           -2.74031
    167       0.00000          -0.093750           -2.55106
    168       0.00000          -0.078192           -2.12770
    169       0.00000          -0.071901           -1.95652
    170       0.00000          -0.069391           -1.88822
    171       0.00000          -0.066635           -1.81323
    172       0.00000          -0.059929           -1.63076
    173       0.00000          -0.058164           -1.58272
    174       0.00000          -0.053335           -1.45131
    175       0.00000          -0.050133           -1.36420
    176       0.00000          -0.048566           -1.32155
    177       0.00000          -0.041276           -1.12318
    178       0.00000          -0.032578           -0.88650
    179       0.00000          -0.027462           -0.74729
    180       0.00000          -0.025937           -0.70579
    181       0.00000          -0.019751           -0.53744
    182       0.00000          -0.012886           -0.35065
    183       0.00000          -0.008838           -0.24050
    184       0.00000          -0.006298           -0.17137
    185       0.00000           0.001203            0.03273
    186       0.00000           0.006949            0.18910
    187       0.00000           0.012036            0.32752
    188       0.00000           0.014107            0.38386
    189       0.00000           0.020828            0.56676
    190       0.00000           0.022789            0.62013
    191       0.00000           0.024625            0.67008
    192       0.00000           0.029054            0.79061
    193       0.00000           0.034183            0.93018
    194       0.00000           0.039075            1.06328
    195       0.00000           0.040558            1.10364
    196       0.00000           0.042046            1.14412
    197       0.00000           0.048461            1.31868
    198       0.00000           0.050047            1.36185
    199       0.00000           0.051887            1.41192
    200       0.00000           0.057877            1.57492
    201       0.00000           0.058210            1.58397
    202       0.00000           0.060622            1.64961
    203       0.00000           0.063223            1.72039
    204       0.00000           0.064651            1.75924
    205       0.00000           0.065983            1.79548
    206       0.00000           0.067256            1.83014
    207       0.00000           0.070693            1.92366
    208       0.00000           0.071435            1.94384
    209       0.00000           0.075842            2.06376
    210       0.00000           0.078361            2.13230
    211       0.00000           0.081245            2.21078
    212       0.00000           0.087737            2.38745
    213       0.00000           0.089353            2.43142
    214       0.00000           0.093023            2.53128
    215       0.00000           0.095141            2.58891
    216       0.00000           0.098902            2.69127
    217       0.00000           0.099166            2.69844
    218       0.00000           0.106860            2.90780
    219       0.00000           0.108097            2.94147
    220       0.00000           0.114098            3.10478
    221       0.00000           0.116513            3.17049
    222       0.00000           0.122258            3.32681
    223       0.00000           0.130140            3.54129
    224       0.00000           0.134329            3.65527
    225       0.00000           0.145894            3.96998
    226       0.00000           0.147107            4.00299
    227       0.00000           0.150202            4.08722
    228       0.00000           0.158613            4.31607
    229       0.00000           0.167735            4.56430
    230       0.00000           0.171807            4.67510
    231       0.00000           0.177896            4.84079
    232       0.00000           0.190827            5.19267
    233       0.00000           0.192591            5.24067
    234       0.00000           0.201199            5.47490
    235       0.00000           0.202893            5.52099
    236       0.00000           0.210934            5.73979
    237       0.00000           0.215598            5.86671
    238       0.00000           0.223815            6.09032
    239       0.00000           0.227010            6.17724
    240       0.00000           0.232252            6.31989
    241       0.00000           0.232741            6.33321
    242       0.00000           0.238445            6.48841
    243       0.00000           0.240310            6.53917
    244       0.00000           0.245822            6.68915
    245       0.00000           0.256011            6.96642
    246       0.00000           0.257181            6.99824
    247       0.00000           0.263850            7.17971
    248       0.00000           0.266431            7.24995
    249       0.00000           0.272566            7.41690
    250       0.00000           0.284710            7.74734
    251       0.00000           0.287656            7.82752
    252       0.00000           0.298641            8.12645
    253       0.00000           0.307268            8.36119
    254       0.00000           0.310142            8.43939
    255       0.00000           0.319232            8.68674
    256       0.00000           0.326778            8.89207
    257       0.00000           0.328086            8.92769
    258       0.00000           0.335002            9.11586
    259       0.00000           0.337049            9.17157
    260       0.00000           0.341267            9.28634
    261       0.00000           0.344892            9.38498
    262       0.00000           0.346342            9.42446
[...]
  |    H      0     4.527807 A      4.527807 A        1.268855E-16 a.u.
  |    H      0     4.527807 A      4.583499 A       -4.900954E-17 a.u.
  |    H      0     4.527807 A      4.583499 A        4.713786E-16 a.u.
  |    H      2     3.678162 A  2.180220E+05 A            0.556529 a.u.
  |    H      1     3.958095 A  1.721251E+08 A            0.841931 a.u.
  |    H      0     4.527807 A  3.866455E+16 A            0.581436 a.u.
  |    O      0     2.043000 A      2.043000 A       -1.436841E-16 a.u.
  |    O      3     3.498446 A      3.498446 A        3.043453E-17 a.u.
  |    O      3     3.498446 A      3.498446 A        1.541443E-16 a.u.
  |    O      0     3.905335 A      3.905335 A        2.173090E-16 a.u.
  |    O      0     3.905335 A      3.905335 A        7.213445E-17 a.u.
  |    O      0     4.101052 A      4.101052 A        2.361718E-16 a.u.
  |    O      1     4.101052 A      4.101052 A        3.235185E-17 a.u.
  |    O      0     4.359549 A      4.359549 A       -5.329475E-17 a.u.
  |    O      1     4.413171 A      4.413171 A        3.261883E-17 a.u.
  |    O      1     4.522403 A      4.522403 A        6.417997E-16 a.u.
  |    O      1     4.522403 A      4.522403 A        4.224783E-16 a.u.
  |    O      2     4.522403 A      4.522403 A       -4.387647E-16 a.u.
  |    O      0     4.522403 A      4.578029 A        2.602039E-16 a.u.
  |    O      0     4.578029 A      4.578029 A        1.226235E-16 a.u.
  |    O      1     4.578029 A      4.578029 A       -6.107316E-16 a.u.
  |    O      1     4.578029 A      4.578029 A       -2.224438E-16 a.u.
  |    O      2     4.578029 A      4.578029 A       -7.020279E-16 a.u.
  |    O      2     4.522403 A      4.578029 A        1.323470E-15 a.u.
  |    O      2     4.578029 A      4.578029 A        7.923696E-16 a.u.
  |    O      2     4.522403 A      4.578029 A       -9.951815E-16 a.u.
  |    O      0     4.578029 A      4.634338 A       -8.813582E-18 a.u.
  |    O      1     4.578029 A      4.634338 A       -3.325386E-17 a.u.
  |    O      1     4.634338 A      4.634338 A        9.588032E-16 a.u.
  |    O      2     4.578029 A      4.634338 A        1.064715E-17 a.u.
  |    O      2     4.578029 A      4.634338 A       -3.770343E-15 a.u.
  |    O      4     3.251020 A  1.511584E+03 A            1.513372 a.u.
  |    O      3     3.541477 A  1.434166E+04 A            4.293220 a.u.
  |    O      2     4.634338 A  5.584435E+05 A            9.352428 a.u.
  |    O      1     4.634338 A  2.821283E+08 A            2.261940 a.u.
  |    O      0     4.578029 A  4.264100E+16 A            0.641234 a.u.

  | Shrink_full_auxil_basis : there are       38  radial auxiliary wave functions
                            accepted and       5 rejected.
  | Shrink_full_auxil_basis : there are totally                4544 partial auxiliary wave functions.
 
  | Maximal number of product basis functions per thread :   256   256
 
  | Minimal total memory requirement for three-center overlap :      10.450 Gbs
  | Number of local auxiliary basis functions on task:      0   256
  | Number of local auxiliary basis functions on task:      1   256
  | Number of local auxiliary basis functions on task:      2   256
  | Number of local auxiliary basis functions on task:      3   256
  | Number of local auxiliary basis functions on task:      4   256
  | Number of local auxiliary basis functions on task:      5   256
  | Number of local auxiliary basis functions on task:      6   256
  | Number of local auxiliary basis functions on task:      7   256
  | Number of local auxiliary basis functions on task:      8   256
  | Number of local auxiliary basis functions on task:      9   256
  | Number of local auxiliary basis functions on task:     10   256
  | Number of local auxiliary basis functions on task:     11   256
  | Number of local auxiliary basis functions on task:     12   256
  | Number of local auxiliary basis functions on task:     13   256
  | Number of local auxiliary basis functions on task:     14   240
  | Number of local auxiliary basis functions on task:     15   240
  | Number of local auxiliary basis functions on task:     16   240
  | Number of local auxiliary basis functions on task:     17   240
  | 2D aux task distribution:      3 X      6
  | 2D block size (nb_aux_2d):     64
 
  Basis pair condensation :    295296  -->     203740
 
 --------------------------------------------
  Constructing auxiliary basis (full product) ...
 
  Product basis:
  | charge radius: extent of product basis function
  | field radius: extent of its Coulomb potential
  | Species   l  charge radius    field radius  multipol momen
  |    H      1     3.910002 A      3.910002 A       -2.487223E-16 a.u.
  |    H      1     3.958095 A      3.958095 A       -2.441841E-16 a.u.
  |    H      0     4.527807 A      4.527807 A        1.268855E-16 a.u.
  |    H      0     4.527807 A      4.583499 A       -4.900954E-17 a.u.
  |    H      0     4.527807 A      4.583499 A        4.713786E-16 a.u.
  |    H      2     3.678162 A  2.180220E+05 A            0.556529 a.u.
  |    H      1     3.958095 A  1.721251E+08 A            0.841931 a.u.
  |    H      0     4.527807 A  3.866455E+16 A            0.581436 a.u.
  |    O      0     2.043000 A      2.043000 A       -1.436841E-16 a.u.
  |    O      3     3.498446 A      3.498446 A        3.043453E-17 a.u.
  |    O      3     3.498446 A      3.498446 A        1.541443E-16 a.u.
  |    O      0     3.905335 A      3.905335 A        2.173090E-16 a.u.
  |    O      0     3.905335 A      3.905335 A        7.213445E-17 a.u.
  |    O      0     4.101052 A      4.101052 A        2.361718E-16 a.u.
  |    O      1     4.101052 A      4.101052 A        3.235185E-17 a.u.
  |    O      0     4.359549 A      4.359549 A       -5.329475E-17 a.u.
  |    O      1     4.413171 A      4.413171 A        3.261883E-17 a.u.
  |    O      1     4.522403 A      4.522403 A        6.417997E-16 a.u.
  |    O      1     4.522403 A      4.522403 A        4.224783E-16 a.u.
  |    O      2     4.522403 A      4.522403 A       -4.387647E-16 a.u.
  |    O      0     4.522403 A      4.578029 A        2.602039E-16 a.u.
  |    O      0     4.578029 A      4.578029 A        1.226235E-16 a.u.
  |    O      1     4.578029 A      4.578029 A       -6.107316E-16 a.u.
  |    O      1     4.578029 A      4.578029 A       -2.224438E-16 a.u.
  |    O      2     4.578029 A      4.578029 A       -7.020279E-16 a.u.
  |    O      2     4.522403 A      4.578029 A        1.323470E-15 a.u.
  |    O      2     4.578029 A      4.578029 A        7.923696E-16 a.u.
  |    O      2     4.522403 A      4.578029 A       -9.951815E-16 a.u.
  |    O      0     4.578029 A      4.634338 A       -8.813582E-18 a.u.
  |    O      1     4.578029 A      4.634338 A       -3.325386E-17 a.u.
  |    O      1     4.634338 A      4.634338 A        9.588032E-16 a.u.
  |    O      2     4.578029 A      4.634338 A        1.064715E-17 a.u.
  |    O      2     4.578029 A      4.634338 A       -3.770343E-15 a.u.
  |    O      4     3.251020 A  1.511584E+03 A            1.513372 a.u.
  |    O      3     3.541477 A  1.434166E+04 A            4.293220 a.u.
  |    O      2     4.634338 A  5.584435E+05 A            9.352428 a.u.
  |    O      1     4.634338 A  2.821283E+08 A            2.261940 a.u.
  |    O      0     4.578029 A  4.264100E+16 A            0.641234 a.u.

  | Shrink_full_auxil_basis : there are       38  radial auxiliary wave functions
                            accepted and       5 rejected.
  | Shrink_full_auxil_basis : there are totally                4544 partial auxiliary wave functions.
 
  | Maximal number of product basis functions per thread :   256   256
 
  | Minimal total memory requirement for three-center overlap :      10.450 Gbs
  | Number of local auxiliary basis functions on task:      0   256
  | Number of local auxiliary basis functions on task:      1   256
  | Number of local auxiliary basis functions on task:      2   256
  | Number of local auxiliary basis functions on task:      3   256
  | Number of local auxiliary basis functions on task:      4   256
  | Number of local auxiliary basis functions on task:      5   256
  | Number of local auxiliary basis functions on task:      6   256
  | Number of local auxiliary basis functions on task:      7   256
  | Number of local auxiliary basis functions on task:      8   256
  | Number of local auxiliary basis functions on task:      9   256
  | Number of local auxiliary basis functions on task:     10   256
  | Number of local auxiliary basis functions on task:     11   256
  | Number of local auxiliary basis functions on task:     12   256
  | Number of local auxiliary basis functions on task:     13   256
  | Number of local auxiliary basis functions on task:     14   240
  | Number of local auxiliary basis functions on task:     15   240
  | Number of local auxiliary basis functions on task:     16   240
  | Number of local auxiliary basis functions on task:     17   240
  | 2D aux task distribution:      3 X      6
  | 2D block size (nb_aux_2d):     64
 
  Basis pair condensation :    295296  -->     203740
dP_dE (Bohr^3) at every cycle:--->
 (329.492110033939,0.000000000000000E+000) (6.48960222174074,0.000000000000000E+000) (-1.21153443113627,0.000000000000000E+000)
 (6.49077986807662,0.000000000000000E+000) (318.716020713959,0.000000000000000E+000) (-4.53529166258717,0.000000000000000E+000)
 (-1.19718052864812,0.000000000000000E+000) (-4.53352867478249,0.000000000000000E+000) (333.012826159125,0.000000000000000E+000)
DFPT polarizability (Bohr^3)        xx        yy        zz        xy        xz        yz
  | Polarizability:--->                       329.492110034                  318.716020714                  333.012826159                    6.489602222                   -1.211534431                   -4.535291663

DFPT for dielectric_constant:--->  # PARSE DFPT_dielectric_tensor
               1.545861885239803             0.010751172472236            -0.002007120803423
               0.010753123451423             1.528009389678951            -0.007513511800927
              -0.001983341028327            -0.007510591100195             1.551694573437680

                                               :  max(cpu_time)    wall_clock(cpu1)
  | Time for  dielectric calculation            :        0.000 s           0.000 s
===========================================================================

------------------------------------------------------------------------------
  Final output of selected total energy values:

  The following output summarizes some interesting total energy values
  at the end of a run (AFTER all relaxation, molecular dynamics, etc.).

  | Total energy of the DFT / Hartree-Fock s.c.f. calculation      :         -66105.960447951 eV
  | Final zero-broadening corrected energy (caution - metals only) :         -66105.960447951 eV
  | For reference only, the value of 1 Hartree used in FHI-aims is :             27.211384500 eV
  | For reference only, the overall average (free atom contribution
  | + realspace contribution) of the electrostatic potential after
  | s.c.f. convergence is                                          :             -4.256454872 eV

  Before relying on these values, please be sure to understand exactly which
  total energy value is referred to by a given number. Different objects may
  all carry the same name 'total energy'. Definitions:

  Total energy of the DFT / Hartree-Fock s.c.f. calculation:
  | Note that this energy does not include ANY quantities calculated after the
  | s.c.f. cycle, in particular not ANY RPA, MP2, etc. many-body perturbation terms.

  Final zero-broadening corrected energy:
  | For metallic systems only, a broadening of the occupation numbers at the Fermi
  | level can be extrapolated back to zero broadening by an electron-gas inspired
  | formula. For all systems that are not real metals, this value can be
  | meaningless and should be avoided.

------------------------------------------------------------------------------
  Methods described in the following list of references were used in this FHI-aims run.
  If you publish the results, please make sure to cite these reference if they apply.
  FHI-aims is an academic code, and for our developers (often, Ph.D. students
  and postdocs), scientific credit in the community is essential.
  Thank you for helping us!

  For any use of FHI-aims, please cite:

    Volker Blum, Ralf Gehrke, Felix Hanke, Paula Havu, Ville Havu,
    Xinguo Ren, Karsten Reuter, and Matthias Scheffler
    'Ab initio molecular simulations with numeric atom-centered orbitals'
    Computer Physics Communications 180, 2175-2196 (2009)
    http://doi.org/10.1016/j.cpc.2009.06.022


  For Hartree-Fock, hybrid functionals, or many-body perturbation theory used in your run, please cite:

    Xinguo Ren, Patrick Rinke, Volker Blum, Juergen Wieferink, Alex Tkatchenko,
    Andrea Sanfilippo, Karsten Reuter, and Matthias Scheffler,
    'Resolution-of-identity approach to Hartree-Fock, hybrid density functionals,
    RPA, MP2, and GW with numeric atom-centered orbital basis functions'
    New Journal of Physics 14, 053020 (2012).
    http://doi.org/10.1088/1367-2630/14/5/053020


  The provided symmetry information was generated with SPGlib:

    Atsushi Togo, Yusuke Seto, Dimitar Pashov
    SPGlib 1.7.3 obtained from http://spglib.sourceforge.net
    Copyright (C) 2008 Atsushi Togo


  The DFPT (perturbation by an electric field) part of the code was used.
  Here is the corresponding reference:

    Honghui Shang, Nathaniel Raimbault, Mariana Rossi,
    Christian Carbogno, Patrick Rinke and Matthias Scheffler,
    'All-Electron, Real-Space Perturbation Theory for Homogeneous
    Electric Fields: Theory, Implementation, and Application within dft'
    New Journal of Physics, 20(7):073040, 2018


  The ELSI infrastructure was used in your run to solve the Kohn-Sham electronic structure.
  Please check out http://elsi-interchange.org to learn more.
  If scalability is important for your project, please acknowledge ELSI by citing:

    V. W-z. Yu, F. Corsetti, A. Garcia, W. P. Huhn, M. Jacquelin, W. Jia,
    B. Lange, L. Lin, J. Lu, W. Mi, A. Seifitokaldani, A. Vazquez-Mayagoitia,
    C. Yang, H. Yang, and V. Blum
    'ELSI: A unified software interface for Kohn-Sham electronic structure solvers'
    Computer Physics Communications 222, 267-285 (2018).
    http://doi.org/10.1016/j.cpc.2017.09.007


  For the real-space grid partitioning and parallelization used in this calculation, please cite:

    Ville Havu, Volker Blum, Paula Havu, and Matthias Scheffler,
    'Efficient O(N) integration for all-electron electronic structure calculation'
    'using numerically tabulated basis functions'
    Journal of Computational Physics 228, 8367-8379 (2009).
    http://doi.org/10.1016/j.jcp.2009.08.008


  The high-level electronic structure method used in your calculation
  employed our efficient localized resolution of identity for the Coulomb operator.
  Some calculations, especially large-scale hybrid density functional theory,
  are only possible thanks to this development. For this feature, please cite:

    Arvid Ihrig, Juergen Wieferink, Igor Ying Zhang, Matti Ropo, Xinguo Ren,
    Patrick Rinke, Matthias Scheffler, and Volker Blum,
    'Accurate localized resolution of identity approach for linear-scaling
    hybrid density functionals and for many-body perturbation theory'
    New Journal of Physics 117, 093020 (2015).
    http://doi.org/10.1088/1367-2630/17/9/093020

  Of course, there are many other important community references, e.g., those cited in the
  above references. Our list is limited to references that describe implementations in the
  FHI-aims code. The reason is purely practical (length of this list) - please credit others as well.

------------------------------------------------------------
          Leaving FHI-aims.
          Date     :  20230221, Time     :  122223.404

          Computational steps:
          | Number of self-consistency cycles          :           45
          | Number of SCF (re)initializations          :            1
          | Number of coupled perturbed self-consistency cycles          :            0
          | Number of CPSCF (re)initializations          :            0

          Detailed time accounting                     :  max(cpu_time)    wall_clock(cpu1)
          | Total time                                  :      374.302 s         413.668 s
          | GPU initialization                          :        4.493 s          35.416 s
          | Preparation time                            :        0.087 s           0.075 s
          | Boundary condition initalization            :        1.310 s           1.311 s
          | Grid partitioning                           :        0.467 s           0.471 s
          | Preloading free-atom quantities on grid     :        1.892 s           1.905 s
          | Free-atom superposition energy              :        0.284 s           0.283 s
          | Total time for integrations                 :       11.346 s          11.609 s
          | Product basis setup: Total time             :        0.000 s           0.000 s
          | Product basis: | 2-center integrations     :(       0.000 s)  (       0.000 s)
          | Product basis: | LVL 3-center & coefficient:(       0.000 s)  (       0.000 s)
          | Total time for solution of K.-S. equations  :        3.004 s           7.497 s
          | Total time for density update               :        8.174 s           8.779 s
          | Total time for mixing & preconditioning     :        8.167 s           8.172 s
          | Total time for Hartree multipole update     :        0.113 s           0.116 s
          | Total time for Hartree multipole sum        :       36.871 s          36.886 s
          | Total time for total energy evaluation      :        0.007 s           0.008 s
          | Total time for DFPT                         :      296.789 s         296.903 s
          | Total time first_order_DM                   :        0.262 s           0.259 s
          | Total time first_order_density              :       59.535 s          59.546 s
          | Total time first_order_potential            :       50.809 s          50.828 s
          | Total time first_order_H                    :      115.027 s         115.069 s
          | Total time solving of Sternheimer equations :        0.183 s           0.180 s
          | Total time for dielectric constant          :        0.000 s           0.000 s
          | Total time momentum matrix                  :        0.000 s           0.000 s

          GPU acceleration has been used for charge density update.
          GPU acceleration has been used for real-space Hamiltonian integration.
          Due to GPU usage, wall_clock(cpu1) will give a more reliable estimate for timings.

          Partial memory accounting:
          | Residual value for overall tracked memory usage across tasks:     0.000000 MB (should be 0.000000 MB)
          | Peak values for overall tracked memory usage:
          |   Minimum:      101.297 MB (on task  0 after allocating DFPT_pulay_mixing::pulay_mix::alphas)
          |   Maximum:      101.297 MB (on task  0 after allocating DFPT_pulay_mixing::pulay_mix::alphas)
          |   Average:      101.297 MB
          | Largest tracked array allocation:
          |   Minimum:       36.093 MB (DFPT_pulay_mixing::initialize_pulay_mixing::X_in_diffs on task  0)
          |   Maximum:       36.093 MB (DFPT_pulay_mixing::initialize_pulay_mixing::X_in_diffs on task  0)
          |   Average:       36.093 MB
          Note:  These values currently only include a subset of arrays which are explicitly tracked.
          The "true" memory usage will be greater.

          Have a nice day.
------------------------------------------------------------
