------------------------------------------------------------
          Invoking FHI-aims ...

          When using FHI-aims, please cite the following reference:

            Volker Blum, Ralf Gehrke, Felix Hanke, Paula Havu,
            Ville Havu, Xinguo Ren, Karsten Reuter, and Matthias Scheffler,
            'Ab Initio Molecular Simulations with Numeric Atom-Centered Orbitals',
            Computer Physics Communications 180, 2175-2196 (2009)

          In addition, many other developments in FHI-aims are likely important for
          your particular application. A partial list of references is given at the end of
          this file. Thank you for giving credit to the authors of these developments.

          For any questions about FHI-aims, please visit our slack channel at

            https://fhi-aims.slack.com

          and our main development and support site at

            https://aims-git.rz-berlin.mpg.de .

          The latter site, in particular, has a wiki to collect information, as well
          as an issue tracker to log discussions, suggest improvements, and report issues
          or bugs. https://aims-git.rz-berlin.mpg.de is also the main development site
          of the project and all new and updated code versions can be obtained there.
          Please send an email to aims-coordinators@fhi-berlin.mpg.de and we will add
          you to these sites. They are for you and everyone is welcome there.

------------------------------------------------------------



  Date     :  20230221, Time     :  162819.051
  Time zero on CPU 1             :   0.418962000000000E+00  s.
  Internal wall clock time zero  :           446228899.051  s.

  FHI-aims created a unique identifier for this run for later identification
  aims_uuid : 74B22061-9F90-4E20-A14D-B82704A44B1E

  Build configuration of the current instance of FHI-aims
  -------------------------------------------------------
  FHI-aims version      : 221103
  Commit number         : 42523251a
  CMake host system     : Linux-5.3.18-150300.59.68-default
  CMake version         : 3.17.0
  Fortran compiler      : /mpcdf/soft/SLE_15/packages/x86_64/intel_oneapi/2021.3/mpi/2021.3.0/bin/mpiifort (Intel) version 20.2.3.20210609
  Fortran compiler flags: -O3 -ip -fp-model precise
  C compiler            : /mpcdf/soft/SLE_15/packages/x86_64/intel/2021.3.0/bin/icc (Intel) version 20.2.3.20210609
  C compiler flags      : -O3 -ip -fp-model precise -std=gnu99
  CUDA compiler         : /mpcdf/soft/SLE_15/packages/x86_64/cuda/11.6.2/bin/nvcc
  CUDA compiler flags   : -O3 -DAdd_ -lcublas
  HIP compiler          :
  HIP compiler flags    :
  HIP GPU arch          :
  ELPA2 kernel          : AVX512
  Using MPI
  Using ScaLAPACK
  Using LibXC
  Using CUDA
  Using i-PI
  Using RLSY
  Linking against: /mpcdf/soft/SLE_15/packages/x86_64/cuda/11.6.2/lib64/libcublas.so
                   /mpcdf/soft/SLE_15/packages/x86_64/cuda/11.6.2/lib64/libcudart.so
                   /mpcdf/soft/SLE_15/packages/x86_64/intel_oneapi/2021.3/mkl/latest/lib/intel64/libmkl_intel_lp64.so
                   /mpcdf/soft/SLE_15/packages/x86_64/intel_oneapi/2021.3/mkl/latest/lib/intel64/libmkl_sequential.so
                   /mpcdf/soft/SLE_15/packages/x86_64/intel_oneapi/2021.3/mkl/latest/lib/intel64/libmkl_core.so
                   /mpcdf/soft/SLE_15/packages/x86_64/intel_oneapi/2021.3/mkl/latest/lib/intel64/libmkl_blacs_intelmpi_lp64.so
                   /mpcdf/soft/SLE_15/packages/x86_64/intel_oneapi/2021.3/mkl/latest/lib/intel64/libmkl_scalapack_lp64.so

  Using       18 parallel tasks.
  Task        0 on host adag039 reporting.
  Task        1 on host adag039 reporting.
  Task        2 on host adag039 reporting.
  Task        3 on host adag039 reporting.
  Task        4 on host adag039 reporting.
  Task        5 on host adag039 reporting.
  Task        6 on host adag039 reporting.
  Task        7 on host adag039 reporting.
  Task        8 on host adag039 reporting.
  Task        9 on host adag039 reporting.
  Task       10 on host adag039 reporting.
  Task       11 on host adag039 reporting.
  Task       12 on host adag039 reporting.
  Task       13 on host adag039 reporting.
  Task       14 on host adag039 reporting.
  Task       15 on host adag039 reporting.
  Task       16 on host adag039 reporting.
  Task       17 on host adag039 reporting.

  Obtaining array dimensions for all initial allocations:
  
  -----------------------------------------------------------------------
  Parsing control.in (first pass over file, find array dimensions only).
  The contents of control.in will be repeated verbatim below
  unless switched off by setting 'verbatim_writeout .false.' .
  in the first line of control.in .
  -----------------------------------------------------------------------
  
  #########################################################################################
  #
  #  Volker Blum, 2017 : Test run input file control.in for simple H2O
  #
  #########################################################################################
  #
  #  Physical model
  #
    xc                 pw-lda
    spin               none
    relativistic       none
    charge             0.
  
    use_gpu
  
    DFPT dielectric
    ri_density_restart write
    ri_rho1 write
  #  ri_density_restart read 0
  #  ri_rho1 read
    ri_full_output .true.
    sc_accuracy_rho    1d-6
  #  use_calculate_fock_matrix_old .false.
  #  wave_threshold 1e-8
    k_grid 1 1 1
  #  output cube eigenstate 160
  #  output cube eigenstate 161
    wave_threshold 1e-8
    default_prodbas_acc 1e-6
    default_max_l_prodbas 6
  #
  #  Relaxation
  #
  #  relax_geometry   bfgs 1.e-2
  #
  
  ################################################################################
  
  
  ################################################################################
  #
  #  FHI-aims code project
  #  VB, Fritz-Haber Institut, 2009
  #
  #  Suggested "light" defaults for H atom (to be pasted into control.in file)
  #  Be sure to double-check any results obtained with these settings for post-processing,
  #  e.g., with the "tight" defaults and larger basis sets.
  #
  ################################################################################
    species        H
  #     global species definitions
      nucleus             1
      mass                1.00794
  #
      l_hartree           4
  #
      cut_pot             3.5  1.5  1.0
      basis_dep_cutoff    1e-4
  #
      radial_base         24 5.0
      radial_multiplier   1
      angular_grids       specified
        division   0.2421   50
        division   0.3822  110
        division   0.4799  194
        division   0.5341  302
  #      division   0.5626  434
  #      division   0.5922  590
  #      division   0.6542  770
  #      division   0.6868 1202
  #      outer_grid  770
        outer_grid  302
  ################################################################################
  #
  #  Definition of "minimal" basis
  #
  ################################################################################
  #     valence basis states
      valence      1  s   1.
  #     ion occupancy
      ion_occ      1  s   0.5
  ################################################################################
  #
  #  Suggested additional basis functions. For production calculations,
  #  uncomment them one after another (the most important basis functions are
  #  listed first).
  #
  #  Basis constructed for dimers: 0.5 A, 0.7 A, 1.0 A, 1.5 A, 2.5 A
  #
  ################################################################################
  #  "First tier" - improvements: -1014.90 meV to -62.69 meV
       hydro 2 s 2.1
       hydro 2 p 3.5
  #  "Second tier" - improvements: -12.89 meV to -1.83 meV
  #     hydro 1 s 0.85
  #     hydro 2 p 3.7
  #     hydro 2 s 1.2
  #     hydro 3 d 7
  #  "Third tier" - improvements: -0.25 meV to -0.12 meV
  #     hydro 4 f 11.2
  #     hydro 3 p 4.8
  #     hydro 4 d 9
  #     hydro 3 s 3.2
  ################################################################################
  #
  #  FHI-aims code project
  #  VB, Fritz-Haber Institut, 2009
  #
  #  Suggested "light" defaults for O atom (to be pasted into control.in file)
  #  Be sure to double-check any results obtained with these settings for post-processing,
  #  e.g., with the "tight" defaults and larger basis sets.
  #
  ################################################################################
    species        O
  #     global species definitions
      nucleus             8
      mass                15.9994
  #
      l_hartree           4
  #
      cut_pot             3.5  1.5  1.0
      basis_dep_cutoff    1e-4
  #
      radial_base         36 5.0
      radial_multiplier   1
       angular_grids specified
        division   0.2659   50
        division   0.4451  110
        division   0.6052  194
        division   0.7543  302
  #      division   0.8014  434
  #      division   0.8507  590
  #      division   0.8762  770
  #      division   0.9023  974
  #      division   1.2339 1202
  #      outer_grid 974
        outer_grid 302
  ################################################################################
  #
  #  Definition of "minimal" basis
  #
  ################################################################################
  #     valence basis states
      valence      2  s   2.
      valence      2  p   4.
  #     ion occupancy
      ion_occ      2  s   1.
      ion_occ      2  p   3.
  ################################################################################
  #
  #  Suggested additional basis functions. For production calculations,
  #  uncomment them one after another (the most important basis functions are
  #  listed first).
  #
  #  Constructed for dimers: 1.0 A, 1.208 A, 1.5 A, 2.0 A, 3.0 A
  #
  ################################################################################
  #  "First tier" - improvements: -699.05 meV to -159.38 meV
       hydro 2 p 1.8
       hydro 3 d 7.6
       hydro 3 s 6.4
  #  "Second tier" - improvements: -49.91 meV to -5.39 meV
  #     hydro 4 f 11.6
  #     hydro 3 p 6.2
  #     hydro 3 d 5.6
  #     hydro 5 g 17.6
  #     hydro 1 s 0.75
  #  "Third tier" - improvements: -2.83 meV to -0.50 meV
  #     ionic 2 p auto
  #     hydro 4 f 10.8
  #     hydro 4 d 4.7
  #     hydro 2 s 6.8
  #  "Fourth tier" - improvements: -0.40 meV to -0.12 meV
  #     hydro 3 p 5
  #     hydro 3 s 3.3
  #     hydro 5 g 15.6
  #     hydro 4 f 17.6
  #     hydro 4 d 14
  # Further basis functions - -0.08 meV and below
  #     hydro 3 s 2.1
  #     hydro 4 d 11.6
  #     hydro 3 p 16
  #     hydro 2 s 17.2
  
  -----------------------------------------------------------------------
  Completed first pass over input file control.in .
  -----------------------------------------------------------------------
  
  
  -----------------------------------------------------------------------
  Parsing geometry.in (first pass over file, find array dimensions only).
  The contents of geometry.in will be repeated verbatim below
  unless switched off by setting 'verbatim_writeout .false.' .
  in the first line of geometry.in .
  -----------------------------------------------------------------------
  
  #=======================================================
  # FHI-aims file: /ada/ptmp/mpsd/alewis/bulk_water/qmdata/data/geoms/69.in
  # Created using the Atomic Simulation Environment (ASE)
  # Tue Feb 21 11:23:37 2023
  #=======================================================
  lattice_vector 9.7755799999999997 0.0000000000000000 0.0000000000000000
  lattice_vector 0.0000000000000000 9.7755799999999997 0.0000000000000000
  lattice_vector 0.0000000000000000 0.0000000000000000 9.7755799999999997
  atom 8.6583699999999997 4.2653299999999996 -9.7568900000000003 O
  atom 8.1879799999999996 5.0774900000000001 -9.4401100000000007 H
  atom 9.4103399999999997 4.2444800000000003 -9.2989599999999992 H
  atom 11.1005000000000003 5.4771200000000002 -6.3898099999999998 O
  atom 10.6690000000000005 6.1456099999999996 -6.9692299999999996 H
  atom 12.0496999999999996 5.8075900000000003 -5.7873000000000001 H
  atom 3.0972100000000000 3.7010500000000000 15.1161999999999992 O
  atom 3.6708500000000002 3.6250900000000001 14.4814000000000007 H
  atom 2.4781399999999998 4.0480700000000001 14.4929000000000006 H
  atom 3.5839799999999999 6.2213099999999999 0.9486620000000000 O
  atom 3.8668700000000000 6.0591100000000004 1.9066300000000000 H
  atom 4.2528899999999998 5.6712600000000002 0.4192540000000000 H
  atom -3.9780500000000001 -2.2395000000000000 7.0762499999999999 O
  atom -3.3830300000000002 -1.5544600000000000 6.9867800000000004 H
  atom -3.3818700000000002 -2.6581999999999999 7.8356199999999996 H
  atom 6.2807399999999998 -0.8374880000000000 11.7318999999999996 O
  atom 7.1484500000000004 -0.5078460000000000 11.6216000000000008 H
  atom 6.3738299999999999 -1.5150999999999999 12.4230000000000000 H
  atom 4.5738500000000002 12.3306000000000004 0.8269530000000000 O
  atom 3.6682299999999999 12.2745999999999995 1.2911400000000000 H
  atom 5.0991999999999997 12.4741000000000000 1.4969699999999999 H
  atom -8.1312599999999993 -9.9962499999999999 8.4908099999999997 O
  atom -7.9149500000000002 -9.7860899999999997 9.4338300000000004 H
  atom -7.6239299999999997 -10.7278000000000002 7.9613199999999997 H
  atom 1.5252100000000000 -19.0214999999999996 13.8259000000000007 O
  atom 1.0199900000000000 -18.6484999999999985 12.9969000000000001 H
  atom 0.9142900000000000 -19.2540000000000013 14.4978999999999996 H
  atom 12.4608000000000008 -5.1464299999999996 8.3191500000000005 O
  atom 13.4274000000000004 -5.1682300000000003 8.4732800000000008 H
  atom 12.2582000000000004 -5.8212700000000002 7.7347799999999998 H
  atom 1.6000500000000000 12.1392000000000007 -2.5570200000000001 O
  atom 2.2645000000000000 12.3045000000000009 -3.2679100000000001 H
  atom 1.5546599999999999 11.1997000000000000 -2.2613200000000000 H
  atom 14.7504000000000008 1.4246799999999999 8.1200200000000002 O
  atom 14.4709000000000003 1.6306900000000000 9.0382300000000004 H
  atom 14.4491999999999994 0.6978870000000000 8.0172299999999996 H
  atom -0.7086080000000000 5.9408899999999996 5.1194300000000004 O
  atom 0.1116870000000000 5.6960499999999996 4.6748000000000003 H
  atom -0.3385140000000000 6.6096199999999996 5.7512900000000000 H
  atom 3.6139000000000001 8.9337800000000005 10.4324999999999992 O
  atom 4.4220400000000000 9.1883900000000001 10.6370000000000005 H
  atom 3.5415399999999999 8.0470199999999998 10.6742000000000008 H
  atom -0.5906650000000000 2.3660899999999998 5.5832100000000002 O
  atom -1.1404600000000000 2.8365800000000001 6.0030799999999997 H
  atom 0.3216220000000000 2.3970600000000002 6.1464400000000001 H
  atom -0.8981060000000000 9.6210100000000001 0.8830880000000000 O
  atom -0.6990530000000000 10.2805000000000000 1.3990499999999999 H
  atom -1.3897999999999999 9.8239999999999998 0.0921150000000000 H
  atom -11.8291000000000004 4.3528200000000004 -2.8632900000000001 O
  atom -11.5016999999999996 4.9678800000000001 -3.5751400000000002 H
  atom -11.5221000000000000 4.9000800000000000 -2.2203300000000001 H
  atom -13.4033999999999995 2.0920800000000002 5.3609600000000004 O
  atom -13.3542000000000005 2.5661000000000000 6.2383199999999999 H
  atom -14.0419000000000000 1.3401400000000001 5.5071199999999996 H
  atom 6.5412299999999997 12.5007999999999999 2.7436900000000000 O
  atom 6.4018100000000002 12.3789999999999996 3.7246500000000000 H
  atom 7.2290200000000002 12.1112000000000002 2.3287399999999998 H
  atom -3.0540300000000000 -2.7882799999999999 -15.2576999999999998 O
  atom -3.5579100000000001 -2.7920699999999998 -14.4541000000000004 H
  atom -2.2432400000000001 -3.1963900000000001 -14.8756000000000004 H
  atom 3.2060700000000000 -2.5789200000000001 -2.3315700000000001 O
  atom 4.2019900000000003 -2.6050800000000001 -2.4370799999999999 H
  atom 3.0815500000000000 -3.4789599999999998 -2.1495899999999999 H
  atom 4.3552700000000000 19.6161999999999992 4.2965700000000000 O
  atom 4.6442800000000002 19.4646000000000008 3.4750999999999999 H
  atom 3.3865500000000002 19.6687000000000012 4.4283700000000001 H
  atom 5.2635300000000003 4.5223300000000002 8.3283199999999997 O
  atom 5.3771599999999999 3.5922999999999998 8.6276899999999994 H
  atom 6.1013799999999998 4.5560099999999997 7.8152499999999998 H
  atom 4.7542999999999997 14.7027999999999999 22.7509000000000015 O
  atom 5.4673400000000001 15.1790000000000003 22.9354000000000013 H
  atom 5.1919500000000003 13.9655000000000005 22.4255999999999993 H
  atom 3.3449200000000001 -2.6928999999999998 4.5271800000000004 O
  atom 3.6705800000000002 -2.4328799999999999 5.3284900000000004 H
  atom 3.4133000000000000 -1.6578200000000001 4.1502100000000004 H
  atom 7.7182500000000003 9.3159100000000006 5.7262500000000003 O
  atom 7.2789299999999999 8.7581399999999991 5.0306300000000004 H
  atom 7.5296500000000002 10.2254000000000005 5.4871800000000004 H
  atom 0.4845210000000000 17.0091000000000001 11.3283000000000005 O
  atom 0.9550080000000000 16.9939000000000000 10.6079000000000008 H
  atom -0.0469200000000000 17.8981999999999992 11.2396999999999991 H
  atom 9.7496200000000002 16.9314000000000000 -1.7078100000000001 O
  atom 10.0137000000000000 17.7110999999999983 -1.2980100000000001 H
  atom 10.4373000000000005 16.3608000000000011 -1.8038799999999999 H
  atom -1.9042699999999999 10.4687000000000001 8.2996700000000008 O
  atom -2.7968099999999998 10.6824999999999992 8.1194000000000006 H
  atom -1.3731500000000001 10.3765999999999998 7.3720999999999997 H
  atom 11.6815999999999995 3.6944499999999998 1.0125400000000000 O
  atom 11.9255999999999993 4.1067900000000002 0.1525390000000000 H
  atom 11.7720000000000002 4.2453399999999997 1.8629100000000001 H
  atom 7.3518400000000002 -2.9391200000000000 9.2781599999999997 O
  atom 7.1410900000000002 -2.1440999999999999 9.8684499999999993 H
  atom 8.2590100000000000 -2.7585500000000001 8.9004700000000003 H
  atom -0.0254880000000000 2.1959300000000002 2.7277700000000000 O
  atom -0.2936270000000000 2.3412500000000001 3.6827399999999999 H
  atom 0.3278620000000000 2.8299099999999999 2.6514799999999998 H
  
  -----------------------------------------------------------------------
  Completed first pass over input file geometry.in .
  -----------------------------------------------------------------------
  

  Basic array size parameters:
  | Number of species                 :        2
  | Number of atoms                   :       96
  | Number of lattice vectors         :        3
  | Max. basis fn. angular momentum   :        2
  | Max. atomic/ionic basis occupied n:        2
  | Max. number of basis fn. types    :        2
  | Max. radial fns per species/type  :        3
  | Max. logarithmic grid size        :     1301
  | Max. radial integration grid size :       36
  | Max. angular integration grid size:      302
  | Max. angular grid division number :        8
  | Radial grid for Hartree potential :     1301
  | Number of spin channels           :        1

------------------------------------------------------------
          Reading file control.in.
------------------------------------------------------------
  XC: Using Perdew-Wang parametrisation of Ceperley-Alder LDA.
  Spin treatment: No spin polarisation.
  Non-relativistic treatment of kinetic energy.
  Charge =   0.000000E+00: Neutral system requested explicitly.
  DFPT calculation will begin after the DFT/HF calculation.
  Convergence accuracy of self-consistent charge density:  0.1000E-05
  Found k-point grid:         1         1         1
  Threshold value for wave function integration:  0.1000E-07
 
  Reading configuration options for species H                   .
  | Found nuclear charge :   1.0000
  | Found atomic mass :    1.00794000000000      amu
  | Found l_max for Hartree potential  :   4
  | Found cutoff potl. onset [A], width [A], scale factor :    3.50000    1.50000    1.00000
  | Threshold for basis-dependent cutoff potential is   0.100000E-03
  | Found data for basic radial integration grid :    24 points, outermost radius =    5.000 A
  | Found multiplier for basic radial grid :   1
  | Found angular grid specification: user-specified.
  | Specified grid contains     5 separate shells.
  | Check grid settings after all constraints further below.
  | Found free-atom valence shell :  1 s   1.000
  | No ionic wave fns used. Skipping ion_occ.
  | Found hydrogenic basis function :  2 s   2.100
  | Found hydrogenic basis function :  2 p   3.500
  Species H                   : Missing cutoff potential type.
  Defaulting to exp(1/x)/(1-x)^2 type cutoff potential.
  Species H : No 'logarithmic' tag. Using default grid for free atom:
  | Default logarithmic grid data [bohr] : 0.1000E-03 0.1000E+03 0.1012E+01
  Species H : On-site basis accuracy parameter (for Gram-Schmidt orthonormalisation) not specified.
  Using default value basis_acc =  0.1000000E-03.
  Species H                   : Using default innermost maximum threshold i_radial=  2 for radial functions.
  Species H                   : Default cutoff onset for free atom density etc. : 0.35000000E+01 AA.
  Species H                   : Basic radial grid will be enhanced according to radial_multiplier =   1, to contain    24 grid points.
 
  Reading configuration options for species O                   .
  | Found nuclear charge :   8.0000
  | Found atomic mass :    15.9994000000000      amu
  | Found l_max for Hartree potential  :   4
  | Found cutoff potl. onset [A], width [A], scale factor :    3.50000    1.50000    1.00000
  | Threshold for basis-dependent cutoff potential is   0.100000E-03
  | Found data for basic radial integration grid :    36 points, outermost radius =    5.000 A
  | Found multiplier for basic radial grid :   1
  | Found angular grid specification: user-specified.
  | Specified grid contains     5 separate shells.
  | Check grid settings after all constraints further below.
  | Found free-atom valence shell :  2 s   2.000
  | Found free-atom valence shell :  2 p   4.000
  | No ionic wave fns used. Skipping ion_occ.
  | No ionic wave fns used. Skipping ion_occ.
  | Found hydrogenic basis function :  2 p   1.800
  | Found hydrogenic basis function :  3 d   7.600
  | Found hydrogenic basis function :  3 s   6.400
  Species O                   : Missing cutoff potential type.
  Defaulting to exp(1/x)/(1-x)^2 type cutoff potential.
  Species O : No 'logarithmic' tag. Using default grid for free atom:
  | Default logarithmic grid data [bohr] : 0.1000E-03 0.1000E+03 0.1012E+01
  Species O : On-site basis accuracy parameter (for Gram-Schmidt orthonormalisation) not specified.
  Using default value basis_acc =  0.1000000E-03.
  Species O                   : Using default innermost maximum threshold i_radial=  2 for radial functions.
  Species O                   : Default cutoff onset for free atom density etc. : 0.35000000E+01 AA.
  Species O                   : Basic radial grid will be enhanced according to radial_multiplier =   1, to contain    36 grid points.
 
  Finished reading input file 'control.in'.
 
------------------------------------------------------------


------------------------------------------------------------
          Reading geometry description geometry.in.
------------------------------------------------------------
  | The smallest distance between any two atoms is         0.72979931 AA.
  | The first atom of this pair is atom number                     94 .
  | The second atom of this pair is atom number                    96 .
  | Wigner-Seitz cell of the first atom image           0     0     0 .
  | (The Wigner-Seitz cell of the second atom is 0 0 0  by definition.)

  Symmetry information by spglib:
  | Precision set to  0.1E-04
  | Number of Operations  : 1
  | Space group           : 1
  | International         : P1
  | Schoenflies           : C1^1
  Input structure read successfully.
  The structure contains       96 atoms,  and a total of        320.000 electrons.

  Input geometry:
  | Unit cell:
  |        9.77558000        0.00000000        0.00000000
  |        0.00000000        9.77558000        0.00000000
  |        0.00000000        0.00000000        9.77558000
  | Atomic structure:
  |       Atom                x [A]            y [A]            z [A]
  |    1: Species O             8.65837000        4.26533000       -9.75689000
  |    2: Species H             8.18798000        5.07749000       -9.44011000
  |    3: Species H             9.41034000        4.24448000       -9.29896000
  |    4: Species O            11.10050000        5.47712000       -6.38981000
  |    5: Species H            10.66900000        6.14561000       -6.96923000
  |    6: Species H            12.04970000        5.80759000       -5.78730000
  |    7: Species O             3.09721000        3.70105000       15.11620000
  |    8: Species H             3.67085000        3.62509000       14.48140000
  |    9: Species H             2.47814000        4.04807000       14.49290000
  |   10: Species O             3.58398000        6.22131000        0.94866200
  |   11: Species H             3.86687000        6.05911000        1.90663000
  |   12: Species H             4.25289000        5.67126000        0.41925400
  |   13: Species O            -3.97805000       -2.23950000        7.07625000
  |   14: Species H            -3.38303000       -1.55446000        6.98678000
  |   15: Species H            -3.38187000       -2.65820000        7.83562000
  |   16: Species O             6.28074000       -0.83748800       11.73190000
  |   17: Species H             7.14845000       -0.50784600       11.62160000
  |   18: Species H             6.37383000       -1.51510000       12.42300000
  |   19: Species O             4.57385000       12.33060000        0.82695300
  |   20: Species H             3.66823000       12.27460000        1.29114000
  |   21: Species H             5.09920000       12.47410000        1.49697000
  |   22: Species O            -8.13126000       -9.99625000        8.49081000
  |   23: Species H            -7.91495000       -9.78609000        9.43383000
  |   24: Species H            -7.62393000      -10.72780000        7.96132000
  |   25: Species O             1.52521000      -19.02150000       13.82590000
  |   26: Species H             1.01999000      -18.64850000       12.99690000
  |   27: Species H             0.91429000      -19.25400000       14.49790000
  |   28: Species O            12.46080000       -5.14643000        8.31915000
  |   29: Species H            13.42740000       -5.16823000        8.47328000
  |   30: Species H            12.25820000       -5.82127000        7.73478000
  |   31: Species O             1.60005000       12.13920000       -2.55702000
  |   32: Species H             2.26450000       12.30450000       -3.26791000
  |   33: Species H             1.55466000       11.19970000       -2.26132000
  |   34: Species O            14.75040000        1.42468000        8.12002000
  |   35: Species H            14.47090000        1.63069000        9.03823000
  |   36: Species H            14.44920000        0.69788700        8.01723000
  |   37: Species O            -0.70860800        5.94089000        5.11943000
  |   38: Species H             0.11168700        5.69605000        4.67480000
  |   39: Species H            -0.33851400        6.60962000        5.75129000
  |   40: Species O             3.61390000        8.93378000       10.43250000
  |   41: Species H             4.42204000        9.18839000       10.63700000
  |   42: Species H             3.54154000        8.04702000       10.67420000
  |   43: Species O            -0.59066500        2.36609000        5.58321000
  |   44: Species H            -1.14046000        2.83658000        6.00308000
  |   45: Species H             0.32162200        2.39706000        6.14644000
  |   46: Species O            -0.89810600        9.62101000        0.88308800
  |   47: Species H            -0.69905300       10.28050000        1.39905000
  |   48: Species H            -1.38980000        9.82400000        0.09211500
  |   49: Species O           -11.82910000        4.35282000       -2.86329000
  |   50: Species H           -11.50170000        4.96788000       -3.57514000
  |   51: Species H           -11.52210000        4.90008000       -2.22033000
  |   52: Species O           -13.40340000        2.09208000        5.36096000
  |   53: Species H           -13.35420000        2.56610000        6.23832000
  |   54: Species H           -14.04190000        1.34014000        5.50712000
  |   55: Species O             6.54123000       12.50080000        2.74369000
  |   56: Species H             6.40181000       12.37900000        3.72465000
  |   57: Species H             7.22902000       12.11120000        2.32874000
  |   58: Species O            -3.05403000       -2.78828000      -15.25770000
  |   59: Species H            -3.55791000       -2.79207000      -14.45410000
  |   60: Species H            -2.24324000       -3.19639000      -14.87560000
  |   61: Species O             3.20607000       -2.57892000       -2.33157000
  |   62: Species H             4.20199000       -2.60508000       -2.43708000
  |   63: Species H             3.08155000       -3.47896000       -2.14959000
  |   64: Species O             4.35527000       19.61620000        4.29657000
  |   65: Species H             4.64428000       19.46460000        3.47510000
  |   66: Species H             3.38655000       19.66870000        4.42837000
  |   67: Species O             5.26353000        4.52233000        8.32832000
  |   68: Species H             5.37716000        3.59230000        8.62769000
  |   69: Species H             6.10138000        4.55601000        7.81525000
  |   70: Species O             4.75430000       14.70280000       22.75090000
  |   71: Species H             5.46734000       15.17900000       22.93540000
  |   72: Species H             5.19195000       13.96550000       22.42560000
  |   73: Species O             3.34492000       -2.69290000        4.52718000
  |   74: Species H             3.67058000       -2.43288000        5.32849000
  |   75: Species H             3.41330000       -1.65782000        4.15021000
  |   76: Species O             7.71825000        9.31591000        5.72625000
  |   77: Species H             7.27893000        8.75814000        5.03063000
  |   78: Species H             7.52965000       10.22540000        5.48718000
  |   79: Species O             0.48452100       17.00910000       11.32830000
  |   80: Species H             0.95500800       16.99390000       10.60790000
  |   81: Species H            -0.04692000       17.89820000       11.23970000
  |   82: Species O             9.74962000       16.93140000       -1.70781000
  |   83: Species H            10.01370000       17.71110000       -1.29801000
  |   84: Species H            10.43730000       16.36080000       -1.80388000
  |   85: Species O            -1.90427000       10.46870000        8.29967000
  |   86: Species H            -2.79681000       10.68250000        8.11940000
  |   87: Species H            -1.37315000       10.37660000        7.37210000
  |   88: Species O            11.68160000        3.69445000        1.01254000
  |   89: Species H            11.92560000        4.10679000        0.15253900
  |   90: Species H            11.77200000        4.24534000        1.86291000
  |   91: Species O             7.35184000       -2.93912000        9.27816000
  |   92: Species H             7.14109000       -2.14410000        9.86845000
  |   93: Species H             8.25901000       -2.75855000        8.90047000
  |   94: Species O            -0.02548800        2.19593000        2.72777000
  |   95: Species H            -0.29362700        2.34125000        3.68274000
  |   96: Species H             0.32786200        2.82991000        2.65148000

  Lattice parameters for 3D lattice (in Angstroms) :     9.775580    9.775580    9.775580
  Angle(s) between unit vectors (in degrees)       :    90.000000   90.000000   90.000000


  Quantities derived from the lattice vectors (in Angstrom^-1):
  | Reciprocal lattice vector 1:  0.642743  0.000000  0.000000
  | Reciprocal lattice vector 2:  0.000000  0.642743  0.000000
  | Reciprocal lattice vector 3:  0.000000  0.000000  0.642743
  | Unit cell volume                               :   0.934174E+03  Angstrom^3

  Fractional coordinates:
                         L1                L2                L3
       atom_frac         0.88571420        0.43632501       -0.99808809  O
       atom_frac         0.83759531        0.51940550       -0.96568285  H
       atom_frac         0.96263751        0.43419214       -0.95124381  H
       atom_frac         1.13553365        0.56028594       -0.65365022  O
       atom_frac         1.09139304        0.62866960       -0.71292240  H
       atom_frac         1.23263274        0.59409160       -0.59201602  H
       atom_frac         0.31683133        0.37860158        1.54632257  O
       atom_frac         0.37551225        0.37083119        1.48138525  H
       atom_frac         0.25350312        0.41410024        1.48256165  H
       atom_frac         0.36662582        0.63641339        0.09704406  O
       atom_frac         0.39556425        0.61982102        0.19504009  H
       atom_frac         0.43505245        0.58014563        0.04288789  H
       atom_frac        -0.40693749       -0.22909127        0.72387009  O
       atom_frac        -0.34606949       -0.15901461        0.71471769  H
       atom_frac        -0.34595083       -0.27192248        0.80155039  H
       atom_frac         0.64249282       -0.08567144        1.20012316  O
       atom_frac         0.73125584       -0.05195047        1.18883995  H
       atom_frac         0.65201553       -0.15498825        1.27081974  H
       atom_frac         0.46788528        1.26136761        0.08459375  O
       atom_frac         0.37524423        1.25563905        0.13207810  H
       atom_frac         0.52162634        1.27604705        0.15313362  H
       atom_frac        -0.83179310       -1.02257360        0.86857353  O
       atom_frac        -0.80966551       -1.00107513        0.96504044  H
       atom_frac        -0.77989541       -1.09740803        0.81440897  H
       atom_frac         0.15602246       -1.94581805        1.41433040  O
       atom_frac         0.10434061       -1.90766174        1.32952725  H
       atom_frac         0.09352795       -1.96960180        1.48307313  H
       atom_frac         1.27468651       -0.52645777        0.85101344  O
       atom_frac         1.37356556       -0.52868781        0.86678028  H
       atom_frac         1.25396140       -0.59549101        0.79123489  H
       atom_frac         0.16367827        1.24178821       -0.26157220  O
       atom_frac         0.23164866        1.25869769       -0.33429321  H
       atom_frac         0.15903506        1.14568138       -0.23132336  H
       atom_frac         1.50890280        0.14573867        0.83064330  O
       atom_frac         1.48031114        0.16681261        0.92457225  H
       atom_frac         1.47809133        0.07139085        0.82012832  H
       atom_frac        -0.07248757        0.60772762        0.52369578  O
       atom_frac         0.01142510        0.58268154        0.47821203  H
       atom_frac        -0.03462853        0.67613584        0.58833235  H
       atom_frac         0.36968650        0.91388746        1.06720010  O
       atom_frac         0.45235577        0.93993298        1.08811958  H
       atom_frac         0.36228439        0.82317571        1.09192498  H
       atom_frac        -0.06042250        0.24204088        0.57113849  O
       atom_frac        -0.11666418        0.29017000        0.61408939  H
       atom_frac         0.03290055        0.24520898        0.62875451  H
       atom_frac        -0.09187240        0.98418815        0.09033612  O
       atom_frac        -0.07151013        1.05165116        0.14311683  H
       atom_frac        -0.14217059        1.00495316        0.00942297  H
       atom_frac        -1.21006631        0.44527486       -0.29290231  O
       atom_frac        -1.17657469        0.50819286       -0.36572152  H
       atom_frac        -1.17866152        0.50125721       -0.22713026  H
       atom_frac        -1.37111046        0.21401083        0.54840327  O
       atom_frac        -1.36607751        0.26250105        0.63815344  H
       atom_frac        -1.43642628        0.13709059        0.56335481  H
       atom_frac         0.66913984        1.27877834        0.28066775  O
       atom_frac         0.65487777        1.26631872        0.38101576  H
       atom_frac         0.73949781        1.23892393        0.23822014  H
       atom_frac        -0.31241420       -0.28522911       -1.56079742  O
       atom_frac        -0.36395897       -0.28561681       -1.47859257  H
       atom_frac        -0.22947385       -0.32697702       -1.52171022  H
       atom_frac         0.32796724       -0.26381248       -0.23850963  O
       atom_frac         0.42984559       -0.26648854       -0.24930285  H
       atom_frac         0.31522938       -0.35588272       -0.21989386  H
       atom_frac         0.44552548        2.00665331        0.43952072  O
       atom_frac         0.47508997        1.99114528        0.35548786  H
       atom_frac         0.34642957        2.01202384        0.45300330  H
       atom_frac         0.53843659        0.46261501        0.85195150  O
       atom_frac         0.55006046        0.36747692        0.88257577  H
       atom_frac         0.62414506        0.46606033        0.79946663  H
       atom_frac         0.48634454        1.50403352        2.32731971  O
       atom_frac         0.55928548        1.55274674        2.34619327  H
       atom_frac         0.53111427        1.42861089        2.29404291  H
       atom_frac         0.34217100       -0.27547215        0.46311114  O
       atom_frac         0.37548463       -0.24887321        0.54508172  H
       atom_frac         0.34916598       -0.16958789        0.42454872  H
       atom_frac         0.78954395        0.95297773        0.58577087  O
       atom_frac         0.74460339        0.89592024        0.51461192  H
       atom_frac         0.77025097        1.04601466        0.56131503  H
       atom_frac         0.04956442        1.73995814        1.15883661  O
       atom_frac         0.09769323        1.73840325        1.08514277  H
       atom_frac        -0.00479972        1.83090927        1.14977321  H
       atom_frac         0.99734440        1.73200976       -0.17470165  O
       atom_frac         1.02435866        1.81176974       -0.13278087  H
       atom_frac         1.06769112        1.67363982       -0.18452920  H
       atom_frac        -0.19479867        1.07090321        0.84902072  O
       atom_frac        -0.28610169        1.09277403        0.83057987  H
       atom_frac        -0.14046737        1.06148177        0.75413428  H
       atom_frac         1.19497769        0.37792642        0.10357851  O
       atom_frac         1.21993785        0.42010704        0.01560409  H
       atom_frac         1.20422522        0.43428011        0.19056772  H
       atom_frac         0.75206177       -0.30065940        0.94911606  O
       atom_frac         0.73050295       -0.21933225        1.00950020  H
       atom_frac         0.84486138       -0.28218786        0.91047999  H
       atom_frac        -0.00260731        0.22463424        0.27903920  O
       atom_frac        -0.03003679        0.23949986        0.37672854  H
       atom_frac         0.03353888        0.28948768        0.27123506  H

 
  Finished reading input file 'geometry.in'.
 

 
  Consistency checks for stacksize environment parameter are next.
 
  | Maximum stacksize for task 0: unlimited
  | Maximum stacksize for task 1: unlimited
  | Maximum stacksize for task 2: unlimited
  | Maximum stacksize for task 3: unlimited
  | Maximum stacksize for task 4: unlimited
  | Maximum stacksize for task 5: unlimited
  | Maximum stacksize for task 6: unlimited
  | Maximum stacksize for task 7: unlimited
  | Maximum stacksize for task 8: unlimited
  | Maximum stacksize for task 9: unlimited
  | Maximum stacksize for task 10: unlimited
  | Maximum stacksize for task 11: unlimited
  | Maximum stacksize for task 12: unlimited
  | Maximum stacksize for task 13: unlimited
  | Maximum stacksize for task 14: unlimited
  | Maximum stacksize for task 15: unlimited
  | Maximum stacksize for task 16: unlimited
  | Maximum stacksize for task 17: unlimited
  | Current stacksize for task 0: unlimited
  | Current stacksize for task 1: unlimited
  | Current stacksize for task 2: unlimited
  | Current stacksize for task 3: unlimited
  | Current stacksize for task 4: unlimited
  | Current stacksize for task 5: unlimited
  | Current stacksize for task 6: unlimited
  | Current stacksize for task 7: unlimited
  | Current stacksize for task 8: unlimited
  | Current stacksize for task 9: unlimited
  | Current stacksize for task 10: unlimited
  | Current stacksize for task 11: unlimited
  | Current stacksize for task 12: unlimited
  | Current stacksize for task 13: unlimited
  | Current stacksize for task 14: unlimited
  | Current stacksize for task 15: unlimited
  | Current stacksize for task 16: unlimited
  | Current stacksize for task 17: unlimited
 
  Consistency checks for the contents of control.in are next.
 
  MPI_IN_PLACE appears to work with this MPI implementation.
  | Keeping use_mpi_in_place .true. (see manual).
  Explicit treatment of the Coulomb operator is needed, but the RI method is not specified.
  Coulomb operator: Defaulting to 'LVL fast' resolution of identity - RI_type = LVL_fast
  Species H: Using default value for prodbas_acc =   1.000000E-06.
  Species H: Using default value max_l_prodbas =     6.
  Species O: Using default value for prodbas_acc =   1.000000E-06.
  Species O: Using default value max_l_prodbas =     6.
  Target number of points in a grid batch is not set.  Since GPU acceleration is enabled, defaulting to  200
  Method for grid partitioning is not set. Defaulting to parallel hash+maxmin partitioning.
  Batch size limit is not set. Defaulting to    200
  By default, will store active basis functions for each batch.
  If in need of memory, prune_basis_once .false. can be used to disable this option.
  communication_type for Hartree potential was not specified.
  Defaulting to calc_hartree .
  Defaulting to Pulay charge density mixer.
  Pulay mixer: Number of relevant iterations not set.
  Defaulting to    8 iterations.
  Pulay mixer: Number of initial linear mixing iterations not set.
  Defaulting to    0 iterations.
  Work space size for distributed Hartree potential not set.
  Defaulting to   0.200000E+03 MB.
  Mixing parameter for charge density mixing has not been set.
  Using default: charge_mix_param =     0.0500.
  The mixing parameter will be adjusted in iteration number     2 of the first full s.c.f. cycle only.
  Algorithm-dependent basis array size parameters:
  | n_max_pulay                         :        8
  Maximum number of self-consistency iterations not provided.
  Presetting  1000 iterations.
  Presetting      1001 iterations before the initial mixing cycle
  is restarted anyway using the sc_init_iter criterion / keyword.
  Presetting a factor      1.000 between actual scf density residual
  and density convergence criterion sc_accuracy_rho below which sc_init_iter
  takes no effect.
  Calculation of forces was not defined in control.in. No forces will be calculated.
  Geometry relaxation not requested: no relaxation will be performed.
  No accuracy limit for integral partition fn. given. Defaulting to  0.1000E-14.
  No occupation type (smearing scheme) given. Defaulting to Gaussian broadening, width =  0.1000E-01 eV.
  The width will be adjusted in iteration number     2 of the first full s.c.f. cycle only.
  S.C.F. convergence parameters will be adjusted in iteration number     2 of the first full s.c.f. cycle only.
  No accuracy for occupation numbers given. Defaulting to  0.1000E-12.
  No threshold value for occupation numbers given. Defaulting to  0.0000E+00.
  No accuracy for fermi level given. Defaulting to  0.1000E-19.
  Maximum # of iterations to find E_F not set. Defaulting to  200.
  Preferred method for the eigenvalue solver ('KS_method') not specified in 'control.in'.
  Calling BLACS routine to test compilation state
  Since ScaLAPACK support is enabled, defaulting to ELPA (via ELSI).
  Will not use alltoall communication since running on < 1024 CPUs.
  Threshold for basis singularities not set.
  Default threshold for basis singularities:  0.1000E-04
  partition_type (choice of integration weights) for integrals was not specified.
  | Using a version of the partition function of Stratmann and coworkers ('stratmann_sparse').
  | At each grid point, the set of atoms used to build the partition table is smoothly restricted to
  | only those atoms whose free-atom density would be non-zero at that grid point.
  Partitioning for Hartree potential was not defined. Using partition_type for integrals.
  | Adjusted default value of keyword multip_moments_threshold to:       0.10000000E-11
  | This value may affect high angular momentum components of the Hartree potential in periodic systems.
  Angular momentum expansion for Kerker preconditioner not set explicitly.
  | Using default value of   0
  No explicit requirement for turning off preconditioner.
  | By default, it will be turned off when the charge convergence reaches
  | sc_accuracy_rho  =   0.100000E-05
  No special mixing parameter while Kerker preconditioner is on.
  Using default: charge_mix_param =     0.0500.
  Threshold for auxiliary basis singularities not set.
  Default threshold for auxiliary basis singularities:  0.1000E-04
  No q(lm)/r^(l+1) cutoff set for long-range Hartree potential.
  | Using default value of  0.100000E-09 .
  | Verify using the multipole_threshold keyword.
  Defaulting to new monopole extrapolation.
  Density update method: automatic selection selected.
  Using density matrix based charge density update.
  Using density matrix based charge density update.
  Using packed matrix style: index .
  Defaulting to use time-reversal symmetry for k-point grid.
  Charge integration errors on the 3D integration grid will be compensated
  by explicit normalization and distribution of residual charges.
  Use the "compensate_multipole_errors" flag to change this behaviour.
  Default to 1D ("use_logsbt") integrations for auxiliary 2-center integrals.
  Default onset of logarithmic r-grid for SBT is -38.000000000000
  Default onset of logarithmic k-grid for SBT is -25.000000000000
  Default range of logarithmic r- and k-grid for SBT is  45.000000000000
  Default number of logarithmic r- and k-grid for SBT is   4096
  Default of use_2d_corr is to use the efficient 2D distribution where possible
 
  Consistency checks for the contents of geometry.in are next.
 

  Range separation radius for Ewald summation (hartree_convergence_parameter):      2.94298538 bohr.
  Number of empty states per atom not set in control.in .
  | Since you are using a method that relies on the unoccupied spectrum
  | (MP2,GW,RPA et al.), will use the full Hamiltonian size (see below)
  | as the max. possible number of states (occupied plus empty).

  Structure-dependent array size parameters: 
  | Maximum number of distinct radial functions  :        9
  | Maximum number of basis functions            :      768
  | Number of Kohn-Sham states (occupied + empty):      768
------------------------------------------------------------

  Performing system and environment tests:
  | Environment variable OMP_NUM_THREADS correctly set to 1.
  | Checking for ScaLAPACK...
  | Testing pdtran()...
  | All pdtran() tests passed.
CUDA runtime version: 11060
CUDA driver version: 11060
  Initializing GPUs...

  Number of GPUs available to MPI task         0 :   1
  Number of GPUs available to MPI task         1 :   1
  Number of GPUs available to MPI task         2 :   1
  Number of GPUs available to MPI task         3 :   1
  Number of GPUs available to MPI task         4 :   1
  Number of GPUs available to MPI task         5 :   1
  Number of GPUs available to MPI task         6 :   1
  Number of GPUs available to MPI task         7 :   1
  Number of GPUs available to MPI task         8 :   1
  Number of GPUs available to MPI task         9 :   1
  Number of GPUs available to MPI task        10 :   1
  Number of GPUs available to MPI task        11 :   1
  Number of GPUs available to MPI task        12 :   1
  Number of GPUs available to MPI task        13 :   1
  Number of GPUs available to MPI task        14 :   1
  Number of GPUs available to MPI task        15 :   1
  Number of GPUs available to MPI task        16 :   1
  Number of GPUs available to MPI task        17 :   1

  | MPI task         0, GPU activated = T, Device Name = NVIDIA A100-SXM4-80GB
  | MPI task         1, GPU activated = T, Device Name = NVIDIA A100-SXM4-80GB
  | MPI task         2, GPU activated = T, Device Name = NVIDIA A100-SXM4-80GB
  | MPI task         3, GPU activated = T, Device Name = NVIDIA A100-SXM4-80GB
  | MPI task         4, GPU activated = T, Device Name = NVIDIA A100-SXM4-80GB
  | MPI task         5, GPU activated = T, Device Name = NVIDIA A100-SXM4-80GB
  | MPI task         6, GPU activated = T, Device Name = NVIDIA A100-SXM4-80GB
  | MPI task         7, GPU activated = T, Device Name = NVIDIA A100-SXM4-80GB
  | MPI task         8, GPU activated = T, Device Name = NVIDIA A100-SXM4-80GB
  | MPI task         9, GPU activated = T, Device Name = NVIDIA A100-SXM4-80GB
  | MPI task        10, GPU activated = T, Device Name = NVIDIA A100-SXM4-80GB
  | MPI task        11, GPU activated = T, Device Name = NVIDIA A100-SXM4-80GB
  | MPI task        12, GPU activated = T, Device Name = NVIDIA A100-SXM4-80GB
  | MPI task        13, GPU activated = T, Device Name = NVIDIA A100-SXM4-80GB
  | MPI task        14, GPU activated = T, Device Name = NVIDIA A100-SXM4-80GB
  | MPI task        15, GPU activated = T, Device Name = NVIDIA A100-SXM4-80GB
  | MPI task        16, GPU activated = T, Device Name = NVIDIA A100-SXM4-80GB
  | MPI task        17, GPU activated = T, Device Name = NVIDIA A100-SXM4-80GB

------------------------------------------------------------
          Preparing all fixed parts of the calculation.
------------------------------------------------------------
  Determining machine precision:
    2.225073858507201E-308
  Setting up grids for atomic and cluster calculations.

  Creating wave function, potential, and density for free atoms.
  Runtime choices for atomic solver:
  | atomic solver xc        : PW-LDA
  | compute density gradient: 0
  | compute kinetic density : F

  Species: H

  List of occupied orbitals and eigenvalues:
    n    l              occ      energy [Ha]    energy [eV]
    1    0           1.0000        -0.232375        -6.3233


  Species: O

  List of occupied orbitals and eigenvalues:
    n    l              occ      energy [Ha]    energy [eV]
    1    0           2.0000       -18.757744      -510.4242
    2    0           2.0000        -0.870917       -23.6989
    2    1           4.0000        -0.337950        -9.1961


  Adding cutoff potential to free-atom effective potential.
  Creating fixed part of basis set: Ionic, confined, hydrogenic.
 
  H                    hydrogenic:
 
  List of hydrogenic basis orbitals: 
    n    l      effective z      eigenvalue [eV]  inner max. [A]     outer max. [A]     outer radius [A]   
    2    0         2.100000       -14.9728           0.193243           1.317208           4.696947
    2    1         3.500000       -41.6669           0.602369           0.602369           3.862494
 
 
  O                    hydrogenic:
 
  List of hydrogenic basis orbitals: 
    n    l      effective z      eigenvalue [eV]  inner max. [A]     outer max. [A]     outer radius [A]   
    2    1         1.800000       -10.9749           1.164242           1.164242           4.691341
    3    2         7.600000       -87.3180           0.624125           0.624125           3.413946
    3    0         6.400000       -61.9207           0.061167           1.081902           4.151495
 
  Creating atomic-like basis functions for current effective potential.

  Species H                   :

  List of atomic basis orbitals and eigenvalues:
    n    l      energy [Ha]    energy [eV]    outer radius [A]
    1    0        -0.232375        -6.3233       4.696947


  Species O                   :

  List of atomic basis orbitals and eigenvalues:
    n    l      energy [Ha]    energy [eV]    outer radius [A]
    1    0       -18.757744      -510.4242       1.830144
    2    0        -0.870917       -23.6989       4.578029
    2    1        -0.337950        -9.1961       4.634338

  Assembling full basis from fixed parts.
  | Species H :   atomic orbital   1 s accepted.
  | Species H :    hydro orbital   2 s accepted.
  | Species H :    hydro orbital   2 p accepted.
  | Species O :   atomic orbital   1 s accepted.
  | Species O :    hydro orbital   3 s accepted.
  | Species O :   atomic orbital   2 s accepted.
  | Species O :   atomic orbital   2 p accepted.
  | Species O :    hydro orbital   2 p accepted.
  | Species O :    hydro orbital   3 d accepted.
 
  Basis size parameters after reduction:
  | Total number of radial functions:        9
  | Total number of basis functions :      768
 
  Per-task memory consumption for arrays in subroutine allocate_ext:
  |           2.268304MB.
  Testing on-site integration grid accuracy.
  |  Species  Function  <phi|h_atom|phi> (log., in eV)  <phi|h_atom|phi> (rad., in eV)
           1        1                 -6.3245358373                 -6.3232436907
           1        2                 14.1326137532                 14.1384481100
           1        3                 25.3627025200                 25.3628451197
           2        4               -510.4241781764               -510.4240769407
           2        5                 14.9072942213                 14.9072945271
           2        6                -21.2004736474                -21.2005650551
           2        7                 -9.1962086505                 -9.1963509834
           2        8                  8.1896755006                  8.1702200081
           2        9                 45.7920584937                 45.7920228520

  Preparing densities etc. for the partition functions (integrals / Hartree potential).

  Preparations completed.
  max(cpu_time)          :      0.069 s.
  Wall clock time (cpu1) :      0.062 s.
------------------------------------------------------------

  Initializing index lists of integration centers etc. from given atomic structure:
  Mapping all atomic coordinates to central unit cell.

  Initializing the k-points
  Using symmetry for reducing the k-points
  | k-points reduced from:        1 to        1
  | Number of k-points                             :         1
  | Consuming          0 KiB for k_phase_exx.
  The eigenvectors in the calculations are REAL.
  | Number of basis functions in the Hamiltonian integrals :      4534
  | Number of basis functions in a single unit cell        :       768
  | Number of centers in hartree potential         :      2645
  | Number of centers in hartree multipole         :      1957
  | Number of centers in electron density summation:      1534
  | Number of centers in basis integrals           :      1636
  | Number of centers in integrals                 :       710
  | Number of centers in hamiltonian               :      1534
  | Consuming          0 KiB for k_phase.
  | Number of super-cells (origin) [n_cells]                     :         125
  | Number of super-cells (after PM_index) [n_cells]             :          28
  | Number of super-cells in hamiltonian [n_cells_in_hamiltonian]:          28
  | Size of matrix packed + index [n_hamiltonian_matrix_size] :      813838
  | Size of matrix packed + index (no_symmetry):     1626907

------------------------------------------------------------
          Begin self-consistency loop: Initialization.

          Date     :  20230221, Time     :  162829.967
------------------------------------------------------------
  | Estimated reciprocal-space cutoff momentum G_max:         3.21425834 bohr^-1 .
  | Reciprocal lattice points for long-range Hartree potential:    3574
  Using simple linear distribution as default method for k-point parallelism.
  * Using 18 tasks for Scalapack Eigenvalue solver.
  Detailed listing of tasks and assigned k-points:
   Task     0 k-point     1 on adag039
   Task     1 k-point     1 on adag039
   Task     2 k-point     1 on adag039
   Task     3 k-point     1 on adag039
   Task     4 k-point     1 on adag039
   Task     5 k-point     1 on adag039
   Task     6 k-point     1 on adag039
   Task     7 k-point     1 on adag039
   Task     8 k-point     1 on adag039
   Task     9 k-point     1 on adag039
   Task    10 k-point     1 on adag039
   Task    11 k-point     1 on adag039
   Task    12 k-point     1 on adag039
   Task    13 k-point     1 on adag039
   Task    14 k-point     1 on adag039
   Task    15 k-point     1 on adag039
   Task    16 k-point     1 on adag039
   Task    17 k-point     1 on adag039
  K-point:     1 Tasks:    18 split into      6 X      3 BLACS grid
  Calculating block size based on n_basis =          768  max_nprow =            6  max_npcol =            3
  ScaLAPACK block size set to:           16
  Allocating        0.250 MB for ovlp
  Allocating        0.250 MB for ham
  Allocating        0.250 MB for eigenvec
  Required Scalapack workspace - INTEGER:            1  REAL:             1
  Partitioning the integration grid into batches with parallel hashing+maxmin method.
  | Number of batches:     4096
  | Maximal batch size:     197
  | Minimal batch size:     100
  | Average batch size:     124.406
  | Standard deviation of batch sizes:      22.924

  Integration load balanced across    18 MPI tasks.
  Work distribution over tasks is as follows:
  Task     0 has      28349 integration points.
  Task     1 has      28287 integration points.
  Task     2 has      28327 integration points.
  Task     3 has      28315 integration points.
  Task     4 has      28287 integration points.
  Task     5 has      28336 integration points.
  Task     6 has      28315 integration points.
  Task     7 has      28270 integration points.
  Task     8 has      28323 integration points.
  Task     9 has      28334 integration points.
  Task    10 has      28257 integration points.
  Task    11 has      28349 integration points.
  Task    12 has      28265 integration points.
  Task    13 has      28329 integration points.
  Task    14 has      28271 integration points.
  Task    15 has      28274 integration points.
  Task    16 has      28361 integration points.
  Task    17 has      28319 integration points.
  Initializing partition tables, free-atom densities, potentials, etc. across the integration grid (initialize_grid_storage).
  | initialize_grid_storage: Actual outermost partition radius vs. multipole_radius_free
  | (-- VB: in principle, multipole_radius_free should be larger, hence this output)
  | Species        1: Confinement radius =              4.999999999999999 AA, multipole_radius_free =              5.054417573612229 AA.
  | Species        1: outer_partition_radius set to              5.054417573612229 AA .
  | Species        2: Confinement radius =              4.999999999999999 AA, multipole_radius_free =              5.048384829883283 AA.
  | Species        2: outer_partition_radius set to              5.048384829883283 AA .
  | The sparse table of interatomic distances needs       5625.52 kbyte instead of     21411.97 kbyte of memory.
  | Net number of integration points:   509568
  | of which are non-zero points    :   404573
  | Numerical average free-atom electrostatic potential    :     -5.57863187 eV
  Renormalizing the initial density to the exact electron count on the 3D integration grid.
  | Initial density: Formal number of electrons (from input files) :     320.0000000000
  | Integrated number of electrons on 3D grid     :     320.0049699681
  | Charge integration error                      :       0.0049699681
  | Normalization factor for density and gradient :       0.9999844691
  Renormalizing the free-atom superposition density to the exact electron count on the 3D integration grid.
  | Formal number of electrons (from input files) :     320.0000000000
  | Integrated number of electrons on 3D grid     :     320.0049699681
  | Charge integration error                      :       0.0049699681
  | Normalization factor for density and gradient :       0.9999844691
  Obtaining max. number of non-zero basis functions in each batch (get_n_compute_maxes).
  | Maximal number of non-zero basis functions:      420 in task     0
  | Maximal number of non-zero basis functions:      428 in task     1
  | Maximal number of non-zero basis functions:      424 in task     2
  | Maximal number of non-zero basis functions:      427 in task     3
  | Maximal number of non-zero basis functions:      465 in task     4
  | Maximal number of non-zero basis functions:      424 in task     5
  | Maximal number of non-zero basis functions:      432 in task     6
  | Maximal number of non-zero basis functions:      421 in task     7
  | Maximal number of non-zero basis functions:      427 in task     8
  | Maximal number of non-zero basis functions:      432 in task     9
  | Maximal number of non-zero basis functions:      429 in task    10
  | Maximal number of non-zero basis functions:      426 in task    11
  | Maximal number of non-zero basis functions:      431 in task    12
  | Maximal number of non-zero basis functions:      414 in task    13
  | Maximal number of non-zero basis functions:      424 in task    14
  | Maximal number of non-zero basis functions:      430 in task    15
  | Maximal number of non-zero basis functions:      415 in task    16
  | Maximal number of non-zero basis functions:      423 in task    17
  Integrating Hamiltonian matrix: batch-based integration.
  GPU acceleration will be used when integrating the Hamiltonian matrix.
  Reporting GPU memory usage by myid 0.  Note that it is likely not the only MPI task binding to its GPU!
  Allocating        1.411 MB on GPU for hamiltonian_shell
  Allocating        0.662 MB on GPU for wave
  Allocating        0.002 MB on GPU for partition
  Allocating        0.662 MB on GPU for h_times_psi
  Time summed over all CPUs for integration: real work       11.797 s, elapsed       12.604 s
  Deallocating memory used on GPU for Hamiltonian integration.
  Integrating overlap matrix.
  Time summed over all CPUs for integration: real work        9.785 s, elapsed       10.010 s
  Deallocating overlap matrix.

  Updating Kohn-Sham eigenvalues and eigenvectors using ELSI and the ELPA eigensolver.
  Singularity check in k-point 1 (analysis for other k-points may follow below):
  Overlap matrix is not singular
  | Lowest and highest eigenvalues :  0.2141E-02,  0.7399E+01
  Finished singularity check of overlap matrix
  | Time :     0.146 s
  Starting ELPA eigensolver (GPU)
  Finished Cholesky decomposition
  | Time :     0.007 s
  Finished transformation to standard eigenproblem
  | Time :     0.026 s
  Finished solving standard eigenproblem
  | Time :     0.190 s
  Finished back-transformation of eigenvectors
  | Time :     0.017 s

  Obtaining occupation numbers and electronic chemical potential using ELSI.
  | Note that, for insulating systems, the printed 'chemical potential' value is not uniquely defined.
  | It can be anywhere in the energy gap, as long as it correctly separates occupied and unoccupied states.
  | In systems with a gap, the physically relevant chemical potential is the VBM or HOMO.

  | Chemical potential (Fermi level):    -9.74946817 eV
  Writing Kohn-Sham eigenvalues.

  State    Occupation    Eigenvalue [Ha]    Eigenvalue [eV]
      1       2.00000         -18.951184         -515.68794
      2       2.00000         -18.921994         -514.89366
      3       2.00000         -18.907513         -514.49961
      4       2.00000         -18.906605         -514.47490
      5       2.00000         -18.906069         -514.46030
      6       2.00000         -18.905656         -514.44906
      7       2.00000         -18.902551         -514.36458
      8       2.00000         -18.891518         -514.06436
      9       2.00000         -18.890956         -514.04907
     10       2.00000         -18.890793         -514.04464
     11       2.00000         -18.889276         -514.00335
     12       2.00000         -18.887807         -513.96337
     13       2.00000         -18.886431         -513.92593
     14       2.00000         -18.886201         -513.91969
     15       2.00000         -18.885714         -513.90644
     16       2.00000         -18.878353         -513.70613
     17       2.00000         -18.875576         -513.63057
     18       2.00000         -18.874652         -513.60541
     19       2.00000         -18.874403         -513.59863
     20       2.00000         -18.873708         -513.57972
     21       2.00000         -18.870333         -513.48788
     22       2.00000         -18.869876         -513.47545
     23       2.00000         -18.869343         -513.46093
     24       2.00000         -18.867501         -513.41083
     25       2.00000         -18.866081         -513.37218
     26       2.00000         -18.863435         -513.30018
     27       2.00000         -18.863062         -513.29002
     28       2.00000         -18.860486         -513.21995
     29       2.00000         -18.859303         -513.18773
     30       2.00000         -18.856428         -513.10952
     31       2.00000         -18.856141         -513.10172
     32       2.00000         -18.842664         -512.73498
     33       2.00000          -1.235789          -33.62752
     34       2.00000          -1.185875          -32.26931
     35       2.00000          -1.172566          -31.90713
     36       2.00000          -1.165815          -31.72344
     37       2.00000          -1.155628          -31.44622
     38       2.00000          -1.149384          -31.27634
     39       2.00000          -1.146525          -31.19853
     40       2.00000          -1.139970          -31.02017
     41       2.00000          -1.136432          -30.92390
     42       2.00000          -1.131630          -30.79322
     43       2.00000          -1.130634          -30.76613
     44       2.00000          -1.130443          -30.76093
     45       2.00000          -1.128446          -30.70657
     46       2.00000          -1.127151          -30.67133
     47       2.00000          -1.120594          -30.49291
     48       2.00000          -1.115198          -30.34609
     49       2.00000          -1.115097          -30.34334
     50       2.00000          -1.111266          -30.23910
     51       2.00000          -1.108193          -30.15548
     52       2.00000          -1.102218          -29.99288
     53       2.00000          -1.099861          -29.92874
     54       2.00000          -1.099235          -29.91169
     55       2.00000          -1.096580          -29.83947
     56       2.00000          -1.092477          -29.72782
     57       2.00000          -1.088047          -29.60726
     58       2.00000          -1.083568          -29.48540
     59       2.00000          -1.082110          -29.44571
     60       2.00000          -1.079860          -29.38450
     61       2.00000          -1.075784          -29.27358
     62       2.00000          -1.071677          -29.16183
     63       2.00000          -1.066605          -29.02379
     64       2.00000          -1.046645          -28.48067
     65       2.00000          -0.718116          -19.54094
     66       2.00000          -0.712515          -19.38851
     67       2.00000          -0.705172          -19.18870
     68       2.00000          -0.702728          -19.12220
     69       2.00000          -0.700875          -19.07179
     70       2.00000          -0.695691          -18.93072
     71       2.00000          -0.694046          -18.88596
     72       2.00000          -0.687999          -18.72141
     73       2.00000          -0.679526          -18.49084
     74       2.00000          -0.669581          -18.22024
     75       2.00000          -0.666793          -18.14437
     76       2.00000          -0.665132          -18.09915
     77       2.00000          -0.660999          -17.98671
     78       2.00000          -0.658617          -17.92189
     79       2.00000          -0.653668          -17.78720
     80       2.00000          -0.653118          -17.77224
     81       2.00000          -0.652147          -17.74581
     82       2.00000          -0.649528          -17.67455
     83       2.00000          -0.647885          -17.62985
     84       2.00000          -0.646878          -17.60244
     85       2.00000          -0.643440          -17.50888
     86       2.00000          -0.642284          -17.47745
     87       2.00000          -0.637586          -17.34960
     88       2.00000          -0.631835          -17.19311
     89       2.00000          -0.630511          -17.15708
     90       2.00000          -0.629191          -17.12115
     91       2.00000          -0.627682          -17.08009
     92       2.00000          -0.625173          -17.01182
     93       2.00000          -0.623192          -16.95791
     94       2.00000          -0.615488          -16.74829
     95       2.00000          -0.612749          -16.67374
     96       2.00000          -0.603180          -16.41336
     97       2.00000          -0.589400          -16.03840
     98       2.00000          -0.578098          -15.73085
     99       2.00000          -0.572223          -15.57098
    100       2.00000          -0.568845          -15.47907
    101       2.00000          -0.567642          -15.44633
    102       2.00000          -0.567007          -15.42904
    103       2.00000          -0.561263          -15.27274
    104       2.00000          -0.559106          -15.21405
    105       2.00000          -0.555633          -15.11954
    106       2.00000          -0.551723          -15.01315
    107       2.00000          -0.548700          -14.93090
    108       2.00000          -0.545333          -14.83928
    109       2.00000          -0.543478          -14.78878
    110       2.00000          -0.542814          -14.77073
    111       2.00000          -0.538149          -14.64377
    112       2.00000          -0.534486          -14.54411
    113       2.00000          -0.533555          -14.51876
    114       2.00000          -0.531598          -14.46551
    115       2.00000          -0.531348          -14.45872
    116       2.00000          -0.529171          -14.39948
    117       2.00000          -0.523332          -14.24059
    118       2.00000          -0.521743          -14.19735
    119       2.00000          -0.520875          -14.17372
    120       2.00000          -0.519087          -14.12508
    121       2.00000          -0.518077          -14.09761
    122       2.00000          -0.511821          -13.92736
    123       2.00000          -0.511724          -13.92473
    124       2.00000          -0.504775          -13.73564
    125       2.00000          -0.501498          -13.64644
    126       2.00000          -0.499396          -13.58927
    127       2.00000          -0.493872          -13.43894
    128       2.00000          -0.490255          -13.34052
    129       2.00000          -0.487307          -13.26030
    130       2.00000          -0.484061          -13.17197
    131       2.00000          -0.481925          -13.11385
    132       2.00000          -0.480334          -13.07055
    133       2.00000          -0.478778          -13.02821
    134       2.00000          -0.476409          -12.96375
    135       2.00000          -0.475594          -12.94157
    136       2.00000          -0.474274          -12.90564
    137       2.00000          -0.473298          -12.87910
    138       2.00000          -0.471219          -12.82252
    139       2.00000          -0.469182          -12.76710
    140       2.00000          -0.468078          -12.73706
    141       2.00000          -0.465526          -12.66762
    142       2.00000          -0.463971          -12.62528
    143       2.00000          -0.463691          -12.61768
    144       2.00000          -0.462408          -12.58277
    145       2.00000          -0.461999          -12.57163
    146       2.00000          -0.459917          -12.51497
    147       2.00000          -0.458821          -12.48515
    148       2.00000          -0.458246          -12.46951
    149       2.00000          -0.457419          -12.44702
    150       2.00000          -0.456837          -12.43117
    151       2.00000          -0.453267          -12.33403
    152       2.00000          -0.450501          -12.25876
    153       2.00000          -0.447673          -12.18180
    154       2.00000          -0.447450          -12.17574
    155       2.00000          -0.446239          -12.14279
    156       2.00000          -0.444965          -12.10811
    157       2.00000          -0.444544          -12.09665
    158       2.00000          -0.443039          -12.05570
    159       2.00000          -0.442737          -12.04750
    160       2.00000          -0.436113          -11.86724
    161       0.00000          -0.176014           -4.78959
    162       0.00000          -0.118835           -3.23367
    163       0.00000          -0.111892           -3.04475
    164       0.00000          -0.108174           -2.94357
    165       0.00000          -0.106935           -2.90985
    166       0.00000          -0.105525           -2.87148
    167       0.00000          -0.101731           -2.76824
    168       0.00000          -0.070992           -1.93179
    169       0.00000          -0.068060           -1.85200
    170       0.00000          -0.064643           -1.75901
    171       0.00000          -0.060386           -1.64319
    172       0.00000          -0.055215           -1.50247
    173       0.00000          -0.052844           -1.43797
    174       0.00000          -0.049994           -1.36042
    175       0.00000          -0.047154           -1.28314
    176       0.00000          -0.044185           -1.20232
    177       0.00000          -0.043113           -1.17317
    178       0.00000          -0.039318           -1.06989
    179       0.00000          -0.031953           -0.86947
    180       0.00000          -0.015144           -0.41208
    181       0.00000          -0.014017           -0.38143
    182       0.00000          -0.008942           -0.24331
    183       0.00000          -0.000669           -0.01821
    184       0.00000           0.003415            0.09294
    185       0.00000           0.004350            0.11838
    186       0.00000           0.007332            0.19953
    187       0.00000           0.012846            0.34955
    188       0.00000           0.017972            0.48904
    189       0.00000           0.024404            0.66405
    190       0.00000           0.032478            0.88377
    191       0.00000           0.038747            1.05436
    192       0.00000           0.040150            1.09255
    193       0.00000           0.045238            1.23100
    194       0.00000           0.045809            1.24653
    195       0.00000           0.046317            1.26036
    196       0.00000           0.049987            1.36023
    197       0.00000           0.056257            1.53083
    198       0.00000           0.062436            1.69898
    199       0.00000           0.064157            1.74580
    200       0.00000           0.065111            1.77177
    201       0.00000           0.066174            1.80067
    202       0.00000           0.067210            1.82887
    203       0.00000           0.070314            1.91334
    204       0.00000           0.071249            1.93877
    205       0.00000           0.074472            2.02648
    206       0.00000           0.075979            2.06750
    207       0.00000           0.079230            2.15595
    208       0.00000           0.083064            2.26029
    209       0.00000           0.083445            2.27065
    210       0.00000           0.089207            2.42745
    211       0.00000           0.090873            2.47277
    212       0.00000           0.097326            2.64837
    213       0.00000           0.098682            2.68529
    214       0.00000           0.100218            2.72708
    215       0.00000           0.102826            2.79805
    216       0.00000           0.104381            2.84035
    217       0.00000           0.108784            2.96015
    218       0.00000           0.111765            3.04127
    219       0.00000           0.118126            3.21436
    220       0.00000           0.118838            3.23376
    221       0.00000           0.123835            3.36973
    222       0.00000           0.131818            3.58696
    223       0.00000           0.135002            3.67360
    224       0.00000           0.136027            3.70147
    225       0.00000           0.149126            4.05792
    226       0.00000           0.157406            4.28323
    227       0.00000           0.162192            4.41346
    228       0.00000           0.168864            4.59501
    229       0.00000           0.169650            4.61641
    230       0.00000           0.183105            4.98255
    231       0.00000           0.188126            5.11917
    232       0.00000           0.191908            5.22209
    233       0.00000           0.194151            5.28312
    234       0.00000           0.201657            5.48737
    235       0.00000           0.206844            5.62851
    236       0.00000           0.209061            5.68883
    237       0.00000           0.212062            5.77051
    238       0.00000           0.220619            6.00336
    239       0.00000           0.226426            6.16136
    240       0.00000           0.230300            6.26677
    241       0.00000           0.233662            6.35827
    242       0.00000           0.242081            6.58736
    243       0.00000           0.244150            6.64365
    244       0.00000           0.253421            6.89593
    245       0.00000           0.257887            7.01747
    246       0.00000           0.261939            7.12772
    247       0.00000           0.266449            7.25046
    248       0.00000           0.273990            7.45564
    249       0.00000           0.285556            7.77039
    250       0.00000           0.288134            7.84053
    251       0.00000           0.294136            8.00386
    252       0.00000           0.308188            8.38623
    253       0.00000           0.313269            8.52447
    254       0.00000           0.315803            8.59342
    255       0.00000           0.321904            8.75944
    256       0.00000           0.325220            8.84968
    257       0.00000           0.332883            9.05820
    258       0.00000           0.336516            9.15708
    259       0.00000           0.350828            9.54651
    260       0.00000           0.351720            9.57080
    261       0.00000           0.360637            9.81344
[...]
  |    H      0     4.527807 A      4.527807 A        1.268855E-16 a.u.
  |    H      0     4.527807 A      4.583499 A       -4.900954E-17 a.u.
  |    H      0     4.527807 A      4.583499 A        4.713786E-16 a.u.
  |    H      2     3.678162 A  2.180220E+05 A            0.556529 a.u.
  |    H      1     3.958095 A  1.721251E+08 A            0.841931 a.u.
  |    H      0     4.527807 A  3.866455E+16 A            0.581436 a.u.
  |    O      0     2.043000 A      2.043000 A       -1.436841E-16 a.u.
  |    O      3     3.498446 A      3.498446 A        3.043453E-17 a.u.
  |    O      3     3.498446 A      3.498446 A        1.541443E-16 a.u.
  |    O      0     3.905335 A      3.905335 A        2.173090E-16 a.u.
  |    O      0     3.905335 A      3.905335 A        7.213445E-17 a.u.
  |    O      0     4.101052 A      4.101052 A        2.361718E-16 a.u.
  |    O      1     4.101052 A      4.101052 A        3.235185E-17 a.u.
  |    O      0     4.359549 A      4.359549 A       -5.329475E-17 a.u.
  |    O      1     4.413171 A      4.413171 A        3.261883E-17 a.u.
  |    O      1     4.522403 A      4.522403 A        6.417997E-16 a.u.
  |    O      1     4.522403 A      4.522403 A        4.224783E-16 a.u.
  |    O      2     4.522403 A      4.522403 A       -4.387647E-16 a.u.
  |    O      0     4.522403 A      4.578029 A        2.602039E-16 a.u.
  |    O      0     4.578029 A      4.578029 A        1.226235E-16 a.u.
  |    O      1     4.578029 A      4.578029 A       -6.107316E-16 a.u.
  |    O      1     4.578029 A      4.578029 A       -2.224438E-16 a.u.
  |    O      2     4.578029 A      4.578029 A       -7.020279E-16 a.u.
  |    O      2     4.522403 A      4.578029 A        1.323470E-15 a.u.
  |    O      2     4.578029 A      4.578029 A        7.923696E-16 a.u.
  |    O      2     4.522403 A      4.578029 A       -9.951815E-16 a.u.
  |    O      0     4.578029 A      4.634338 A       -8.813582E-18 a.u.
  |    O      1     4.578029 A      4.634338 A       -3.325386E-17 a.u.
  |    O      1     4.634338 A      4.634338 A        9.588032E-16 a.u.
  |    O      2     4.578029 A      4.634338 A        1.064715E-17 a.u.
  |    O      2     4.578029 A      4.634338 A       -3.770343E-15 a.u.
  |    O      4     3.251020 A  1.511584E+03 A            1.513372 a.u.
  |    O      3     3.541477 A  1.434166E+04 A            4.293220 a.u.
  |    O      2     4.634338 A  5.584435E+05 A            9.352428 a.u.
  |    O      1     4.634338 A  2.821283E+08 A            2.261940 a.u.
  |    O      0     4.578029 A  4.264100E+16 A            0.641234 a.u.

  | Shrink_full_auxil_basis : there are       38  radial auxiliary wave functions
                            accepted and       5 rejected.
  | Shrink_full_auxil_basis : there are totally                4544 partial auxiliary wave functions.
 
  | Maximal number of product basis functions per thread :   256   256
 
  | Minimal total memory requirement for three-center overlap :      10.450 Gbs
  | Number of local auxiliary basis functions on task:      0   256
  | Number of local auxiliary basis functions on task:      1   256
  | Number of local auxiliary basis functions on task:      2   256
  | Number of local auxiliary basis functions on task:      3   256
  | Number of local auxiliary basis functions on task:      4   256
  | Number of local auxiliary basis functions on task:      5   256
  | Number of local auxiliary basis functions on task:      6   256
  | Number of local auxiliary basis functions on task:      7   256
  | Number of local auxiliary basis functions on task:      8   256
  | Number of local auxiliary basis functions on task:      9   256
  | Number of local auxiliary basis functions on task:     10   256
  | Number of local auxiliary basis functions on task:     11   256
  | Number of local auxiliary basis functions on task:     12   256
  | Number of local auxiliary basis functions on task:     13   256
  | Number of local auxiliary basis functions on task:     14   240
  | Number of local auxiliary basis functions on task:     15   240
  | Number of local auxiliary basis functions on task:     16   240
  | Number of local auxiliary basis functions on task:     17   240
  | 2D aux task distribution:      3 X      6
  | 2D block size (nb_aux_2d):     64
 
  Basis pair condensation :    295296  -->     220667
 
 --------------------------------------------
  Constructing auxiliary basis (full product) ...
 
  Product basis:
  | charge radius: extent of product basis function
  | field radius: extent of its Coulomb potential
  | Species   l  charge radius    field radius  multipol momen
  |    H      1     3.910002 A      3.910002 A       -2.487223E-16 a.u.
  |    H      1     3.958095 A      3.958095 A       -2.441841E-16 a.u.
  |    H      0     4.527807 A      4.527807 A        1.268855E-16 a.u.
  |    H      0     4.527807 A      4.583499 A       -4.900954E-17 a.u.
  |    H      0     4.527807 A      4.583499 A        4.713786E-16 a.u.
  |    H      2     3.678162 A  2.180220E+05 A            0.556529 a.u.
  |    H      1     3.958095 A  1.721251E+08 A            0.841931 a.u.
  |    H      0     4.527807 A  3.866455E+16 A            0.581436 a.u.
  |    O      0     2.043000 A      2.043000 A       -1.436841E-16 a.u.
  |    O      3     3.498446 A      3.498446 A        3.043453E-17 a.u.
  |    O      3     3.498446 A      3.498446 A        1.541443E-16 a.u.
  |    O      0     3.905335 A      3.905335 A        2.173090E-16 a.u.
  |    O      0     3.905335 A      3.905335 A        7.213445E-17 a.u.
  |    O      0     4.101052 A      4.101052 A        2.361718E-16 a.u.
  |    O      1     4.101052 A      4.101052 A        3.235185E-17 a.u.
  |    O      0     4.359549 A      4.359549 A       -5.329475E-17 a.u.
  |    O      1     4.413171 A      4.413171 A        3.261883E-17 a.u.
  |    O      1     4.522403 A      4.522403 A        6.417997E-16 a.u.
  |    O      1     4.522403 A      4.522403 A        4.224783E-16 a.u.
  |    O      2     4.522403 A      4.522403 A       -4.387647E-16 a.u.
  |    O      0     4.522403 A      4.578029 A        2.602039E-16 a.u.
  |    O      0     4.578029 A      4.578029 A        1.226235E-16 a.u.
  |    O      1     4.578029 A      4.578029 A       -6.107316E-16 a.u.
  |    O      1     4.578029 A      4.578029 A       -2.224438E-16 a.u.
  |    O      2     4.578029 A      4.578029 A       -7.020279E-16 a.u.
  |    O      2     4.522403 A      4.578029 A        1.323470E-15 a.u.
  |    O      2     4.578029 A      4.578029 A        7.923696E-16 a.u.
  |    O      2     4.522403 A      4.578029 A       -9.951815E-16 a.u.
  |    O      0     4.578029 A      4.634338 A       -8.813582E-18 a.u.
  |    O      1     4.578029 A      4.634338 A       -3.325386E-17 a.u.
  |    O      1     4.634338 A      4.634338 A        9.588032E-16 a.u.
  |    O      2     4.578029 A      4.634338 A        1.064715E-17 a.u.
  |    O      2     4.578029 A      4.634338 A       -3.770343E-15 a.u.
  |    O      4     3.251020 A  1.511584E+03 A            1.513372 a.u.
  |    O      3     3.541477 A  1.434166E+04 A            4.293220 a.u.
  |    O      2     4.634338 A  5.584435E+05 A            9.352428 a.u.
  |    O      1     4.634338 A  2.821283E+08 A            2.261940 a.u.
  |    O      0     4.578029 A  4.264100E+16 A            0.641234 a.u.

  | Shrink_full_auxil_basis : there are       38  radial auxiliary wave functions
                            accepted and       5 rejected.
  | Shrink_full_auxil_basis : there are totally                4544 partial auxiliary wave functions.
 
  | Maximal number of product basis functions per thread :   256   256
 
  | Minimal total memory requirement for three-center overlap :      10.450 Gbs
  | Number of local auxiliary basis functions on task:      0   256
  | Number of local auxiliary basis functions on task:      1   256
  | Number of local auxiliary basis functions on task:      2   256
  | Number of local auxiliary basis functions on task:      3   256
  | Number of local auxiliary basis functions on task:      4   256
  | Number of local auxiliary basis functions on task:      5   256
  | Number of local auxiliary basis functions on task:      6   256
  | Number of local auxiliary basis functions on task:      7   256
  | Number of local auxiliary basis functions on task:      8   256
  | Number of local auxiliary basis functions on task:      9   256
  | Number of local auxiliary basis functions on task:     10   256
  | Number of local auxiliary basis functions on task:     11   256
  | Number of local auxiliary basis functions on task:     12   256
  | Number of local auxiliary basis functions on task:     13   256
  | Number of local auxiliary basis functions on task:     14   240
  | Number of local auxiliary basis functions on task:     15   240
  | Number of local auxiliary basis functions on task:     16   240
  | Number of local auxiliary basis functions on task:     17   240
  | 2D aux task distribution:      3 X      6
  | 2D block size (nb_aux_2d):     64
 
  Basis pair condensation :    295296  -->     220667
dP_dE (Bohr^3) at every cycle:--->
 (345.025042795353,0.000000000000000E+000) (-5.97625507577923,0.000000000000000E+000) (-1.41839101066559,0.000000000000000E+000)
 (-5.97230929628766,0.000000000000000E+000) (332.445214629774,0.000000000000000E+000) (-6.57466578778558,0.000000000000000E+000)
 (-1.41618151739954,0.000000000000000E+000) (-6.58913941607233,0.000000000000000E+000) (346.863104190982,0.000000000000000E+000)
DFPT polarizability (Bohr^3)        xx        yy        zz        xy        xz        yz
  | Polarizability:--->                       345.025042795                  332.445214630                  346.863104191                   -5.976255076                   -1.418391011                   -6.574665788

DFPT for dielectric_constant:--->  # PARSE DFPT_dielectric_tensor
               1.687758990939154            -0.011912825594375            -0.002827363377305
              -0.011904960236836             1.662682869347369            -0.013105673348620
              -0.002822959062630            -0.013134524494917             1.691422908318889

                                               :  max(cpu_time)    wall_clock(cpu1)
  | Time for  dielectric calculation            :        0.001 s           0.001 s
===========================================================================

------------------------------------------------------------------------------
  Final output of selected total energy values:

  The following output summarizes some interesting total energy values
  at the end of a run (AFTER all relaxation, molecular dynamics, etc.).

  | Total energy of the DFT / Hartree-Fock s.c.f. calculation      :         -66105.260089470 eV
  | Final zero-broadening corrected energy (caution - metals only) :         -66105.260089470 eV
  | For reference only, the value of 1 Hartree used in FHI-aims is :             27.211384500 eV
  | For reference only, the overall average (free atom contribution
  | + realspace contribution) of the electrostatic potential after
  | s.c.f. convergence is                                          :             -5.138039773 eV

  Before relying on these values, please be sure to understand exactly which
  total energy value is referred to by a given number. Different objects may
  all carry the same name 'total energy'. Definitions:

  Total energy of the DFT / Hartree-Fock s.c.f. calculation:
  | Note that this energy does not include ANY quantities calculated after the
  | s.c.f. cycle, in particular not ANY RPA, MP2, etc. many-body perturbation terms.

  Final zero-broadening corrected energy:
  | For metallic systems only, a broadening of the occupation numbers at the Fermi
  | level can be extrapolated back to zero broadening by an electron-gas inspired
  | formula. For all systems that are not real metals, this value can be
  | meaningless and should be avoided.

------------------------------------------------------------------------------
  Methods described in the following list of references were used in this FHI-aims run.
  If you publish the results, please make sure to cite these reference if they apply.
  FHI-aims is an academic code, and for our developers (often, Ph.D. students
  and postdocs), scientific credit in the community is essential.
  Thank you for helping us!

  For any use of FHI-aims, please cite:

    Volker Blum, Ralf Gehrke, Felix Hanke, Paula Havu, Ville Havu,
    Xinguo Ren, Karsten Reuter, and Matthias Scheffler
    'Ab initio molecular simulations with numeric atom-centered orbitals'
    Computer Physics Communications 180, 2175-2196 (2009)
    http://doi.org/10.1016/j.cpc.2009.06.022


  For Hartree-Fock, hybrid functionals, or many-body perturbation theory used in your run, please cite:

    Xinguo Ren, Patrick Rinke, Volker Blum, Juergen Wieferink, Alex Tkatchenko,
    Andrea Sanfilippo, Karsten Reuter, and Matthias Scheffler,
    'Resolution-of-identity approach to Hartree-Fock, hybrid density functionals,
    RPA, MP2, and GW with numeric atom-centered orbital basis functions'
    New Journal of Physics 14, 053020 (2012).
    http://doi.org/10.1088/1367-2630/14/5/053020


  The provided symmetry information was generated with SPGlib:

    Atsushi Togo, Yusuke Seto, Dimitar Pashov
    SPGlib 1.7.3 obtained from http://spglib.sourceforge.net
    Copyright (C) 2008 Atsushi Togo


  The DFPT (perturbation by an electric field) part of the code was used.
  Here is the corresponding reference:

    Honghui Shang, Nathaniel Raimbault, Mariana Rossi,
    Christian Carbogno, Patrick Rinke and Matthias Scheffler,
    'All-Electron, Real-Space Perturbation Theory for Homogeneous
    Electric Fields: Theory, Implementation, and Application within dft'
    New Journal of Physics, 20(7):073040, 2018


  The ELSI infrastructure was used in your run to solve the Kohn-Sham electronic structure.
  Please check out http://elsi-interchange.org to learn more.
  If scalability is important for your project, please acknowledge ELSI by citing:

    V. W-z. Yu, F. Corsetti, A. Garcia, W. P. Huhn, M. Jacquelin, W. Jia,
    B. Lange, L. Lin, J. Lu, W. Mi, A. Seifitokaldani, A. Vazquez-Mayagoitia,
    C. Yang, H. Yang, and V. Blum
    'ELSI: A unified software interface for Kohn-Sham electronic structure solvers'
    Computer Physics Communications 222, 267-285 (2018).
    http://doi.org/10.1016/j.cpc.2017.09.007


  For the real-space grid partitioning and parallelization used in this calculation, please cite:

    Ville Havu, Volker Blum, Paula Havu, and Matthias Scheffler,
    'Efficient O(N) integration for all-electron electronic structure calculation'
    'using numerically tabulated basis functions'
    Journal of Computational Physics 228, 8367-8379 (2009).
    http://doi.org/10.1016/j.jcp.2009.08.008


  The high-level electronic structure method used in your calculation
  employed our efficient localized resolution of identity for the Coulomb operator.
  Some calculations, especially large-scale hybrid density functional theory,
  are only possible thanks to this development. For this feature, please cite:

    Arvid Ihrig, Juergen Wieferink, Igor Ying Zhang, Matti Ropo, Xinguo Ren,
    Patrick Rinke, Matthias Scheffler, and Volker Blum,
    'Accurate localized resolution of identity approach for linear-scaling
    hybrid density functionals and for many-body perturbation theory'
    New Journal of Physics 117, 093020 (2015).
    http://doi.org/10.1088/1367-2630/17/9/093020

  Of course, there are many other important community references, e.g., those cited in the
  above references. Our list is limited to references that describe implementations in the
  FHI-aims code. The reason is purely practical (length of this list) - please credit others as well.

------------------------------------------------------------
          Leaving FHI-aims.
          Date     :  20230221, Time     :  163649.836

          Computational steps:
          | Number of self-consistency cycles          :           45
          | Number of SCF (re)initializations          :            1
          | Number of coupled perturbed self-consistency cycles          :            0
          | Number of CPSCF (re)initializations          :            0

          Detailed time accounting                     :  max(cpu_time)    wall_clock(cpu1)
          | Total time                                  :      499.996 s         510.785 s
          | GPU initialization                          :        1.692 s           9.466 s
          | Preparation time                            :        0.069 s           0.062 s
          | Boundary condition initalization            :        1.290 s           1.290 s
          | Grid partitioning                           :        0.414 s           0.415 s
          | Preloading free-atom quantities on grid     :        2.583 s           2.584 s
          | Free-atom superposition energy              :        0.290 s           0.290 s
          | Total time for integrations                 :       12.649 s          12.821 s
          | Product basis setup: Total time             :        0.000 s           0.000 s
          | Product basis: | 2-center integrations     :(       0.000 s)  (       0.000 s)
          | Product basis: | LVL 3-center & coefficient:(       0.000 s)  (       0.000 s)
          | Total time for solution of K.-S. equations  :        2.247 s           4.438 s
          | Total time for density update               :        8.873 s           9.146 s
          | Total time for mixing & preconditioning     :        8.357 s           8.358 s
          | Total time for Hartree multipole update     :        0.097 s           0.099 s
          | Total time for Hartree multipole sum        :       35.940 s          35.951 s
          | Total time for total energy evaluation      :        0.005 s           0.012 s
          | Total time for DFPT                         :      424.577 s         424.747 s
          | Total time first_order_DM                   :        0.327 s           0.331 s
          | Total time first_order_density              :       89.464 s          89.477 s
          | Total time first_order_potential            :       54.120 s          54.142 s
          | Total time first_order_H                    :      179.862 s         179.928 s
          | Total time solving of Sternheimer equations :        0.202 s           0.202 s
          | Total time for dielectric constant          :        0.001 s           0.001 s
          | Total time momentum matrix                  :        0.000 s           0.000 s

          GPU acceleration has been used for charge density update.
          GPU acceleration has been used for real-space Hamiltonian integration.
          Due to GPU usage, wall_clock(cpu1) will give a more reliable estimate for timings.

          Partial memory accounting:
          | Residual value for overall tracked memory usage across tasks:     0.000000 MB (should be 0.000000 MB)
          | Peak values for overall tracked memory usage:
          |   Minimum:      121.829 MB (on task  0 after allocating DFPT_pulay_mixing::pulay_mix::alphas)
          |   Maximum:      121.829 MB (on task  0 after allocating DFPT_pulay_mixing::pulay_mix::alphas)
          |   Average:      121.829 MB
          | Largest tracked array allocation:
          |   Minimum:       43.464 MB (DFPT_pulay_mixing::initialize_pulay_mixing::X_in_diffs on task  0)
          |   Maximum:       43.464 MB (DFPT_pulay_mixing::initialize_pulay_mixing::X_in_diffs on task  0)
          |   Average:       43.464 MB
          Note:  These values currently only include a subset of arrays which are explicitly tracked.
          The "true" memory usage will be greater.

          Have a nice day.
------------------------------------------------------------
