------------------------------------------------------------
          Invoking FHI-aims ...

          When using FHI-aims, please cite the following reference:

            Volker Blum, Ralf Gehrke, Felix Hanke, Paula Havu,
            Ville Havu, Xinguo Ren, Karsten Reuter, and Matthias Scheffler,
            'Ab Initio Molecular Simulations with Numeric Atom-Centered Orbitals',
            Computer Physics Communications 180, 2175-2196 (2009)

          In addition, many other developments in FHI-aims are likely important for
          your particular application. A partial list of references is given at the end of
          this file. Thank you for giving credit to the authors of these developments.

          For any questions about FHI-aims, please visit our slack channel at

            https://fhi-aims.slack.com

          and our main development and support site at

            https://aims-git.rz-berlin.mpg.de .

          The latter site, in particular, has a wiki to collect information, as well
          as an issue tracker to log discussions, suggest improvements, and report issues
          or bugs. https://aims-git.rz-berlin.mpg.de is also the main development site
          of the project and all new and updated code versions can be obtained there.
          Please send an email to aims-coordinators@fhi-berlin.mpg.de and we will add
          you to these sites. They are for you and everyone is welcome there.

------------------------------------------------------------



  Date     :  20230221, Time     :  121529.737
  Time zero on CPU 1             :   0.102788600000000E+01  s.
  Internal wall clock time zero  :           446213729.737  s.

  FHI-aims created a unique identifier for this run for later identification
  aims_uuid : F2B0BCDD-4AF2-43C6-A49D-799C924E50D1

  Build configuration of the current instance of FHI-aims
  -------------------------------------------------------
  FHI-aims version      : 221103
  Commit number         : 42523251a
  CMake host system     : Linux-5.3.18-150300.59.68-default
  CMake version         : 3.17.0
  Fortran compiler      : /mpcdf/soft/SLE_15/packages/x86_64/intel_oneapi/2021.3/mpi/2021.3.0/bin/mpiifort (Intel) version 20.2.3.20210609
  Fortran compiler flags: -O3 -ip -fp-model precise
  C compiler            : /mpcdf/soft/SLE_15/packages/x86_64/intel/2021.3.0/bin/icc (Intel) version 20.2.3.20210609
  C compiler flags      : -O3 -ip -fp-model precise -std=gnu99
  CUDA compiler         : /mpcdf/soft/SLE_15/packages/x86_64/cuda/11.6.2/bin/nvcc
  CUDA compiler flags   : -O3 -DAdd_ -lcublas
  HIP compiler          :
  HIP compiler flags    :
  HIP GPU arch          :
  ELPA2 kernel          : AVX512
  Using MPI
  Using ScaLAPACK
  Using LibXC
  Using CUDA
  Using i-PI
  Using RLSY
  Linking against: /mpcdf/soft/SLE_15/packages/x86_64/cuda/11.6.2/lib64/libcublas.so
                   /mpcdf/soft/SLE_15/packages/x86_64/cuda/11.6.2/lib64/libcudart.so
                   /mpcdf/soft/SLE_15/packages/x86_64/intel_oneapi/2021.3/mkl/latest/lib/intel64/libmkl_intel_lp64.so
                   /mpcdf/soft/SLE_15/packages/x86_64/intel_oneapi/2021.3/mkl/latest/lib/intel64/libmkl_sequential.so
                   /mpcdf/soft/SLE_15/packages/x86_64/intel_oneapi/2021.3/mkl/latest/lib/intel64/libmkl_core.so
                   /mpcdf/soft/SLE_15/packages/x86_64/intel_oneapi/2021.3/mkl/latest/lib/intel64/libmkl_blacs_intelmpi_lp64.so
                   /mpcdf/soft/SLE_15/packages/x86_64/intel_oneapi/2021.3/mkl/latest/lib/intel64/libmkl_scalapack_lp64.so

  Using       18 parallel tasks.
  Task        0 on host adag037 reporting.
  Task        1 on host adag037 reporting.
  Task        2 on host adag037 reporting.
  Task        3 on host adag037 reporting.
  Task        4 on host adag037 reporting.
  Task        5 on host adag037 reporting.
  Task        6 on host adag037 reporting.
  Task        7 on host adag037 reporting.
  Task        8 on host adag037 reporting.
  Task        9 on host adag037 reporting.
  Task       10 on host adag037 reporting.
  Task       11 on host adag037 reporting.
  Task       12 on host adag037 reporting.
  Task       13 on host adag037 reporting.
  Task       14 on host adag037 reporting.
  Task       15 on host adag037 reporting.
  Task       16 on host adag037 reporting.
  Task       17 on host adag037 reporting.

  Obtaining array dimensions for all initial allocations:
  
  -----------------------------------------------------------------------
  Parsing control.in (first pass over file, find array dimensions only).
  The contents of control.in will be repeated verbatim below
  unless switched off by setting 'verbatim_writeout .false.' .
  in the first line of control.in .
  -----------------------------------------------------------------------
  
  #########################################################################################
  #
  #  Volker Blum, 2017 : Test run input file control.in for simple H2O
  #
  #########################################################################################
  #
  #  Physical model
  #
    xc                 pw-lda
    spin               none
    relativistic       none
    charge             0.
  
    use_gpu
  
    DFPT dielectric
    ri_density_restart write
    ri_rho1 write
  #  ri_density_restart read 0
  #  ri_rho1 read
    ri_full_output .true.
    sc_accuracy_rho    1d-6
  #  use_calculate_fock_matrix_old .false.
  #  wave_threshold 1e-8
    k_grid 1 1 1
  #  output cube eigenstate 160
  #  output cube eigenstate 161
    wave_threshold 1e-8
    default_prodbas_acc 1e-6
    default_max_l_prodbas 6
  #
  #  Relaxation
  #
  #  relax_geometry   bfgs 1.e-2
  #
  
  ################################################################################
  
  
  ################################################################################
  #
  #  FHI-aims code project
  #  VB, Fritz-Haber Institut, 2009
  #
  #  Suggested "light" defaults for H atom (to be pasted into control.in file)
  #  Be sure to double-check any results obtained with these settings for post-processing,
  #  e.g., with the "tight" defaults and larger basis sets.
  #
  ################################################################################
    species        H
  #     global species definitions
      nucleus             1
      mass                1.00794
  #
      l_hartree           4
  #
      cut_pot             3.5  1.5  1.0
      basis_dep_cutoff    1e-4
  #
      radial_base         24 5.0
      radial_multiplier   1
      angular_grids       specified
        division   0.2421   50
        division   0.3822  110
        division   0.4799  194
        division   0.5341  302
  #      division   0.5626  434
  #      division   0.5922  590
  #      division   0.6542  770
  #      division   0.6868 1202
  #      outer_grid  770
        outer_grid  302
  ################################################################################
  #
  #  Definition of "minimal" basis
  #
  ################################################################################
  #     valence basis states
      valence      1  s   1.
  #     ion occupancy
      ion_occ      1  s   0.5
  ################################################################################
  #
  #  Suggested additional basis functions. For production calculations,
  #  uncomment them one after another (the most important basis functions are
  #  listed first).
  #
  #  Basis constructed for dimers: 0.5 A, 0.7 A, 1.0 A, 1.5 A, 2.5 A
  #
  ################################################################################
  #  "First tier" - improvements: -1014.90 meV to -62.69 meV
       hydro 2 s 2.1
       hydro 2 p 3.5
  #  "Second tier" - improvements: -12.89 meV to -1.83 meV
  #     hydro 1 s 0.85
  #     hydro 2 p 3.7
  #     hydro 2 s 1.2
  #     hydro 3 d 7
  #  "Third tier" - improvements: -0.25 meV to -0.12 meV
  #     hydro 4 f 11.2
  #     hydro 3 p 4.8
  #     hydro 4 d 9
  #     hydro 3 s 3.2
  ################################################################################
  #
  #  FHI-aims code project
  #  VB, Fritz-Haber Institut, 2009
  #
  #  Suggested "light" defaults for O atom (to be pasted into control.in file)
  #  Be sure to double-check any results obtained with these settings for post-processing,
  #  e.g., with the "tight" defaults and larger basis sets.
  #
  ################################################################################
    species        O
  #     global species definitions
      nucleus             8
      mass                15.9994
  #
      l_hartree           4
  #
      cut_pot             3.5  1.5  1.0
      basis_dep_cutoff    1e-4
  #
      radial_base         36 5.0
      radial_multiplier   1
       angular_grids specified
        division   0.2659   50
        division   0.4451  110
        division   0.6052  194
        division   0.7543  302
  #      division   0.8014  434
  #      division   0.8507  590
  #      division   0.8762  770
  #      division   0.9023  974
  #      division   1.2339 1202
  #      outer_grid 974
        outer_grid 302
  ################################################################################
  #
  #  Definition of "minimal" basis
  #
  ################################################################################
  #     valence basis states
      valence      2  s   2.
      valence      2  p   4.
  #     ion occupancy
      ion_occ      2  s   1.
      ion_occ      2  p   3.
  ################################################################################
  #
  #  Suggested additional basis functions. For production calculations,
  #  uncomment them one after another (the most important basis functions are
  #  listed first).
  #
  #  Constructed for dimers: 1.0 A, 1.208 A, 1.5 A, 2.0 A, 3.0 A
  #
  ################################################################################
  #  "First tier" - improvements: -699.05 meV to -159.38 meV
       hydro 2 p 1.8
       hydro 3 d 7.6
       hydro 3 s 6.4
  #  "Second tier" - improvements: -49.91 meV to -5.39 meV
  #     hydro 4 f 11.6
  #     hydro 3 p 6.2
  #     hydro 3 d 5.6
  #     hydro 5 g 17.6
  #     hydro 1 s 0.75
  #  "Third tier" - improvements: -2.83 meV to -0.50 meV
  #     ionic 2 p auto
  #     hydro 4 f 10.8
  #     hydro 4 d 4.7
  #     hydro 2 s 6.8
  #  "Fourth tier" - improvements: -0.40 meV to -0.12 meV
  #     hydro 3 p 5
  #     hydro 3 s 3.3
  #     hydro 5 g 15.6
  #     hydro 4 f 17.6
  #     hydro 4 d 14
  # Further basis functions - -0.08 meV and below
  #     hydro 3 s 2.1
  #     hydro 4 d 11.6
  #     hydro 3 p 16
  #     hydro 2 s 17.2
  
  -----------------------------------------------------------------------
  Completed first pass over input file control.in .
  -----------------------------------------------------------------------
  
  
  -----------------------------------------------------------------------
  Parsing geometry.in (first pass over file, find array dimensions only).
  The contents of geometry.in will be repeated verbatim below
  unless switched off by setting 'verbatim_writeout .false.' .
  in the first line of geometry.in .
  -----------------------------------------------------------------------
  
  #=======================================================
  # FHI-aims file: /ada/ptmp/mpsd/alewis/bulk_water/qmdata/data/geoms/7.in
  # Created using the Atomic Simulation Environment (ASE)
  # Tue Feb 21 11:23:37 2023
  #=======================================================
  lattice_vector 9.9537499999999994 0.0000000000000000 0.0000000000000000
  lattice_vector 0.0000000000000000 9.9537499999999994 0.0000000000000000
  lattice_vector 0.0000000000000000 0.0000000000000000 9.9537499999999994
  atom 7.8493899999999996 2.6934200000000001 4.6172199999999997 O
  atom 8.3667999999999996 1.8341499999999999 4.1947500000000000 H
  atom 8.2001700000000000 3.3658399999999999 4.0970399999999998 H
  atom 11.3745999999999992 14.2516999999999996 -1.7526600000000001 O
  atom 10.6716999999999995 14.0035000000000007 -2.2057300000000000 H
  atom 11.0158000000000005 14.3600999999999992 -0.7945850000000000 H
  atom -1.5486599999999999 3.2531500000000002 7.5887300000000000 O
  atom -2.4513199999999999 3.5758600000000000 7.7597399999999999 H
  atom -1.8324400000000001 2.8832200000000001 6.6288299999999998 H
  atom -2.0078499999999999 6.8401500000000004 8.7303400000000000 O
  atom -1.1482900000000000 6.8681500000000000 8.2250700000000005 H
  atom -2.6612900000000002 6.1260700000000003 8.1446799999999993 H
  atom -13.0756999999999994 -3.3963600000000000 11.0768000000000004 O
  atom -12.6717999999999993 -2.7009799999999999 11.6775000000000002 H
  atom -12.5820000000000007 -3.3233000000000001 10.1515000000000004 H
  atom -0.4696950000000000 1.0241899999999999 18.4023000000000003 O
  atom -0.3193830000000000 0.9562070000000000 19.2973999999999997 H
  atom -0.8573660000000000 1.9477599999999999 18.3672000000000004 H
  atom 7.2336900000000002 2.0784600000000002 1.3586100000000001 O
  atom 6.9203599999999996 1.7462700000000000 0.5803250000000000 H
  atom 7.0096900000000000 1.4213000000000000 2.0778699999999999 H
  atom 2.0049600000000001 4.9389799999999999 -5.3628400000000003 O
  atom 2.4084200000000000 4.5069900000000001 -6.0092699999999999 H
  atom 2.6359800000000000 5.0896900000000000 -4.7432800000000004 H
  atom 3.9749099999999999 5.2986899999999997 -3.3319899999999998 O
  atom 3.2054600000000000 5.0093300000000003 -2.7583099999999998 H
  atom 3.6327699999999998 6.1131000000000002 -3.8881100000000002 H
  atom 7.2070699999999999 -0.5150640000000000 7.5458400000000001 O
  atom 7.8986400000000003 -0.0436680000000000 7.4285199999999998 H
  atom 7.3544400000000003 -1.4444399999999999 7.8262200000000002 H
  atom 2.4775399999999999 7.6169300000000000 -1.3477900000000000 O
  atom 3.3405600000000000 7.9434899999999997 -0.9393990000000000 H
  atom 1.9959700000000000 7.1381899999999998 -0.6885430000000000 H
  atom 4.5808000000000000 -1.5355600000000000 10.2460000000000004 O
  atom 4.9813000000000001 -0.6469510000000001 10.1224000000000007 H
  atom 5.4049199999999997 -2.3951300000000000 10.3451000000000004 H
  atom 1.5823100000000001 -1.6348700000000000 -3.7167500000000002 O
  atom 2.2493599999999998 -2.0228100000000002 -4.1677900000000001 H
  atom 2.1712099999999999 -1.7460500000000001 -2.7555900000000002 H
  atom -1.6814400000000000 8.2360600000000002 2.7674400000000001 O
  atom -1.3158399999999999 9.0689899999999994 3.0141499999999999 H
  atom -0.9478870000000000 7.7054499999999999 2.9774799999999999 H
  atom -6.5487000000000002 7.4102399999999999 4.4282800000000000 O
  atom -6.7198599999999997 7.7192900000000000 3.4672999999999998 H
  atom -5.6170999999999998 7.9684299999999997 4.6603399999999997 H
  atom -10.1390999999999991 10.5554000000000006 3.4015100000000000 O
  atom -9.5476100000000006 10.9863999999999997 4.1850500000000004 H
  atom -9.8616499999999991 11.1929999999999996 2.8383200000000000 H
  atom -4.3131500000000003 8.5680300000000003 5.4560700000000004 O
  atom -3.5630799999999998 9.0127400000000009 6.0299600000000000 H
  atom -3.9638499999999999 7.6922100000000002 5.4032099999999996 H
  atom -0.3572600000000000 -3.4531800000000001 16.7678000000000011 O
  atom 0.2785440000000000 -3.9390600000000000 17.2896000000000001 H
  atom 0.0284080000000000 -2.5747300000000002 16.5320999999999998 H
  atom 5.2433699999999996 4.1581799999999998 1.2613900000000000 O
  atom 5.9948899999999998 3.3502600000000000 1.3120099999999999 H
  atom 5.6661200000000003 5.0801800000000004 1.2701100000000001 H
  atom 1.5494900000000000 1.0810000000000000 -4.3486099999999999 O
  atom 1.6578999999999999 0.0726150000000000 -4.2806699999999998 H
  atom 0.8232570000000000 1.2766900000000001 -3.5727300000000000 H
  atom 16.7605000000000004 6.1575199999999999 5.3022499999999999 O
  atom 16.2818000000000005 5.3943899999999996 4.8747900000000000 H
  atom 17.7101000000000006 5.8964499999999997 5.5727200000000003 H
  atom 3.2294900000000002 11.3483000000000001 3.3227300000000000 O
  atom 2.9656199999999999 11.1911000000000005 4.1635099999999996 H
  atom 4.0742900000000004 10.8353999999999999 3.1587399999999999 H
  atom 6.1459400000000004 10.6698000000000004 13.5787999999999993 O
  atom 6.3593700000000002 11.4022000000000006 14.0386000000000006 H
  atom 6.2560700000000002 9.8323599999999995 13.9275000000000002 H
  atom 3.4274399999999998 1.6404399999999999 8.8151899999999994 O
  atom 3.2447699999999999 2.5777999999999999 8.5965199999999999 H
  atom 2.5107100000000000 1.1018500000000000 8.7683800000000005 H
  atom 0.5263780000000000 -3.2277399999999998 3.1021299999999998 O
  atom 1.1003300000000000 -2.5459000000000001 3.0955400000000002 H
  atom 1.1192800000000001 -3.9270100000000001 3.5050200000000000 H
  atom 2.6418499999999998 -1.2671300000000001 2.0083700000000002 O
  atom 3.3268000000000000 -1.6176999999999999 1.3810700000000000 H
  atom 2.4931000000000001 -0.2401880000000000 2.1062500000000002 H
  atom 5.8305600000000002 10.7690999999999999 9.6366200000000006 O
  atom 6.3557600000000001 10.3462999999999994 8.9063499999999998 H
  atom 4.8577000000000004 11.0466999999999995 9.1069999999999993 H
  atom 8.9125200000000007 4.2889600000000003 2.8710000000000000 O
  atom 8.3943300000000001 4.5896499999999998 2.2556600000000002 H
  atom 9.5390300000000003 4.9115700000000002 3.0527000000000002 H
  atom 6.2214499999999999 14.6715999999999998 8.2241599999999995 O
  atom 5.9016000000000002 14.6866000000000003 9.0255500000000008 H
  atom 5.4633500000000002 14.7818000000000005 7.5611600000000001 H
  atom 1.2799900000000000 5.6395200000000001 0.6967020000000000 O
  atom 1.8902000000000001 5.0261300000000002 1.0800300000000000 H
  atom 0.8079800000000000 6.1878700000000002 1.3317500000000000 H
  atom 12.7318999999999996 3.8791300000000000 2.1417000000000002 O
  atom 12.7896999999999998 2.9943800000000000 2.4513699999999998 H
  atom 13.6706000000000003 3.7743899999999999 1.7475600000000000 H
  atom 10.3971999999999998 2.2388800000000000 1.0842499999999999 O
  atom 11.3399999999999999 2.8259500000000002 1.1487499999999999 H
  atom 9.6085999999999991 2.7721399999999998 1.0953100000000000 H
  
  -----------------------------------------------------------------------
  Completed first pass over input file geometry.in .
  -----------------------------------------------------------------------
  

  Basic array size parameters:
  | Number of species                 :        2
  | Number of atoms                   :       96
  | Number of lattice vectors         :        3
  | Max. basis fn. angular momentum   :        2
  | Max. atomic/ionic basis occupied n:        2
  | Max. number of basis fn. types    :        2
  | Max. radial fns per species/type  :        3
  | Max. logarithmic grid size        :     1301
  | Max. radial integration grid size :       36
  | Max. angular integration grid size:      302
  | Max. angular grid division number :        8
  | Radial grid for Hartree potential :     1301
  | Number of spin channels           :        1

------------------------------------------------------------
          Reading file control.in.
------------------------------------------------------------
  XC: Using Perdew-Wang parametrisation of Ceperley-Alder LDA.
  Spin treatment: No spin polarisation.
  Non-relativistic treatment of kinetic energy.
  Charge =   0.000000E+00: Neutral system requested explicitly.
  DFPT calculation will begin after the DFT/HF calculation.
  Convergence accuracy of self-consistent charge density:  0.1000E-05
  Found k-point grid:         1         1         1
  Threshold value for wave function integration:  0.1000E-07
 
  Reading configuration options for species H                   .
  | Found nuclear charge :   1.0000
  | Found atomic mass :    1.00794000000000      amu
  | Found l_max for Hartree potential  :   4
  | Found cutoff potl. onset [A], width [A], scale factor :    3.50000    1.50000    1.00000
  | Threshold for basis-dependent cutoff potential is   0.100000E-03
  | Found data for basic radial integration grid :    24 points, outermost radius =    5.000 A
  | Found multiplier for basic radial grid :   1
  | Found angular grid specification: user-specified.
  | Specified grid contains     5 separate shells.
  | Check grid settings after all constraints further below.
  | Found free-atom valence shell :  1 s   1.000
  | No ionic wave fns used. Skipping ion_occ.
  | Found hydrogenic basis function :  2 s   2.100
  | Found hydrogenic basis function :  2 p   3.500
  Species H                   : Missing cutoff potential type.
  Defaulting to exp(1/x)/(1-x)^2 type cutoff potential.
  Species H : No 'logarithmic' tag. Using default grid for free atom:
  | Default logarithmic grid data [bohr] : 0.1000E-03 0.1000E+03 0.1012E+01
  Species H : On-site basis accuracy parameter (for Gram-Schmidt orthonormalisation) not specified.
  Using default value basis_acc =  0.1000000E-03.
  Species H                   : Using default innermost maximum threshold i_radial=  2 for radial functions.
  Species H                   : Default cutoff onset for free atom density etc. : 0.35000000E+01 AA.
  Species H                   : Basic radial grid will be enhanced according to radial_multiplier =   1, to contain    24 grid points.
 
  Reading configuration options for species O                   .
  | Found nuclear charge :   8.0000
  | Found atomic mass :    15.9994000000000      amu
  | Found l_max for Hartree potential  :   4
  | Found cutoff potl. onset [A], width [A], scale factor :    3.50000    1.50000    1.00000
  | Threshold for basis-dependent cutoff potential is   0.100000E-03
  | Found data for basic radial integration grid :    36 points, outermost radius =    5.000 A
  | Found multiplier for basic radial grid :   1
  | Found angular grid specification: user-specified.
  | Specified grid contains     5 separate shells.
  | Check grid settings after all constraints further below.
  | Found free-atom valence shell :  2 s   2.000
  | Found free-atom valence shell :  2 p   4.000
  | No ionic wave fns used. Skipping ion_occ.
  | No ionic wave fns used. Skipping ion_occ.
  | Found hydrogenic basis function :  2 p   1.800
  | Found hydrogenic basis function :  3 d   7.600
  | Found hydrogenic basis function :  3 s   6.400
  Species O                   : Missing cutoff potential type.
  Defaulting to exp(1/x)/(1-x)^2 type cutoff potential.
  Species O : No 'logarithmic' tag. Using default grid for free atom:
  | Default logarithmic grid data [bohr] : 0.1000E-03 0.1000E+03 0.1012E+01
  Species O : On-site basis accuracy parameter (for Gram-Schmidt orthonormalisation) not specified.
  Using default value basis_acc =  0.1000000E-03.
  Species O                   : Using default innermost maximum threshold i_radial=  2 for radial functions.
  Species O                   : Default cutoff onset for free atom density etc. : 0.35000000E+01 AA.
  Species O                   : Basic radial grid will be enhanced according to radial_multiplier =   1, to contain    36 grid points.
 
  Finished reading input file 'control.in'.
 
------------------------------------------------------------


------------------------------------------------------------
          Reading geometry description geometry.in.
------------------------------------------------------------
  | The smallest distance between any two atoms is         0.84513149 AA.
  | The first atom of this pair is atom number                     28 .
  | The second atom of this pair is atom number                    29 .
  | Wigner-Seitz cell of the first atom image           0     0     0 .
  | (The Wigner-Seitz cell of the second atom is 0 0 0  by definition.)

  Symmetry information by spglib:
  | Precision set to  0.1E-04
  | Number of Operations  : 1
  | Space group           : 1
  | International         : P1
  | Schoenflies           : C1^1
  Input structure read successfully.
  The structure contains       96 atoms,  and a total of        320.000 electrons.

  Input geometry:
  | Unit cell:
  |        9.95375000        0.00000000        0.00000000
  |        0.00000000        9.95375000        0.00000000
  |        0.00000000        0.00000000        9.95375000
  | Atomic structure:
  |       Atom                x [A]            y [A]            z [A]
  |    1: Species O             7.84939000        2.69342000        4.61722000
  |    2: Species H             8.36680000        1.83415000        4.19475000
  |    3: Species H             8.20017000        3.36584000        4.09704000
  |    4: Species O            11.37460000       14.25170000       -1.75266000
  |    5: Species H            10.67170000       14.00350000       -2.20573000
  |    6: Species H            11.01580000       14.36010000       -0.79458500
  |    7: Species O            -1.54866000        3.25315000        7.58873000
  |    8: Species H            -2.45132000        3.57586000        7.75974000
  |    9: Species H            -1.83244000        2.88322000        6.62883000
  |   10: Species O            -2.00785000        6.84015000        8.73034000
  |   11: Species H            -1.14829000        6.86815000        8.22507000
  |   12: Species H            -2.66129000        6.12607000        8.14468000
  |   13: Species O           -13.07570000       -3.39636000       11.07680000
  |   14: Species H           -12.67180000       -2.70098000       11.67750000
  |   15: Species H           -12.58200000       -3.32330000       10.15150000
  |   16: Species O            -0.46969500        1.02419000       18.40230000
  |   17: Species H            -0.31938300        0.95620700       19.29740000
  |   18: Species H            -0.85736600        1.94776000       18.36720000
  |   19: Species O             7.23369000        2.07846000        1.35861000
  |   20: Species H             6.92036000        1.74627000        0.58032500
  |   21: Species H             7.00969000        1.42130000        2.07787000
  |   22: Species O             2.00496000        4.93898000       -5.36284000
  |   23: Species H             2.40842000        4.50699000       -6.00927000
  |   24: Species H             2.63598000        5.08969000       -4.74328000
  |   25: Species O             3.97491000        5.29869000       -3.33199000
  |   26: Species H             3.20546000        5.00933000       -2.75831000
  |   27: Species H             3.63277000        6.11310000       -3.88811000
  |   28: Species O             7.20707000       -0.51506400        7.54584000
  |   29: Species H             7.89864000       -0.04366800        7.42852000
  |   30: Species H             7.35444000       -1.44444000        7.82622000
  |   31: Species O             2.47754000        7.61693000       -1.34779000
  |   32: Species H             3.34056000        7.94349000       -0.93939900
  |   33: Species H             1.99597000        7.13819000       -0.68854300
  |   34: Species O             4.58080000       -1.53556000       10.24600000
  |   35: Species H             4.98130000       -0.64695100       10.12240000
  |   36: Species H             5.40492000       -2.39513000       10.34510000
  |   37: Species O             1.58231000       -1.63487000       -3.71675000
  |   38: Species H             2.24936000       -2.02281000       -4.16779000
  |   39: Species H             2.17121000       -1.74605000       -2.75559000
  |   40: Species O            -1.68144000        8.23606000        2.76744000
  |   41: Species H            -1.31584000        9.06899000        3.01415000
  |   42: Species H            -0.94788700        7.70545000        2.97748000
  |   43: Species O            -6.54870000        7.41024000        4.42828000
  |   44: Species H            -6.71986000        7.71929000        3.46730000
  |   45: Species H            -5.61710000        7.96843000        4.66034000
  |   46: Species O           -10.13910000       10.55540000        3.40151000
  |   47: Species H            -9.54761000       10.98640000        4.18505000
  |   48: Species H            -9.86165000       11.19300000        2.83832000
  |   49: Species O            -4.31315000        8.56803000        5.45607000
  |   50: Species H            -3.56308000        9.01274000        6.02996000
  |   51: Species H            -3.96385000        7.69221000        5.40321000
  |   52: Species O            -0.35726000       -3.45318000       16.76780000
  |   53: Species H             0.27854400       -3.93906000       17.28960000
  |   54: Species H             0.02840800       -2.57473000       16.53210000
  |   55: Species O             5.24337000        4.15818000        1.26139000
  |   56: Species H             5.99489000        3.35026000        1.31201000
  |   57: Species H             5.66612000        5.08018000        1.27011000
  |   58: Species O             1.54949000        1.08100000       -4.34861000
  |   59: Species H             1.65790000        0.07261500       -4.28067000
  |   60: Species H             0.82325700        1.27669000       -3.57273000
  |   61: Species O            16.76050000        6.15752000        5.30225000
  |   62: Species H            16.28180000        5.39439000        4.87479000
  |   63: Species H            17.71010000        5.89645000        5.57272000
  |   64: Species O             3.22949000       11.34830000        3.32273000
  |   65: Species H             2.96562000       11.19110000        4.16351000
  |   66: Species H             4.07429000       10.83540000        3.15874000
  |   67: Species O             6.14594000       10.66980000       13.57880000
  |   68: Species H             6.35937000       11.40220000       14.03860000
  |   69: Species H             6.25607000        9.83236000       13.92750000
  |   70: Species O             3.42744000        1.64044000        8.81519000
  |   71: Species H             3.24477000        2.57780000        8.59652000
  |   72: Species H             2.51071000        1.10185000        8.76838000
  |   73: Species O             0.52637800       -3.22774000        3.10213000
  |   74: Species H             1.10033000       -2.54590000        3.09554000
  |   75: Species H             1.11928000       -3.92701000        3.50502000
  |   76: Species O             2.64185000       -1.26713000        2.00837000
  |   77: Species H             3.32680000       -1.61770000        1.38107000
  |   78: Species H             2.49310000       -0.24018800        2.10625000
  |   79: Species O             5.83056000       10.76910000        9.63662000
  |   80: Species H             6.35576000       10.34630000        8.90635000
  |   81: Species H             4.85770000       11.04670000        9.10700000
  |   82: Species O             8.91252000        4.28896000        2.87100000
  |   83: Species H             8.39433000        4.58965000        2.25566000
  |   84: Species H             9.53903000        4.91157000        3.05270000
  |   85: Species O             6.22145000       14.67160000        8.22416000
  |   86: Species H             5.90160000       14.68660000        9.02555000
  |   87: Species H             5.46335000       14.78180000        7.56116000
  |   88: Species O             1.27999000        5.63952000        0.69670200
  |   89: Species H             1.89020000        5.02613000        1.08003000
  |   90: Species H             0.80798000        6.18787000        1.33175000
  |   91: Species O            12.73190000        3.87913000        2.14170000
  |   92: Species H            12.78970000        2.99438000        2.45137000
  |   93: Species H            13.67060000        3.77439000        1.74756000
  |   94: Species O            10.39720000        2.23888000        1.08425000
  |   95: Species H            11.34000000        2.82595000        1.14875000
  |   96: Species H             9.60860000        2.77214000        1.09531000

  Lattice parameters for 3D lattice (in Angstroms) :     9.953750    9.953750    9.953750
  Angle(s) between unit vectors (in degrees)       :    90.000000   90.000000   90.000000


  Quantities derived from the lattice vectors (in Angstrom^-1):
  | Reciprocal lattice vector 1:  0.631238  0.000000  0.000000
  | Reciprocal lattice vector 2:  0.000000  0.631238  0.000000
  | Reciprocal lattice vector 3:  0.000000  0.000000  0.631238
  | Unit cell volume                               :   0.986189E+03  Angstrom^3

  Fractional coordinates:
                         L1                L2                L3
       atom_frac         0.78858621        0.27059349        0.46386739  O
       atom_frac         0.84056763        0.18426724        0.42142409  H
       atom_frac         0.82382720        0.33814793        0.41160769  H
       atom_frac         1.14274520        1.43179204       -0.17608037  O
       atom_frac         1.07212859        1.40685671       -0.22159789  H
       atom_frac         1.10669848        1.44268241       -0.07982770  H
       atom_frac        -0.15558558        0.32682657        0.76239910  O
       atom_frac        -0.24627100        0.35924752        0.77957956  H
       atom_frac        -0.18409544        0.28966169        0.66596308  H
       atom_frac        -0.20171795        0.68719327        0.87709054  O
       atom_frac        -0.11536255        0.69000628        0.82632877  H
       atom_frac        -0.26736557        0.61545347        0.81825242  H
       atom_frac        -1.31364561       -0.34121412        1.11282682  O
       atom_frac        -1.27306794       -0.27135301        1.17317594  H
       atom_frac        -1.26404621       -0.33387417        1.01986688  H
       atom_frac        -0.04718774        0.10289489        1.84878061  O
       atom_frac        -0.03208670        0.09606500        1.93870652  H
       atom_frac        -0.08613497        0.19568102        1.84525430  H
       atom_frac         0.72673013        0.20881175        0.13649228  O
       atom_frac         0.69525154        0.17543840        0.05830215  H
       atom_frac         0.70422605        0.14279041        0.20875248  H
       atom_frac         0.20142760        0.49619289       -0.53877584  O
       atom_frac         0.24196107        0.45279317       -0.60371920  H
       atom_frac         0.26482281        0.51133392       -0.47653196  H
       atom_frac         0.39933794        0.53233103       -0.33474721  O
       atom_frac         0.32203541        0.50326058       -0.27711265  H
       atom_frac         0.36496496        0.61415045       -0.39061761  H
       atom_frac         0.72405576       -0.05174572        0.75809017  O
       atom_frac         0.79353410       -0.00438709        0.74630365  H
       atom_frac         0.73886123       -0.14511516        0.78625845  H
       atom_frac         0.24890519        0.76523220       -0.13540525  O
       atom_frac         0.33560819        0.79803993       -0.09437639  H
       atom_frac         0.20052443        0.71713575       -0.06917423  H
       atom_frac         0.46020846       -0.15426950        1.02936079  O
       atom_frac         0.50044456       -0.06499571        1.01694336  H
       atom_frac         0.54300339       -0.24062589        1.03931684  H
       atom_frac         0.15896622       -0.16424664       -0.37340198  O
       atom_frac         0.22598116       -0.20322090       -0.41871556  H
       atom_frac         0.21812985       -0.17541630       -0.27683938  H
       atom_frac        -0.16892528        0.82743288        0.27802989  O
       atom_frac        -0.13219540        0.91111290        0.30281552  H
       atom_frac        -0.09522913        0.77412533        0.29913148  H
       atom_frac        -0.65791285        0.74446716        0.44488560  O
       atom_frac        -0.67510838        0.77551576        0.34834108  H
       atom_frac        -0.56431998        0.80054552        0.46819942  H
       atom_frac        -1.01862112        1.06044456        0.34173151  O
       atom_frac        -0.95919729        1.10374482        0.42044958  H
       atom_frac        -0.99074721        1.12450082        0.28515082  H
       atom_frac        -0.43331910        0.86078413        0.54814216  O
       atom_frac        -0.35796358        0.90546176        0.60579781  H
       atom_frac        -0.39822680        0.77279518        0.54283160  H
       atom_frac        -0.03589200       -0.34692252        1.68457114  O
       atom_frac         0.02798383       -0.39573628        1.73699360  H
       atom_frac         0.00285400       -0.25866935        1.66089162  H
       atom_frac         0.52677333        0.41775009        0.12672510  O
       atom_frac         0.60227452        0.33658269        0.13181062  H
       atom_frac         0.56924476        0.51037850        0.12760116  H
       atom_frac         0.15566897        0.10860229       -0.43688158  O
       atom_frac         0.16656034        0.00729524       -0.43005601  H
       atom_frac         0.08270823        0.12826221       -0.35893307  H
       atom_frac         1.68383775        0.61861309        0.53268869  O
       atom_frac         1.63574532        0.54194550        0.48974407  H
       atom_frac         1.77923898        0.59238478        0.55986136  H
       atom_frac         0.32444958        1.14010298        0.33381690  O
       atom_frac         0.29793997        1.12430993        0.41828557  H
       atom_frac         0.40932211        1.08857466        0.31734171  H
       atom_frac         0.61744970        1.07193771        1.36418938  O
       atom_frac         0.63889187        1.14551802        1.41038302  H
       atom_frac         0.62851388        0.98780460        1.39922140  H
       atom_frac         0.34433656        0.16480623        0.88561497  O
       atom_frac         0.32598468        0.25897777        0.86364636  H
       atom_frac         0.25223760        0.11069697        0.88091222  H
       atom_frac         0.05288238       -0.32427377        0.31165440  O
       atom_frac         0.11054427       -0.25577295        0.31099234  H
       atom_frac         0.11244807       -0.39452568        0.35213060  H
       atom_frac         0.26541253       -0.12730177        0.20177019  O
       atom_frac         0.33422579       -0.16252166        0.13874871  H
       atom_frac         0.25046842       -0.02413040        0.21160367  H
       atom_frac         0.58576516        1.08191385        0.96813965  O
       atom_frac         0.63852920        1.03943740        0.89477333  H
       atom_frac         0.48802713        1.10980284        0.91493156  H
       atom_frac         0.89539319        0.43088886        0.28843401  O
       atom_frac         0.84333342        0.46109758        0.22661409  H
       atom_frac         0.95833530        0.49343916        0.30668843  H
       atom_frac         0.62503579        1.47397714        0.82623735  O
       atom_frac         0.59290217        1.47548411        0.90674871  H
       atom_frac         0.54887354        1.48504835        0.75962929  H
       atom_frac         0.12859375        0.56657240        0.06999392  O
       atom_frac         0.18989828        0.50494839        0.10850483  H
       atom_frac         0.08117343        0.62166219        0.13379380  H
       atom_frac         1.27910586        0.38971543        0.21516514  O
       atom_frac         1.28491272        0.30082934        0.24627603  H
       atom_frac         1.37341203        0.37919277        0.17556800  H
       atom_frac         1.04455105        0.22492829        0.10892880  O
       atom_frac         1.13926912        0.28390807        0.11540877  H
       atom_frac         0.96532463        0.27850207        0.11003993  H

 
  Finished reading input file 'geometry.in'.
 

 
  Consistency checks for stacksize environment parameter are next.
 
  | Maximum stacksize for task 0: unlimited
  | Maximum stacksize for task 1: unlimited
  | Maximum stacksize for task 2: unlimited
  | Maximum stacksize for task 3: unlimited
  | Maximum stacksize for task 4: unlimited
  | Maximum stacksize for task 5: unlimited
  | Maximum stacksize for task 6: unlimited
  | Maximum stacksize for task 7: unlimited
  | Maximum stacksize for task 8: unlimited
  | Maximum stacksize for task 9: unlimited
  | Maximum stacksize for task 10: unlimited
  | Maximum stacksize for task 11: unlimited
  | Maximum stacksize for task 12: unlimited
  | Maximum stacksize for task 13: unlimited
  | Maximum stacksize for task 14: unlimited
  | Maximum stacksize for task 15: unlimited
  | Maximum stacksize for task 16: unlimited
  | Maximum stacksize for task 17: unlimited
  | Current stacksize for task 0: unlimited
  | Current stacksize for task 1: unlimited
  | Current stacksize for task 2: unlimited
  | Current stacksize for task 3: unlimited
  | Current stacksize for task 4: unlimited
  | Current stacksize for task 5: unlimited
  | Current stacksize for task 6: unlimited
  | Current stacksize for task 7: unlimited
  | Current stacksize for task 8: unlimited
  | Current stacksize for task 9: unlimited
  | Current stacksize for task 10: unlimited
  | Current stacksize for task 11: unlimited
  | Current stacksize for task 12: unlimited
  | Current stacksize for task 13: unlimited
  | Current stacksize for task 14: unlimited
  | Current stacksize for task 15: unlimited
  | Current stacksize for task 16: unlimited
  | Current stacksize for task 17: unlimited
 
  Consistency checks for the contents of control.in are next.
 
  MPI_IN_PLACE appears to work with this MPI implementation.
  | Keeping use_mpi_in_place .true. (see manual).
  Explicit treatment of the Coulomb operator is needed, but the RI method is not specified.
  Coulomb operator: Defaulting to 'LVL fast' resolution of identity - RI_type = LVL_fast
  Species H: Using default value for prodbas_acc =   1.000000E-06.
  Species H: Using default value max_l_prodbas =     6.
  Species O: Using default value for prodbas_acc =   1.000000E-06.
  Species O: Using default value max_l_prodbas =     6.
  Target number of points in a grid batch is not set.  Since GPU acceleration is enabled, defaulting to  200
  Method for grid partitioning is not set. Defaulting to parallel hash+maxmin partitioning.
  Batch size limit is not set. Defaulting to    200
  By default, will store active basis functions for each batch.
  If in need of memory, prune_basis_once .false. can be used to disable this option.
  communication_type for Hartree potential was not specified.
  Defaulting to calc_hartree .
  Defaulting to Pulay charge density mixer.
  Pulay mixer: Number of relevant iterations not set.
  Defaulting to    8 iterations.
  Pulay mixer: Number of initial linear mixing iterations not set.
  Defaulting to    0 iterations.
  Work space size for distributed Hartree potential not set.
  Defaulting to   0.200000E+03 MB.
  Mixing parameter for charge density mixing has not been set.
  Using default: charge_mix_param =     0.0500.
  The mixing parameter will be adjusted in iteration number     2 of the first full s.c.f. cycle only.
  Algorithm-dependent basis array size parameters:
  | n_max_pulay                         :        8
  Maximum number of self-consistency iterations not provided.
  Presetting  1000 iterations.
  Presetting      1001 iterations before the initial mixing cycle
  is restarted anyway using the sc_init_iter criterion / keyword.
  Presetting a factor      1.000 between actual scf density residual
  and density convergence criterion sc_accuracy_rho below which sc_init_iter
  takes no effect.
  Calculation of forces was not defined in control.in. No forces will be calculated.
  Geometry relaxation not requested: no relaxation will be performed.
  No accuracy limit for integral partition fn. given. Defaulting to  0.1000E-14.
  No occupation type (smearing scheme) given. Defaulting to Gaussian broadening, width =  0.1000E-01 eV.
  The width will be adjusted in iteration number     2 of the first full s.c.f. cycle only.
  S.C.F. convergence parameters will be adjusted in iteration number     2 of the first full s.c.f. cycle only.
  No accuracy for occupation numbers given. Defaulting to  0.1000E-12.
  No threshold value for occupation numbers given. Defaulting to  0.0000E+00.
  No accuracy for fermi level given. Defaulting to  0.1000E-19.
  Maximum # of iterations to find E_F not set. Defaulting to  200.
  Preferred method for the eigenvalue solver ('KS_method') not specified in 'control.in'.
  Calling BLACS routine to test compilation state
  Since ScaLAPACK support is enabled, defaulting to ELPA (via ELSI).
  Will not use alltoall communication since running on < 1024 CPUs.
  Threshold for basis singularities not set.
  Default threshold for basis singularities:  0.1000E-04
  partition_type (choice of integration weights) for integrals was not specified.
  | Using a version of the partition function of Stratmann and coworkers ('stratmann_sparse').
  | At each grid point, the set of atoms used to build the partition table is smoothly restricted to
  | only those atoms whose free-atom density would be non-zero at that grid point.
  Partitioning for Hartree potential was not defined. Using partition_type for integrals.
  | Adjusted default value of keyword multip_moments_threshold to:       0.10000000E-11
  | This value may affect high angular momentum components of the Hartree potential in periodic systems.
  Angular momentum expansion for Kerker preconditioner not set explicitly.
  | Using default value of   0
  No explicit requirement for turning off preconditioner.
  | By default, it will be turned off when the charge convergence reaches
  | sc_accuracy_rho  =   0.100000E-05
  No special mixing parameter while Kerker preconditioner is on.
  Using default: charge_mix_param =     0.0500.
  Threshold for auxiliary basis singularities not set.
  Default threshold for auxiliary basis singularities:  0.1000E-04
  No q(lm)/r^(l+1) cutoff set for long-range Hartree potential.
  | Using default value of  0.100000E-09 .
  | Verify using the multipole_threshold keyword.
  Defaulting to new monopole extrapolation.
  Density update method: automatic selection selected.
  Using density matrix based charge density update.
  Using density matrix based charge density update.
  Using packed matrix style: index .
  Defaulting to use time-reversal symmetry for k-point grid.
  Charge integration errors on the 3D integration grid will be compensated
  by explicit normalization and distribution of residual charges.
  Use the "compensate_multipole_errors" flag to change this behaviour.
  Default to 1D ("use_logsbt") integrations for auxiliary 2-center integrals.
  Default onset of logarithmic r-grid for SBT is -38.000000000000
  Default onset of logarithmic k-grid for SBT is -25.000000000000
  Default range of logarithmic r- and k-grid for SBT is  45.000000000000
  Default number of logarithmic r- and k-grid for SBT is   4096
  Default of use_2d_corr is to use the efficient 2D distribution where possible
 
  Consistency checks for the contents of geometry.in are next.
 

  Range separation radius for Ewald summation (hartree_convergence_parameter):      3.00901248 bohr.
  Number of empty states per atom not set in control.in .
  | Since you are using a method that relies on the unoccupied spectrum
  | (MP2,GW,RPA et al.), will use the full Hamiltonian size (see below)
  | as the max. possible number of states (occupied plus empty).

  Structure-dependent array size parameters: 
  | Maximum number of distinct radial functions  :        9
  | Maximum number of basis functions            :      768
  | Number of Kohn-Sham states (occupied + empty):      768
------------------------------------------------------------

  Performing system and environment tests:
  | Environment variable OMP_NUM_THREADS correctly set to 1.
  | Checking for ScaLAPACK...
  | Testing pdtran()...
  | All pdtran() tests passed.
CUDA runtime version: 11060
CUDA driver version: 11060
  Initializing GPUs...

  Number of GPUs available to MPI task         0 :   1
  Number of GPUs available to MPI task         1 :   1
  Number of GPUs available to MPI task         2 :   1
  Number of GPUs available to MPI task         3 :   1
  Number of GPUs available to MPI task         4 :   1
  Number of GPUs available to MPI task         5 :   1
  Number of GPUs available to MPI task         6 :   1
  Number of GPUs available to MPI task         7 :   1
  Number of GPUs available to MPI task         8 :   1
  Number of GPUs available to MPI task         9 :   1
  Number of GPUs available to MPI task        10 :   1
  Number of GPUs available to MPI task        11 :   1
  Number of GPUs available to MPI task        12 :   1
  Number of GPUs available to MPI task        13 :   1
  Number of GPUs available to MPI task        14 :   1
  Number of GPUs available to MPI task        15 :   1
  Number of GPUs available to MPI task        16 :   1
  Number of GPUs available to MPI task        17 :   1

  | MPI task         0, GPU activated = T, Device Name = NVIDIA A100-SXM4-80GB
  | MPI task         1, GPU activated = T, Device Name = NVIDIA A100-SXM4-80GB
  | MPI task         2, GPU activated = T, Device Name = NVIDIA A100-SXM4-80GB
  | MPI task         3, GPU activated = T, Device Name = NVIDIA A100-SXM4-80GB
  | MPI task         4, GPU activated = T, Device Name = NVIDIA A100-SXM4-80GB
  | MPI task         5, GPU activated = T, Device Name = NVIDIA A100-SXM4-80GB
  | MPI task         6, GPU activated = T, Device Name = NVIDIA A100-SXM4-80GB
  | MPI task         7, GPU activated = T, Device Name = NVIDIA A100-SXM4-80GB
  | MPI task         8, GPU activated = T, Device Name = NVIDIA A100-SXM4-80GB
  | MPI task         9, GPU activated = T, Device Name = NVIDIA A100-SXM4-80GB
  | MPI task        10, GPU activated = T, Device Name = NVIDIA A100-SXM4-80GB
  | MPI task        11, GPU activated = T, Device Name = NVIDIA A100-SXM4-80GB
  | MPI task        12, GPU activated = T, Device Name = NVIDIA A100-SXM4-80GB
  | MPI task        13, GPU activated = T, Device Name = NVIDIA A100-SXM4-80GB
  | MPI task        14, GPU activated = T, Device Name = NVIDIA A100-SXM4-80GB
  | MPI task        15, GPU activated = T, Device Name = NVIDIA A100-SXM4-80GB
  | MPI task        16, GPU activated = T, Device Name = NVIDIA A100-SXM4-80GB
  | MPI task        17, GPU activated = T, Device Name = NVIDIA A100-SXM4-80GB

------------------------------------------------------------
          Preparing all fixed parts of the calculation.
------------------------------------------------------------
  Determining machine precision:
    2.225073858507201E-308
  Setting up grids for atomic and cluster calculations.

  Creating wave function, potential, and density for free atoms.
  Runtime choices for atomic solver:
  | atomic solver xc        : PW-LDA
  | compute density gradient: 0
  | compute kinetic density : F

  Species: H

  List of occupied orbitals and eigenvalues:
    n    l              occ      energy [Ha]    energy [eV]
    1    0           1.0000        -0.232375        -6.3233


  Species: O

  List of occupied orbitals and eigenvalues:
    n    l              occ      energy [Ha]    energy [eV]
    1    0           2.0000       -18.757744      -510.4242
    2    0           2.0000        -0.870917       -23.6989
    2    1           4.0000        -0.337950        -9.1961


  Adding cutoff potential to free-atom effective potential.
  Creating fixed part of basis set: Ionic, confined, hydrogenic.
 
  H                    hydrogenic:
 
  List of hydrogenic basis orbitals: 
    n    l      effective z      eigenvalue [eV]  inner max. [A]     outer max. [A]     outer radius [A]   
    2    0         2.100000       -14.9728           0.193243           1.317208           4.696947
    2    1         3.500000       -41.6669           0.602369           0.602369           3.862494
 
 
  O                    hydrogenic:
 
  List of hydrogenic basis orbitals: 
    n    l      effective z      eigenvalue [eV]  inner max. [A]     outer max. [A]     outer radius [A]   
    2    1         1.800000       -10.9749           1.164242           1.164242           4.691341
    3    2         7.600000       -87.3180           0.624125           0.624125           3.413946
    3    0         6.400000       -61.9207           0.061167           1.081902           4.151495
 
  Creating atomic-like basis functions for current effective potential.

  Species H                   :

  List of atomic basis orbitals and eigenvalues:
    n    l      energy [Ha]    energy [eV]    outer radius [A]
    1    0        -0.232375        -6.3233       4.696947


  Species O                   :

  List of atomic basis orbitals and eigenvalues:
    n    l      energy [Ha]    energy [eV]    outer radius [A]
    1    0       -18.757744      -510.4242       1.830144
    2    0        -0.870917       -23.6989       4.578029
    2    1        -0.337950        -9.1961       4.634338

  Assembling full basis from fixed parts.
  | Species H :   atomic orbital   1 s accepted.
  | Species H :    hydro orbital   2 s accepted.
  | Species H :    hydro orbital   2 p accepted.
  | Species O :   atomic orbital   1 s accepted.
  | Species O :    hydro orbital   3 s accepted.
  | Species O :   atomic orbital   2 s accepted.
  | Species O :   atomic orbital   2 p accepted.
  | Species O :    hydro orbital   2 p accepted.
  | Species O :    hydro orbital   3 d accepted.
 
  Basis size parameters after reduction:
  | Total number of radial functions:        9
  | Total number of basis functions :      768
 
  Per-task memory consumption for arrays in subroutine allocate_ext:
  |           2.268304MB.
  Testing on-site integration grid accuracy.
  |  Species  Function  <phi|h_atom|phi> (log., in eV)  <phi|h_atom|phi> (rad., in eV)
           1        1                 -6.3245358373                 -6.3232436907
           1        2                 14.1326137532                 14.1384481100
           1        3                 25.3627025200                 25.3628451197
           2        4               -510.4241781764               -510.4240769407
           2        5                 14.9072942213                 14.9072945271
           2        6                -21.2004736474                -21.2005650551
           2        7                 -9.1962086505                 -9.1963509834
           2        8                  8.1896755006                  8.1702200081
           2        9                 45.7920584937                 45.7920228520

  Preparing densities etc. for the partition functions (integrals / Hartree potential).

  Preparations completed.
  max(cpu_time)          :      0.075 s.
  Wall clock time (cpu1) :      0.071 s.
------------------------------------------------------------

  Initializing index lists of integration centers etc. from given atomic structure:
  Mapping all atomic coordinates to central unit cell.

  Initializing the k-points
  Using symmetry for reducing the k-points
  | k-points reduced from:        1 to        1
  | Number of k-points                             :         1
  | Consuming          0 KiB for k_phase_exx.
  The eigenvectors in the calculations are REAL.
  | Number of basis functions in the Hamiltonian integrals :      4489
  | Number of basis functions in a single unit cell        :       768
  | Number of centers in hartree potential         :      2545
  | Number of centers in hartree multipole         :      1854
  | Number of centers in electron density summation:      1439
  | Number of centers in basis integrals           :      1510
  | Number of centers in integrals                 :       695
  | Number of centers in hamiltonian               :      1439
  | Consuming          0 KiB for k_phase.
  | Number of super-cells (origin) [n_cells]                     :         125
  | Number of super-cells (after PM_index) [n_cells]             :          28
  | Number of super-cells in hamiltonian [n_cells_in_hamiltonian]:          28
  | Size of matrix packed + index [n_hamiltonian_matrix_size] :      769348
  | Size of matrix packed + index (no_symmetry):     1537927

------------------------------------------------------------
          Begin self-consistency loop: Initialization.

          Date     :  20230221, Time     :  121609.798
------------------------------------------------------------
  | Estimated reciprocal-space cutoff momentum G_max:         3.14046178 bohr^-1 .
  | Reciprocal lattice points for long-range Hartree potential:    3430
  Using simple linear distribution as default method for k-point parallelism.
  * Using 18 tasks for Scalapack Eigenvalue solver.
  Detailed listing of tasks and assigned k-points:
   Task     0 k-point     1 on adag037
   Task     1 k-point     1 on adag037
   Task     2 k-point     1 on adag037
   Task     3 k-point     1 on adag037
   Task     4 k-point     1 on adag037
   Task     5 k-point     1 on adag037
   Task     6 k-point     1 on adag037
   Task     7 k-point     1 on adag037
   Task     8 k-point     1 on adag037
   Task     9 k-point     1 on adag037
   Task    10 k-point     1 on adag037
   Task    11 k-point     1 on adag037
   Task    12 k-point     1 on adag037
   Task    13 k-point     1 on adag037
   Task    14 k-point     1 on adag037
   Task    15 k-point     1 on adag037
   Task    16 k-point     1 on adag037
   Task    17 k-point     1 on adag037
  K-point:     1 Tasks:    18 split into      6 X      3 BLACS grid
  Calculating block size based on n_basis =          768  max_nprow =            6  max_npcol =            3
  ScaLAPACK block size set to:           16
  Allocating        0.250 MB for ovlp
  Allocating        0.250 MB for ham
  Allocating        0.250 MB for eigenvec
  Required Scalapack workspace - INTEGER:            1  REAL:             1
  Partitioning the integration grid into batches with parallel hashing+maxmin method.
  | Number of batches:     3994
  | Maximal batch size:     200
  | Minimal batch size:      99
  | Average batch size:     127.583
  | Standard deviation of batch sizes:      25.951

  Integration load balanced across    18 MPI tasks.
  Work distribution over tasks is as follows:
  Task     0 has      28340 integration points.
  Task     1 has      28275 integration points.
  Task     2 has      28314 integration points.
  Task     3 has      28242 integration points.
  Task     4 has      28284 integration points.
  Task     5 has      28319 integration points.
  Task     6 has      28316 integration points.
  Task     7 has      28286 integration points.
  Task     8 has      28303 integration points.
  Task     9 has      28302 integration points.
  Task    10 has      28322 integration points.
  Task    11 has      28331 integration points.
  Task    12 has      28278 integration points.
  Task    13 has      28323 integration points.
  Task    14 has      28330 integration points.
  Task    15 has      28314 integration points.
  Task    16 has      28351 integration points.
  Task    17 has      28338 integration points.
  Initializing partition tables, free-atom densities, potentials, etc. across the integration grid (initialize_grid_storage).
  | initialize_grid_storage: Actual outermost partition radius vs. multipole_radius_free
  | (-- VB: in principle, multipole_radius_free should be larger, hence this output)
  | Species        1: Confinement radius =              4.999999999999999 AA, multipole_radius_free =              5.054417573612229 AA.
  | Species        1: outer_partition_radius set to              5.054417573612229 AA .
  | Species        2: Confinement radius =              4.999999999999999 AA, multipole_radius_free =              5.048384829883283 AA.
  | Species        2: outer_partition_radius set to              5.048384829883283 AA .
  | The sparse table of interatomic distances needs       4892.56 kbyte instead of     18240.80 kbyte of memory.
  | Net number of integration points:   509568
  | of which are non-zero points    :   408305
  | Numerical average free-atom electrostatic potential    :     -5.28427740 eV
  Renormalizing the initial density to the exact electron count on the 3D integration grid.
  | Initial density: Formal number of electrons (from input files) :     320.0000000000
  | Integrated number of electrons on 3D grid     :     319.9983851844
  | Charge integration error                      :      -0.0016148156
  | Normalization factor for density and gradient :       1.0000050463
  Renormalizing the free-atom superposition density to the exact electron count on the 3D integration grid.
  | Formal number of electrons (from input files) :     320.0000000000
  | Integrated number of electrons on 3D grid     :     319.9983851844
  | Charge integration error                      :      -0.0016148156
  | Normalization factor for density and gradient :       1.0000050463
  Obtaining max. number of non-zero basis functions in each batch (get_n_compute_maxes).
  | Maximal number of non-zero basis functions:      452 in task     0
  | Maximal number of non-zero basis functions:      420 in task     1
  | Maximal number of non-zero basis functions:      410 in task     2
  | Maximal number of non-zero basis functions:      419 in task     3
  | Maximal number of non-zero basis functions:      415 in task     4
  | Maximal number of non-zero basis functions:      408 in task     5
  | Maximal number of non-zero basis functions:      422 in task     6
  | Maximal number of non-zero basis functions:      400 in task     7
  | Maximal number of non-zero basis functions:      416 in task     8
  | Maximal number of non-zero basis functions:      450 in task     9
  | Maximal number of non-zero basis functions:      417 in task    10
  | Maximal number of non-zero basis functions:      424 in task    11
  | Maximal number of non-zero basis functions:      431 in task    12
  | Maximal number of non-zero basis functions:      401 in task    13
  | Maximal number of non-zero basis functions:      412 in task    14
  | Maximal number of non-zero basis functions:      423 in task    15
  | Maximal number of non-zero basis functions:      402 in task    16
  | Maximal number of non-zero basis functions:      399 in task    17
  Integrating Hamiltonian matrix: batch-based integration.
  GPU acceleration will be used when integrating the Hamiltonian matrix.
  Reporting GPU memory usage by myid 0.  Note that it is likely not the only MPI task binding to its GPU!
  Allocating        1.634 MB on GPU for hamiltonian_shell
  Allocating        0.723 MB on GPU for wave
  Allocating        0.002 MB on GPU for partition
  Allocating        0.723 MB on GPU for h_times_psi
  Time summed over all CPUs for integration: real work       14.385 s, elapsed       14.736 s
  Deallocating memory used on GPU for Hamiltonian integration.
  Integrating overlap matrix.
  Time summed over all CPUs for integration: real work       10.852 s, elapsed       10.982 s
  Deallocating overlap matrix.

  Updating Kohn-Sham eigenvalues and eigenvectors using ELSI and the ELPA eigensolver.
  Singularity check in k-point 1 (analysis for other k-points may follow below):
  Overlap matrix is not singular
  | Lowest and highest eigenvalues :  0.2035E-02,  0.7145E+01
  Finished singularity check of overlap matrix
  | Time :     0.530 s
  Starting ELPA eigensolver (GPU)
  Finished Cholesky decomposition
  | Time :     0.011 s
  Finished transformation to standard eigenproblem
  | Time :     0.204 s
  Finished solving standard eigenproblem
  | Time :     1.203 s
  Finished back-transformation of eigenvectors
  | Time :     0.063 s

  Obtaining occupation numbers and electronic chemical potential using ELSI.
  | Note that, for insulating systems, the printed 'chemical potential' value is not uniquely defined.
  | It can be anywhere in the energy gap, as long as it correctly separates occupied and unoccupied states.
  | In systems with a gap, the physically relevant chemical potential is the VBM or HOMO.

  | Chemical potential (Fermi level):    -9.67064527 eV
  Writing Kohn-Sham eigenvalues.

  State    Occupation    Eigenvalue [Ha]    Eigenvalue [eV]
      1       2.00000         -18.919214         -514.81802
      2       2.00000         -18.914094         -514.67867
      3       2.00000         -18.906267         -514.46569
      4       2.00000         -18.904895         -514.42836
      5       2.00000         -18.895383         -514.16952
      6       2.00000         -18.889482         -514.00895
      7       2.00000         -18.888020         -513.96917
      8       2.00000         -18.884901         -513.88429
      9       2.00000         -18.884592         -513.87590
     10       2.00000         -18.883418         -513.84395
     11       2.00000         -18.878993         -513.72354
     12       2.00000         -18.878385         -513.70699
     13       2.00000         -18.874705         -513.60687
     14       2.00000         -18.874238         -513.59416
     15       2.00000         -18.873625         -513.57748
     16       2.00000         -18.872708         -513.55251
     17       2.00000         -18.868609         -513.44097
     18       2.00000         -18.868402         -513.43534
     19       2.00000         -18.864247         -513.32227
     20       2.00000         -18.858363         -513.16216
     21       2.00000         -18.858109         -513.15527
     22       2.00000         -18.856818         -513.12012
     23       2.00000         -18.855253         -513.07754
     24       2.00000         -18.854503         -513.05714
     25       2.00000         -18.853197         -513.02159
     26       2.00000         -18.852669         -513.00723
     27       2.00000         -18.847937         -512.87847
     28       2.00000         -18.846907         -512.85043
     29       2.00000         -18.846270         -512.83310
     30       2.00000         -18.845007         -512.79874
     31       2.00000         -18.843740         -512.76425
     32       2.00000         -18.841128         -512.69319
     33       2.00000          -1.173517          -31.93303
     34       2.00000          -1.170204          -31.84287
     35       2.00000          -1.150717          -31.31260
     36       2.00000          -1.144892          -31.15408
     37       2.00000          -1.139584          -31.00965
     38       2.00000          -1.137567          -30.95477
     39       2.00000          -1.128592          -30.71056
     40       2.00000          -1.125710          -30.63214
     41       2.00000          -1.122520          -30.54531
     42       2.00000          -1.121922          -30.52905
     43       2.00000          -1.116693          -30.38677
     44       2.00000          -1.113925          -30.31144
     45       2.00000          -1.113528          -30.30064
     46       2.00000          -1.113113          -30.28934
     47       2.00000          -1.105060          -30.07021
     48       2.00000          -1.103088          -30.01654
     49       2.00000          -1.100300          -29.94069
     50       2.00000          -1.095704          -29.81561
     51       2.00000          -1.091067          -29.68945
     52       2.00000          -1.078692          -29.35269
     53       2.00000          -1.075215          -29.25808
     54       2.00000          -1.073128          -29.20131
     55       2.00000          -1.071414          -29.15467
     56       2.00000          -1.070833          -29.13884
     57       2.00000          -1.070005          -29.11633
     58       2.00000          -1.064474          -28.96580
     59       2.00000          -1.057984          -28.78920
     60       2.00000          -1.056316          -28.74383
     61       2.00000          -1.052910          -28.65115
     62       2.00000          -1.047733          -28.51025
     63       2.00000          -1.046144          -28.46702
     64       2.00000          -1.040873          -28.32359
     65       2.00000          -0.725372          -19.73837
     66       2.00000          -0.721699          -19.63844
     67       2.00000          -0.713114          -19.40481
     68       2.00000          -0.709618          -19.30969
     69       2.00000          -0.680774          -18.52481
     70       2.00000          -0.680614          -18.52045
     71       2.00000          -0.669100          -18.20714
     72       2.00000          -0.667653          -18.16777
     73       2.00000          -0.666934          -18.14820
     74       2.00000          -0.658404          -17.91609
     75       2.00000          -0.656966          -17.87695
     76       2.00000          -0.654242          -17.80284
     77       2.00000          -0.650908          -17.71210
     78       2.00000          -0.649393          -17.67088
     79       2.00000          -0.642840          -17.49256
     80       2.00000          -0.641305          -17.45079
     81       2.00000          -0.637886          -17.35776
     82       2.00000          -0.631767          -17.19126
     83       2.00000          -0.628906          -17.11339
     84       2.00000          -0.627639          -17.07893
     85       2.00000          -0.620902          -16.89561
     86       2.00000          -0.619013          -16.84420
     87       2.00000          -0.616026          -16.76291
     88       2.00000          -0.615638          -16.75236
     89       2.00000          -0.614657          -16.72568
     90       2.00000          -0.613016          -16.68102
     91       2.00000          -0.609007          -16.57193
     92       2.00000          -0.603873          -16.43222
     93       2.00000          -0.598823          -16.29481
     94       2.00000          -0.597715          -16.26465
     95       2.00000          -0.595985          -16.21759
     96       2.00000          -0.593837          -16.15913
     97       2.00000          -0.575734          -15.66651
     98       2.00000          -0.571459          -15.55020
     99       2.00000          -0.567896          -15.45323
    100       2.00000          -0.564241          -15.35377
    101       2.00000          -0.561842          -15.28851
    102       2.00000          -0.557388          -15.16729
    103       2.00000          -0.555035          -15.10328
    104       2.00000          -0.553162          -15.05231
    105       2.00000          -0.549147          -14.94306
    106       2.00000          -0.544310          -14.81144
    107       2.00000          -0.539441          -14.67892
    108       2.00000          -0.539129          -14.67044
    109       2.00000          -0.535820          -14.58042
    110       2.00000          -0.534182          -14.53584
    111       2.00000          -0.530956          -14.44806
    112       2.00000          -0.527445          -14.35252
    113       2.00000          -0.524082          -14.26099
    114       2.00000          -0.521786          -14.19851
    115       2.00000          -0.518230          -14.10176
    116       2.00000          -0.517269          -14.07562
    117       2.00000          -0.515272          -14.02126
    118       2.00000          -0.512112          -13.93529
    119       2.00000          -0.510209          -13.88350
    120       2.00000          -0.507510          -13.81005
    121       2.00000          -0.504042          -13.71568
    122       2.00000          -0.501976          -13.65947
    123       2.00000          -0.499248          -13.58522
    124       2.00000          -0.498457          -13.56370
    125       2.00000          -0.496854          -13.52008
    126       2.00000          -0.488154          -13.28334
    127       2.00000          -0.486885          -13.24881
    128       2.00000          -0.485200          -13.20296
    129       2.00000          -0.482949          -13.14170
    130       2.00000          -0.482223          -13.12195
    131       2.00000          -0.477572          -12.99539
    132       2.00000          -0.476354          -12.96226
    133       2.00000          -0.472381          -12.85414
    134       2.00000          -0.471474          -12.82946
    135       2.00000          -0.468314          -12.74347
    136       2.00000          -0.465506          -12.66707
    137       2.00000          -0.464317          -12.63471
    138       2.00000          -0.463511          -12.61279
    139       2.00000          -0.461672          -12.56274
    140       2.00000          -0.460396          -12.52802
    141       2.00000          -0.459088          -12.49242
    142       2.00000          -0.457849          -12.45870
    143       2.00000          -0.457383          -12.44603
    144       2.00000          -0.456732          -12.42831
    145       2.00000          -0.454913          -12.37882
    146       2.00000          -0.450329          -12.25406
    147       2.00000          -0.449951          -12.24380
    148       2.00000          -0.445893          -12.13337
    149       2.00000          -0.444785          -12.10322
    150       2.00000          -0.444452          -12.09414
    151       2.00000          -0.443785          -12.07601
    152       2.00000          -0.443169          -12.05923
    153       2.00000          -0.441121          -12.00352
    154       2.00000          -0.440945          -11.99873
    155       2.00000          -0.439879          -11.96973
    156       2.00000          -0.438501          -11.93223
    157       2.00000          -0.436802          -11.88599
    158       2.00000          -0.433959          -11.80864
    159       2.00000          -0.432421          -11.76677
    160       2.00000          -0.430397          -11.71171
    161       0.00000          -0.173781           -4.72882
    162       0.00000          -0.118389           -3.22152
    163       0.00000          -0.114285           -3.10985
    164       0.00000          -0.111802           -3.04229
    165       0.00000          -0.109363           -2.97591
    166       0.00000          -0.105179           -2.86208
    167       0.00000          -0.091585           -2.49215
    168       0.00000          -0.077138           -2.09903
    169       0.00000          -0.067485           -1.83635
    170       0.00000          -0.066122           -1.79928
    171       0.00000          -0.060007           -1.63286
    172       0.00000          -0.057007           -1.55124
    173       0.00000          -0.055653           -1.51439
    174       0.00000          -0.054347           -1.47886
    175       0.00000          -0.049241           -1.33990
    176       0.00000          -0.045212           -1.23027
    177       0.00000          -0.041287           -1.12349
    178       0.00000          -0.031389           -0.85415
    179       0.00000          -0.025855           -0.70356
    180       0.00000          -0.021288           -0.57928
    181       0.00000          -0.018933           -0.51519
    182       0.00000          -0.013834           -0.37644
    183       0.00000          -0.004930           -0.13415
    184       0.00000          -0.003712           -0.10100
    185       0.00000           0.002712            0.07380
    186       0.00000           0.011760            0.32002
    187       0.00000           0.019618            0.53383
    188       0.00000           0.021818            0.59369
    189       0.00000           0.026911            0.73229
    190       0.00000           0.029263            0.79628
    191       0.00000           0.032306            0.87910
    192       0.00000           0.038117            1.03721
    193       0.00000           0.040661            1.10645
    194       0.00000           0.043136            1.17379
    195       0.00000           0.044329            1.20626
    196       0.00000           0.051311            1.39624
    197       0.00000           0.054442            1.48145
    198       0.00000           0.056959            1.54994
    199       0.00000           0.061324            1.66870
    200       0.00000           0.063863            1.73780
    201       0.00000           0.065788            1.79019
    202       0.00000           0.067497            1.83667
    203       0.00000           0.069261            1.88470
    204       0.00000           0.073216            1.99230
    205       0.00000           0.075308            2.04925
    206       0.00000           0.079947            2.17546
    207       0.00000           0.080942            2.20255
    208       0.00000           0.085237            2.31942
    209       0.00000           0.088291            2.40251
    210       0.00000           0.088634            2.41184
    211       0.00000           0.090791            2.47055
    212       0.00000           0.094387            2.56841
    213       0.00000           0.098248            2.67347
    214       0.00000           0.101427            2.75998
    215       0.00000           0.102346            2.78499
    216       0.00000           0.103947            2.82855
    217       0.00000           0.107321            2.92036
    218       0.00000           0.111227            3.02663
    219       0.00000           0.117212            3.18950
    220       0.00000           0.117869            3.20739
    221       0.00000           0.122195            3.32510
    222       0.00000           0.124200            3.37965
    223       0.00000           0.131727            3.58448
    224       0.00000           0.139250            3.78917
    225       0.00000           0.141626            3.85385
    226       0.00000           0.145050            3.94700
    227       0.00000           0.156259            4.25202
    228       0.00000           0.159280            4.33422
    229       0.00000           0.163808            4.45743
    230       0.00000           0.173221            4.71358
    231       0.00000           0.173657            4.72544
    232       0.00000           0.183066            4.98148
    233       0.00000           0.187298            5.09663
    234       0.00000           0.194360            5.28881
    235       0.00000           0.197145            5.36459
    236       0.00000           0.201227            5.47566
    237       0.00000           0.204980            5.57779
    238       0.00000           0.208072            5.66193
    239       0.00000           0.215927            5.87568
    240       0.00000           0.216202            5.88316
    241       0.00000           0.223472            6.08099
    242       0.00000           0.227414            6.18824
    243       0.00000           0.234890            6.39169
    244       0.00000           0.237349            6.45860
    245       0.00000           0.247721            6.74083
    246       0.00000           0.252770            6.87821
    247       0.00000           0.255707            6.95815
    248       0.00000           0.263308            7.16497
    249       0.00000           0.268954            7.31862
    250       0.00000           0.274608            7.47245
    251       0.00000           0.280157            7.62345
    252       0.00000           0.290506            7.90507
    253       0.00000           0.300633            8.18064
    254       0.00000           0.304689            8.29102
    255       0.00000           0.316305            8.60710
    256       0.00000           0.319171            8.68509
    257       0.00000           0.328012            8.92567
    258       0.00000           0.330071            8.98170
    259       0.00000           0.332426            9.04579
    260       0.00000           0.340270            9.25922
    261       0.00000           0.344576            9.37638
[...]
  |    H      0     4.527807 A      4.527807 A        1.268855E-16 a.u.
  |    H      0     4.527807 A      4.583499 A       -4.900954E-17 a.u.
  |    H      0     4.527807 A      4.583499 A        4.713786E-16 a.u.
  |    H      2     3.678162 A  2.180220E+05 A            0.556529 a.u.
  |    H      1     3.958095 A  1.721251E+08 A            0.841931 a.u.
  |    H      0     4.527807 A  3.866455E+16 A            0.581436 a.u.
  |    O      0     2.043000 A      2.043000 A       -1.436841E-16 a.u.
  |    O      3     3.498446 A      3.498446 A        3.043453E-17 a.u.
  |    O      3     3.498446 A      3.498446 A        1.541443E-16 a.u.
  |    O      0     3.905335 A      3.905335 A        2.173090E-16 a.u.
  |    O      0     3.905335 A      3.905335 A        7.213445E-17 a.u.
  |    O      0     4.101052 A      4.101052 A        2.361718E-16 a.u.
  |    O      1     4.101052 A      4.101052 A        3.235185E-17 a.u.
  |    O      0     4.359549 A      4.359549 A       -5.329475E-17 a.u.
  |    O      1     4.413171 A      4.413171 A        3.261883E-17 a.u.
  |    O      1     4.522403 A      4.522403 A        6.417997E-16 a.u.
  |    O      1     4.522403 A      4.522403 A        4.224783E-16 a.u.
  |    O      2     4.522403 A      4.522403 A       -4.387647E-16 a.u.
  |    O      0     4.522403 A      4.578029 A        2.602039E-16 a.u.
  |    O      0     4.578029 A      4.578029 A        1.226235E-16 a.u.
  |    O      1     4.578029 A      4.578029 A       -6.107316E-16 a.u.
  |    O      1     4.578029 A      4.578029 A       -2.224438E-16 a.u.
  |    O      2     4.578029 A      4.578029 A       -7.020279E-16 a.u.
  |    O      2     4.522403 A      4.578029 A        1.323470E-15 a.u.
  |    O      2     4.578029 A      4.578029 A        7.923696E-16 a.u.
  |    O      2     4.522403 A      4.578029 A       -9.951815E-16 a.u.
  |    O      0     4.578029 A      4.634338 A       -8.813582E-18 a.u.
  |    O      1     4.578029 A      4.634338 A       -3.325386E-17 a.u.
  |    O      1     4.634338 A      4.634338 A        9.588032E-16 a.u.
  |    O      2     4.578029 A      4.634338 A        1.064715E-17 a.u.
  |    O      2     4.578029 A      4.634338 A       -3.770343E-15 a.u.
  |    O      4     3.251020 A  1.511584E+03 A            1.513372 a.u.
  |    O      3     3.541477 A  1.434166E+04 A            4.293220 a.u.
  |    O      2     4.634338 A  5.584435E+05 A            9.352428 a.u.
  |    O      1     4.634338 A  2.821283E+08 A            2.261940 a.u.
  |    O      0     4.578029 A  4.264100E+16 A            0.641234 a.u.

  | Shrink_full_auxil_basis : there are       38  radial auxiliary wave functions
                            accepted and       5 rejected.
  | Shrink_full_auxil_basis : there are totally                4544 partial auxiliary wave functions.
 
  | Maximal number of product basis functions per thread :   256   256
 
  | Minimal total memory requirement for three-center overlap :      10.450 Gbs
  | Number of local auxiliary basis functions on task:      0   256
  | Number of local auxiliary basis functions on task:      1   256
  | Number of local auxiliary basis functions on task:      2   256
  | Number of local auxiliary basis functions on task:      3   256
  | Number of local auxiliary basis functions on task:      4   256
  | Number of local auxiliary basis functions on task:      5   256
  | Number of local auxiliary basis functions on task:      6   256
  | Number of local auxiliary basis functions on task:      7   256
  | Number of local auxiliary basis functions on task:      8   256
  | Number of local auxiliary basis functions on task:      9   256
  | Number of local auxiliary basis functions on task:     10   256
  | Number of local auxiliary basis functions on task:     11   256
  | Number of local auxiliary basis functions on task:     12   256
  | Number of local auxiliary basis functions on task:     13   256
  | Number of local auxiliary basis functions on task:     14   240
  | Number of local auxiliary basis functions on task:     15   240
  | Number of local auxiliary basis functions on task:     16   240
  | Number of local auxiliary basis functions on task:     17   240
  | 2D aux task distribution:      3 X      6
  | 2D block size (nb_aux_2d):     64
 
  Basis pair condensation :    295296  -->     224393
 
 --------------------------------------------
  Constructing auxiliary basis (full product) ...
 
  Product basis:
  | charge radius: extent of product basis function
  | field radius: extent of its Coulomb potential
  | Species   l  charge radius    field radius  multipol momen
  |    H      1     3.910002 A      3.910002 A       -2.487223E-16 a.u.
  |    H      1     3.958095 A      3.958095 A       -2.441841E-16 a.u.
  |    H      0     4.527807 A      4.527807 A        1.268855E-16 a.u.
  |    H      0     4.527807 A      4.583499 A       -4.900954E-17 a.u.
  |    H      0     4.527807 A      4.583499 A        4.713786E-16 a.u.
  |    H      2     3.678162 A  2.180220E+05 A            0.556529 a.u.
  |    H      1     3.958095 A  1.721251E+08 A            0.841931 a.u.
  |    H      0     4.527807 A  3.866455E+16 A            0.581436 a.u.
  |    O      0     2.043000 A      2.043000 A       -1.436841E-16 a.u.
  |    O      3     3.498446 A      3.498446 A        3.043453E-17 a.u.
  |    O      3     3.498446 A      3.498446 A        1.541443E-16 a.u.
  |    O      0     3.905335 A      3.905335 A        2.173090E-16 a.u.
  |    O      0     3.905335 A      3.905335 A        7.213445E-17 a.u.
  |    O      0     4.101052 A      4.101052 A        2.361718E-16 a.u.
  |    O      1     4.101052 A      4.101052 A        3.235185E-17 a.u.
  |    O      0     4.359549 A      4.359549 A       -5.329475E-17 a.u.
  |    O      1     4.413171 A      4.413171 A        3.261883E-17 a.u.
  |    O      1     4.522403 A      4.522403 A        6.417997E-16 a.u.
  |    O      1     4.522403 A      4.522403 A        4.224783E-16 a.u.
  |    O      2     4.522403 A      4.522403 A       -4.387647E-16 a.u.
  |    O      0     4.522403 A      4.578029 A        2.602039E-16 a.u.
  |    O      0     4.578029 A      4.578029 A        1.226235E-16 a.u.
  |    O      1     4.578029 A      4.578029 A       -6.107316E-16 a.u.
  |    O      1     4.578029 A      4.578029 A       -2.224438E-16 a.u.
  |    O      2     4.578029 A      4.578029 A       -7.020279E-16 a.u.
  |    O      2     4.522403 A      4.578029 A        1.323470E-15 a.u.
  |    O      2     4.578029 A      4.578029 A        7.923696E-16 a.u.
  |    O      2     4.522403 A      4.578029 A       -9.951815E-16 a.u.
  |    O      0     4.578029 A      4.634338 A       -8.813582E-18 a.u.
  |    O      1     4.578029 A      4.634338 A       -3.325386E-17 a.u.
  |    O      1     4.634338 A      4.634338 A        9.588032E-16 a.u.
  |    O      2     4.578029 A      4.634338 A        1.064715E-17 a.u.
  |    O      2     4.578029 A      4.634338 A       -3.770343E-15 a.u.
  |    O      4     3.251020 A  1.511584E+03 A            1.513372 a.u.
  |    O      3     3.541477 A  1.434166E+04 A            4.293220 a.u.
  |    O      2     4.634338 A  5.584435E+05 A            9.352428 a.u.
  |    O      1     4.634338 A  2.821283E+08 A            2.261940 a.u.
  |    O      0     4.578029 A  4.264100E+16 A            0.641234 a.u.

  | Shrink_full_auxil_basis : there are       38  radial auxiliary wave functions
                            accepted and       5 rejected.
  | Shrink_full_auxil_basis : there are totally                4544 partial auxiliary wave functions.
 
  | Maximal number of product basis functions per thread :   256   256
 
  | Minimal total memory requirement for three-center overlap :      10.450 Gbs
  | Number of local auxiliary basis functions on task:      0   256
  | Number of local auxiliary basis functions on task:      1   256
  | Number of local auxiliary basis functions on task:      2   256
  | Number of local auxiliary basis functions on task:      3   256
  | Number of local auxiliary basis functions on task:      4   256
  | Number of local auxiliary basis functions on task:      5   256
  | Number of local auxiliary basis functions on task:      6   256
  | Number of local auxiliary basis functions on task:      7   256
  | Number of local auxiliary basis functions on task:      8   256
  | Number of local auxiliary basis functions on task:      9   256
  | Number of local auxiliary basis functions on task:     10   256
  | Number of local auxiliary basis functions on task:     11   256
  | Number of local auxiliary basis functions on task:     12   256
  | Number of local auxiliary basis functions on task:     13   256
  | Number of local auxiliary basis functions on task:     14   240
  | Number of local auxiliary basis functions on task:     15   240
  | Number of local auxiliary basis functions on task:     16   240
  | Number of local auxiliary basis functions on task:     17   240
  | 2D aux task distribution:      3 X      6
  | 2D block size (nb_aux_2d):     64
 
  Basis pair condensation :    295296  -->     224393
dP_dE (Bohr^3) at every cycle:--->
 (369.355364597005,0.000000000000000E+000) (-1.76361036640020,0.000000000000000E+000) (15.2134996140828,0.000000000000000E+000)
 (-1.76219542960360,0.000000000000000E+000) (351.448333403704,0.000000000000000E+000) (-10.5642036047810,0.000000000000000E+000)
 (15.2107690591768,0.000000000000000E+000) (-10.5601985221442,0.000000000000000E+000) (349.398547717321,0.000000000000000E+000)
DFPT polarizability (Bohr^3)        xx        yy        zz        xy        xz        yz
  | Polarizability:--->                       369.355364597                  351.448333404                  349.398547717                   -1.763610366                   15.213499614                  -10.564203605

DFPT for dielectric_constant:--->  # PARSE DFPT_dielectric_tensor
               1.697424959151235            -0.003330088055137             0.028726466064668
              -0.003327416340219             1.663612507253768            -0.019947562628658
               0.028721310170572            -0.019940000143144             1.659742056637316

                                               :  max(cpu_time)    wall_clock(cpu1)
  | Time for  dielectric calculation            :        0.001 s           0.001 s
===========================================================================

------------------------------------------------------------------------------
  Final output of selected total energy values:

  The following output summarizes some interesting total energy values
  at the end of a run (AFTER all relaxation, molecular dynamics, etc.).

  | Total energy of the DFT / Hartree-Fock s.c.f. calculation      :         -66110.544347635 eV
  | Final zero-broadening corrected energy (caution - metals only) :         -66110.544347635 eV
  | For reference only, the value of 1 Hartree used in FHI-aims is :             27.211384500 eV
  | For reference only, the overall average (free atom contribution
  | + realspace contribution) of the electrostatic potential after
  | s.c.f. convergence is                                          :             -4.879172272 eV

  Before relying on these values, please be sure to understand exactly which
  total energy value is referred to by a given number. Different objects may
  all carry the same name 'total energy'. Definitions:

  Total energy of the DFT / Hartree-Fock s.c.f. calculation:
  | Note that this energy does not include ANY quantities calculated after the
  | s.c.f. cycle, in particular not ANY RPA, MP2, etc. many-body perturbation terms.

  Final zero-broadening corrected energy:
  | For metallic systems only, a broadening of the occupation numbers at the Fermi
  | level can be extrapolated back to zero broadening by an electron-gas inspired
  | formula. For all systems that are not real metals, this value can be
  | meaningless and should be avoided.

------------------------------------------------------------------------------
  Methods described in the following list of references were used in this FHI-aims run.
  If you publish the results, please make sure to cite these reference if they apply.
  FHI-aims is an academic code, and for our developers (often, Ph.D. students
  and postdocs), scientific credit in the community is essential.
  Thank you for helping us!

  For any use of FHI-aims, please cite:

    Volker Blum, Ralf Gehrke, Felix Hanke, Paula Havu, Ville Havu,
    Xinguo Ren, Karsten Reuter, and Matthias Scheffler
    'Ab initio molecular simulations with numeric atom-centered orbitals'
    Computer Physics Communications 180, 2175-2196 (2009)
    http://doi.org/10.1016/j.cpc.2009.06.022


  For Hartree-Fock, hybrid functionals, or many-body perturbation theory used in your run, please cite:

    Xinguo Ren, Patrick Rinke, Volker Blum, Juergen Wieferink, Alex Tkatchenko,
    Andrea Sanfilippo, Karsten Reuter, and Matthias Scheffler,
    'Resolution-of-identity approach to Hartree-Fock, hybrid density functionals,
    RPA, MP2, and GW with numeric atom-centered orbital basis functions'
    New Journal of Physics 14, 053020 (2012).
    http://doi.org/10.1088/1367-2630/14/5/053020


  The provided symmetry information was generated with SPGlib:

    Atsushi Togo, Yusuke Seto, Dimitar Pashov
    SPGlib 1.7.3 obtained from http://spglib.sourceforge.net
    Copyright (C) 2008 Atsushi Togo


  The DFPT (perturbation by an electric field) part of the code was used.
  Here is the corresponding reference:

    Honghui Shang, Nathaniel Raimbault, Mariana Rossi,
    Christian Carbogno, Patrick Rinke and Matthias Scheffler,
    'All-Electron, Real-Space Perturbation Theory for Homogeneous
    Electric Fields: Theory, Implementation, and Application within dft'
    New Journal of Physics, 20(7):073040, 2018


  The ELSI infrastructure was used in your run to solve the Kohn-Sham electronic structure.
  Please check out http://elsi-interchange.org to learn more.
  If scalability is important for your project, please acknowledge ELSI by citing:

    V. W-z. Yu, F. Corsetti, A. Garcia, W. P. Huhn, M. Jacquelin, W. Jia,
    B. Lange, L. Lin, J. Lu, W. Mi, A. Seifitokaldani, A. Vazquez-Mayagoitia,
    C. Yang, H. Yang, and V. Blum
    'ELSI: A unified software interface for Kohn-Sham electronic structure solvers'
    Computer Physics Communications 222, 267-285 (2018).
    http://doi.org/10.1016/j.cpc.2017.09.007


  For the real-space grid partitioning and parallelization used in this calculation, please cite:

    Ville Havu, Volker Blum, Paula Havu, and Matthias Scheffler,
    'Efficient O(N) integration for all-electron electronic structure calculation'
    'using numerically tabulated basis functions'
    Journal of Computational Physics 228, 8367-8379 (2009).
    http://doi.org/10.1016/j.jcp.2009.08.008


  The high-level electronic structure method used in your calculation
  employed our efficient localized resolution of identity for the Coulomb operator.
  Some calculations, especially large-scale hybrid density functional theory,
  are only possible thanks to this development. For this feature, please cite:

    Arvid Ihrig, Juergen Wieferink, Igor Ying Zhang, Matti Ropo, Xinguo Ren,
    Patrick Rinke, Matthias Scheffler, and Volker Blum,
    'Accurate localized resolution of identity approach for linear-scaling
    hybrid density functionals and for many-body perturbation theory'
    New Journal of Physics 117, 093020 (2015).
    http://doi.org/10.1088/1367-2630/17/9/093020

  Of course, there are many other important community references, e.g., those cited in the
  above references. Our list is limited to references that describe implementations in the
  FHI-aims code. The reason is purely practical (length of this list) - please credit others as well.

------------------------------------------------------------
          Leaving FHI-aims.
          Date     :  20230221, Time     :  122358.364

          Computational steps:
          | Number of self-consistency cycles          :           45
          | Number of SCF (re)initializations          :            1
          | Number of coupled perturbed self-consistency cycles          :            0
          | Number of CPSCF (re)initializations          :            0

          Detailed time accounting                     :  max(cpu_time)    wall_clock(cpu1)
          | Total time                                  :      466.833 s         508.627 s
          | GPU initialization                          :        3.086 s          35.673 s
          | Preparation time                            :        0.075 s           0.071 s
          | Boundary condition initalization            :        1.274 s           1.274 s
          | Grid partitioning                           :        0.410 s           0.410 s
          | Preloading free-atom quantities on grid     :        2.313 s           2.311 s
          | Free-atom superposition energy              :        0.306 s           0.307 s
          | Total time for integrations                 :       13.280 s          13.503 s
          | Product basis setup: Total time             :        0.000 s           0.000 s
          | Product basis: | 2-center integrations     :(       0.000 s)  (       0.000 s)
          | Product basis: | LVL 3-center & coefficient:(       0.000 s)  (       0.000 s)
          | Total time for solution of K.-S. equations  :        3.099 s           8.217 s
          | Total time for density update               :        9.498 s          10.014 s
          | Total time for mixing & preconditioning     :        8.644 s           8.649 s
          | Total time for Hartree multipole update     :        0.111 s           0.112 s
          | Total time for Hartree multipole sum        :       37.946 s          37.961 s
          | Total time for total energy evaluation      :        0.007 s           0.005 s
          | Total time for DFPT                         :      385.869 s         386.016 s
          | Total time first_order_DM                   :        0.280 s           0.284 s
          | Total time first_order_density              :       80.830 s          80.849 s
          | Total time first_order_potential            :       51.578 s          51.597 s
          | Total time first_order_H                    :      160.576 s         160.633 s
          | Total time solving of Sternheimer equations :        0.175 s           0.172 s
          | Total time for dielectric constant          :        0.001 s           0.001 s
          | Total time momentum matrix                  :        0.000 s           0.000 s

          GPU acceleration has been used for charge density update.
          GPU acceleration has been used for real-space Hamiltonian integration.
          Due to GPU usage, wall_clock(cpu1) will give a more reliable estimate for timings.

          Partial memory accounting:
          | Residual value for overall tracked memory usage across tasks:     0.000000 MB (should be 0.000000 MB)
          | Peak values for overall tracked memory usage:
          |   Minimum:      115.210 MB (on task  0 after allocating DFPT_pulay_mixing::pulay_mix::alphas)
          |   Maximum:      115.210 MB (on task  0 after allocating DFPT_pulay_mixing::pulay_mix::alphas)
          |   Average:      115.210 MB
          | Largest tracked array allocation:
          |   Minimum:       41.088 MB (DFPT_pulay_mixing::initialize_pulay_mixing::X_in_diffs on task  0)
          |   Maximum:       41.088 MB (DFPT_pulay_mixing::initialize_pulay_mixing::X_in_diffs on task  0)
          |   Average:       41.088 MB
          Note:  These values currently only include a subset of arrays which are explicitly tracked.
          The "true" memory usage will be greater.

          Have a nice day.
------------------------------------------------------------
