------------------------------------------------------------
          Invoking FHI-aims ...

          When using FHI-aims, please cite the following reference:

            Volker Blum, Ralf Gehrke, Felix Hanke, Paula Havu,
            Ville Havu, Xinguo Ren, Karsten Reuter, and Matthias Scheffler,
            'Ab Initio Molecular Simulations with Numeric Atom-Centered Orbitals',
            Computer Physics Communications 180, 2175-2196 (2009)

          In addition, many other developments in FHI-aims are likely important for
          your particular application. A partial list of references is given at the end of
          this file. Thank you for giving credit to the authors of these developments.

          For any questions about FHI-aims, please visit our slack channel at

            https://fhi-aims.slack.com

          and our main development and support site at

            https://aims-git.rz-berlin.mpg.de .

          The latter site, in particular, has a wiki to collect information, as well
          as an issue tracker to log discussions, suggest improvements, and report issues
          or bugs. https://aims-git.rz-berlin.mpg.de is also the main development site
          of the project and all new and updated code versions can be obtained there.
          Please send an email to aims-coordinators@fhi-berlin.mpg.de and we will add
          you to these sites. They are for you and everyone is welcome there.

------------------------------------------------------------



  Date     :  20230221, Time     :  130815.468
  Time zero on CPU 1             :   0.397043000000000E+00  s.
  Internal wall clock time zero  :           446216895.468  s.

  FHI-aims created a unique identifier for this run for later identification
  aims_uuid : E4ADDEA8-83DF-464C-A5DF-82E87BA0FF4C

  Build configuration of the current instance of FHI-aims
  -------------------------------------------------------
  FHI-aims version      : 221103
  Commit number         : 42523251a
  CMake host system     : Linux-5.3.18-150300.59.68-default
  CMake version         : 3.17.0
  Fortran compiler      : /mpcdf/soft/SLE_15/packages/x86_64/intel_oneapi/2021.3/mpi/2021.3.0/bin/mpiifort (Intel) version 20.2.3.20210609
  Fortran compiler flags: -O3 -ip -fp-model precise
  C compiler            : /mpcdf/soft/SLE_15/packages/x86_64/intel/2021.3.0/bin/icc (Intel) version 20.2.3.20210609
  C compiler flags      : -O3 -ip -fp-model precise -std=gnu99
  CUDA compiler         : /mpcdf/soft/SLE_15/packages/x86_64/cuda/11.6.2/bin/nvcc
  CUDA compiler flags   : -O3 -DAdd_ -lcublas
  HIP compiler          :
  HIP compiler flags    :
  HIP GPU arch          :
  ELPA2 kernel          : AVX512
  Using MPI
  Using ScaLAPACK
  Using LibXC
  Using CUDA
  Using i-PI
  Using RLSY
  Linking against: /mpcdf/soft/SLE_15/packages/x86_64/cuda/11.6.2/lib64/libcublas.so
                   /mpcdf/soft/SLE_15/packages/x86_64/cuda/11.6.2/lib64/libcudart.so
                   /mpcdf/soft/SLE_15/packages/x86_64/intel_oneapi/2021.3/mkl/latest/lib/intel64/libmkl_intel_lp64.so
                   /mpcdf/soft/SLE_15/packages/x86_64/intel_oneapi/2021.3/mkl/latest/lib/intel64/libmkl_sequential.so
                   /mpcdf/soft/SLE_15/packages/x86_64/intel_oneapi/2021.3/mkl/latest/lib/intel64/libmkl_core.so
                   /mpcdf/soft/SLE_15/packages/x86_64/intel_oneapi/2021.3/mkl/latest/lib/intel64/libmkl_blacs_intelmpi_lp64.so
                   /mpcdf/soft/SLE_15/packages/x86_64/intel_oneapi/2021.3/mkl/latest/lib/intel64/libmkl_scalapack_lp64.so

  Using       18 parallel tasks.
  Task        0 on host adag039 reporting.
  Task        1 on host adag039 reporting.
  Task        2 on host adag039 reporting.
  Task        3 on host adag039 reporting.
  Task        4 on host adag039 reporting.
  Task        5 on host adag039 reporting.
  Task        6 on host adag039 reporting.
  Task        7 on host adag039 reporting.
  Task        8 on host adag039 reporting.
  Task        9 on host adag039 reporting.
  Task       10 on host adag039 reporting.
  Task       11 on host adag039 reporting.
  Task       12 on host adag039 reporting.
  Task       13 on host adag039 reporting.
  Task       14 on host adag039 reporting.
  Task       15 on host adag039 reporting.
  Task       16 on host adag039 reporting.
  Task       17 on host adag039 reporting.

  Obtaining array dimensions for all initial allocations:
  
  -----------------------------------------------------------------------
  Parsing control.in (first pass over file, find array dimensions only).
  The contents of control.in will be repeated verbatim below
  unless switched off by setting 'verbatim_writeout .false.' .
  in the first line of control.in .
  -----------------------------------------------------------------------
  
  #########################################################################################
  #
  #  Volker Blum, 2017 : Test run input file control.in for simple H2O
  #
  #########################################################################################
  #
  #  Physical model
  #
    xc                 pw-lda
    spin               none
    relativistic       none
    charge             0.
  
    use_gpu
  
    DFPT dielectric
    ri_density_restart write
    ri_rho1 write
  #  ri_density_restart read 0
  #  ri_rho1 read
    ri_full_output .true.
    sc_accuracy_rho    1d-6
  #  use_calculate_fock_matrix_old .false.
  #  wave_threshold 1e-8
    k_grid 1 1 1
  #  output cube eigenstate 160
  #  output cube eigenstate 161
    wave_threshold 1e-8
    default_prodbas_acc 1e-6
    default_max_l_prodbas 6
  #
  #  Relaxation
  #
  #  relax_geometry   bfgs 1.e-2
  #
  
  ################################################################################
  
  
  ################################################################################
  #
  #  FHI-aims code project
  #  VB, Fritz-Haber Institut, 2009
  #
  #  Suggested "light" defaults for H atom (to be pasted into control.in file)
  #  Be sure to double-check any results obtained with these settings for post-processing,
  #  e.g., with the "tight" defaults and larger basis sets.
  #
  ################################################################################
    species        H
  #     global species definitions
      nucleus             1
      mass                1.00794
  #
      l_hartree           4
  #
      cut_pot             3.5  1.5  1.0
      basis_dep_cutoff    1e-4
  #
      radial_base         24 5.0
      radial_multiplier   1
      angular_grids       specified
        division   0.2421   50
        division   0.3822  110
        division   0.4799  194
        division   0.5341  302
  #      division   0.5626  434
  #      division   0.5922  590
  #      division   0.6542  770
  #      division   0.6868 1202
  #      outer_grid  770
        outer_grid  302
  ################################################################################
  #
  #  Definition of "minimal" basis
  #
  ################################################################################
  #     valence basis states
      valence      1  s   1.
  #     ion occupancy
      ion_occ      1  s   0.5
  ################################################################################
  #
  #  Suggested additional basis functions. For production calculations,
  #  uncomment them one after another (the most important basis functions are
  #  listed first).
  #
  #  Basis constructed for dimers: 0.5 A, 0.7 A, 1.0 A, 1.5 A, 2.5 A
  #
  ################################################################################
  #  "First tier" - improvements: -1014.90 meV to -62.69 meV
       hydro 2 s 2.1
       hydro 2 p 3.5
  #  "Second tier" - improvements: -12.89 meV to -1.83 meV
  #     hydro 1 s 0.85
  #     hydro 2 p 3.7
  #     hydro 2 s 1.2
  #     hydro 3 d 7
  #  "Third tier" - improvements: -0.25 meV to -0.12 meV
  #     hydro 4 f 11.2
  #     hydro 3 p 4.8
  #     hydro 4 d 9
  #     hydro 3 s 3.2
  ################################################################################
  #
  #  FHI-aims code project
  #  VB, Fritz-Haber Institut, 2009
  #
  #  Suggested "light" defaults for O atom (to be pasted into control.in file)
  #  Be sure to double-check any results obtained with these settings for post-processing,
  #  e.g., with the "tight" defaults and larger basis sets.
  #
  ################################################################################
    species        O
  #     global species definitions
      nucleus             8
      mass                15.9994
  #
      l_hartree           4
  #
      cut_pot             3.5  1.5  1.0
      basis_dep_cutoff    1e-4
  #
      radial_base         36 5.0
      radial_multiplier   1
       angular_grids specified
        division   0.2659   50
        division   0.4451  110
        division   0.6052  194
        division   0.7543  302
  #      division   0.8014  434
  #      division   0.8507  590
  #      division   0.8762  770
  #      division   0.9023  974
  #      division   1.2339 1202
  #      outer_grid 974
        outer_grid 302
  ################################################################################
  #
  #  Definition of "minimal" basis
  #
  ################################################################################
  #     valence basis states
      valence      2  s   2.
      valence      2  p   4.
  #     ion occupancy
      ion_occ      2  s   1.
      ion_occ      2  p   3.
  ################################################################################
  #
  #  Suggested additional basis functions. For production calculations,
  #  uncomment them one after another (the most important basis functions are
  #  listed first).
  #
  #  Constructed for dimers: 1.0 A, 1.208 A, 1.5 A, 2.0 A, 3.0 A
  #
  ################################################################################
  #  "First tier" - improvements: -699.05 meV to -159.38 meV
       hydro 2 p 1.8
       hydro 3 d 7.6
       hydro 3 s 6.4
  #  "Second tier" - improvements: -49.91 meV to -5.39 meV
  #     hydro 4 f 11.6
  #     hydro 3 p 6.2
  #     hydro 3 d 5.6
  #     hydro 5 g 17.6
  #     hydro 1 s 0.75
  #  "Third tier" - improvements: -2.83 meV to -0.50 meV
  #     ionic 2 p auto
  #     hydro 4 f 10.8
  #     hydro 4 d 4.7
  #     hydro 2 s 6.8
  #  "Fourth tier" - improvements: -0.40 meV to -0.12 meV
  #     hydro 3 p 5
  #     hydro 3 s 3.3
  #     hydro 5 g 15.6
  #     hydro 4 f 17.6
  #     hydro 4 d 14
  # Further basis functions - -0.08 meV and below
  #     hydro 3 s 2.1
  #     hydro 4 d 11.6
  #     hydro 3 p 16
  #     hydro 2 s 17.2
  
  -----------------------------------------------------------------------
  Completed first pass over input file control.in .
  -----------------------------------------------------------------------
  
  
  -----------------------------------------------------------------------
  Parsing geometry.in (first pass over file, find array dimensions only).
  The contents of geometry.in will be repeated verbatim below
  unless switched off by setting 'verbatim_writeout .false.' .
  in the first line of geometry.in .
  -----------------------------------------------------------------------
  
  #=======================================================
  # FHI-aims file: /ada/ptmp/mpsd/alewis/bulk_water/qmdata/data/geoms/83.in
  # Created using the Atomic Simulation Environment (ASE)
  # Tue Feb 21 11:23:37 2023
  #=======================================================
  lattice_vector 9.8841099999999997 0.0000000000000000 0.0000000000000000
  lattice_vector 0.0000000000000000 9.8841099999999997 0.0000000000000000
  lattice_vector 0.0000000000000000 0.0000000000000000 9.8841099999999997
  atom 8.6020299999999992 12.1898000000000000 -9.6282700000000006 O
  atom 8.5957799999999995 11.1595999999999993 -9.5342099999999999 H
  atom 7.6894700000000000 12.3042999999999996 -9.6750699999999998 H
  atom 24.3118000000000016 19.1114999999999995 0.7338610000000000 O
  atom 23.7000999999999991 18.3888999999999996 0.8510620000000000 H
  atom 25.1174999999999997 19.1203000000000003 0.1222410000000000 H
  atom 6.0569199999999999 -6.8510499999999999 0.5407300000000000 O
  atom 6.2817800000000004 -5.8687399999999998 0.7825380000000000 H
  atom 5.2324400000000004 -7.0867699999999996 0.8734270000000000 H
  atom 0.0576840000000000 2.2973200000000000 3.3404600000000002 O
  atom 0.1030830000000000 1.5133399999999999 2.8927100000000001 H
  atom 0.6298030000000000 2.7339699999999998 2.9311600000000002 H
  atom -6.2984600000000004 -0.6219400000000000 6.1537300000000004 O
  atom -5.4851900000000002 -1.2283999999999999 6.1104900000000004 H
  atom -6.3502299999999998 -0.2795370000000000 5.2765399999999998 H
  atom 1.4186300000000001 3.5612300000000001 15.6883999999999997 O
  atom 0.9454240000000000 3.0753400000000002 14.9797999999999991 H
  atom 0.6655660000000000 3.4505499999999998 16.2829000000000015 H
  atom 6.2037599999999999 9.6079200000000000 7.6555000000000000 O
  atom 5.6156499999999996 10.3466000000000005 7.6903400000000000 H
  atom 5.6308800000000003 9.0280199999999997 7.1578499999999998 H
  atom 7.7864300000000002 -5.2890400000000000 5.6467999999999998 O
  atom 6.7406600000000001 -5.3455599999999999 5.4405299999999999 H
  atom 8.0699900000000007 -6.1052999999999997 6.0928599999999999 H
  atom 0.6479330000000000 -3.1410399999999998 -7.9482499999999998 O
  atom 0.8348620000000000 -3.0008300000000001 -6.9580000000000002 H
  atom 0.5242520000000001 -4.0315799999999999 -7.9605600000000001 H
  atom 4.7653600000000003 4.3460200000000002 5.6032400000000004 O
  atom 4.2109399999999999 4.2620600000000000 4.7752600000000003 H
  atom 4.2853100000000000 4.2095700000000003 6.4201800000000002 H
  atom 8.7605400000000007 9.6684699999999992 -7.2232300000000000 O
  atom 8.5102899999999995 9.0450199999999992 -7.9319300000000004 H
  atom 7.6955700000000000 10.0652000000000008 -6.9155800000000003 H
  atom -16.0105000000000004 -4.2580499999999999 11.7559000000000005 O
  atom -16.6219999999999999 -3.4691100000000001 11.3107000000000006 H
  atom -15.2239000000000004 -4.3806099999999999 11.3530999999999995 H
  atom -3.2164899999999998 1.1812100000000001 3.6757800000000000 O
  atom -4.1887699999999999 0.9491260000000000 3.6411400000000000 H
  atom -3.2231200000000002 1.8351500000000001 3.0717200000000000 H
  atom 0.5308900000000000 -3.4577700000000000 -5.1843800000000000 O
  atom 0.8070160000000000 -2.9907800000000000 -4.5028600000000001 H
  atom 0.4422710000000000 -4.4902800000000003 -4.8138399999999999 H
  atom -6.7474100000000004 4.5852700000000004 -11.8481000000000005 O
  atom -7.5144200000000003 4.5049999999999999 -12.4406999999999996 H
  atom -6.7645700000000000 5.5338700000000003 -11.4384999999999994 H
  atom -1.6679999999999999 17.8753999999999991 0.6125680000000000 O
  atom -1.1470700000000000 18.1677000000000000 -0.3727680000000000 H
  atom -0.8051330000000000 17.3968999999999987 0.9646090000000000 H
  atom -4.1958200000000003 7.2302400000000002 6.1375799999999998 O
  atom -4.6196000000000002 6.4889599999999996 5.6278300000000003 H
  atom -3.2551199999999998 7.3544600000000004 5.8817800000000000 H
  atom -3.3967999999999998 5.7015399999999996 11.1663999999999994 O
  atom -2.7791199999999998 5.0899200000000002 11.6976999999999993 H
  atom -2.7664000000000000 6.3947000000000003 10.7651000000000003 H
  atom 13.9556000000000004 0.7435810000000000 3.4729700000000001 O
  atom 13.7220999999999993 1.6266099999999999 3.6624699999999999 H
  atom 14.0725999999999996 0.7243640000000000 2.5330400000000002 H
  atom -9.0698799999999995 3.8067500000000001 10.9433000000000007 O
  atom -8.2606400000000004 3.6878700000000002 10.5376999999999992 H
  atom -9.7545099999999998 3.1661000000000001 10.5233000000000008 H
  atom 2.5511900000000001 7.4367599999999996 19.8140999999999998 O
  atom 1.9360500000000000 7.0755499999999998 20.5012000000000008 H
  atom 2.1350099999999999 7.3012100000000002 18.7194000000000003 H
  atom -1.7030200000000000 10.5827000000000009 6.0960900000000002 O
  atom -2.3707099999999999 10.2234999999999996 6.6664500000000002 H
  atom -1.9301500000000000 10.5235000000000003 5.1114899999999999 H
  atom 7.9174199999999999 4.1960800000000003 3.0462099999999999 O
  atom 8.2234300000000005 4.7421499999999996 3.8686199999999999 H
  atom 8.6161300000000001 3.5212599999999998 3.2420300000000002 H
  atom -0.6067100000000000 2.8185500000000001 7.3292999999999999 O
  atom -0.8953020000000000 2.8375100000000000 8.2042699999999993 H
  atom -1.2386299999999999 2.0798700000000001 6.8732699999999998 H
  atom -0.1807400000000000 -0.5127710000000000 -1.6246000000000000 O
  atom -0.6583090000000000 -0.4144900000000000 -2.3964099999999999 H
  atom 0.6126070000000000 0.0314340000000000 -1.5235799999999999 H
  atom 15.7522000000000002 2.4850400000000001 7.4614300000000000 O
  atom 15.8788000000000000 3.5260400000000001 7.2348900000000000 H
  atom 15.5368999999999993 2.3270100000000000 8.3898100000000007 H
  atom 7.8502400000000003 17.7840999999999987 14.3660999999999994 O
  atom 8.3500800000000002 18.4134999999999991 13.7789000000000001 H
  atom 8.5863999999999994 17.0972000000000008 14.5172000000000008 H
  atom 12.6228999999999996 10.2630999999999997 8.4268699999999992 O
  atom 13.3887999999999998 10.1690000000000005 9.0613399999999995 H
  atom 13.0345999999999993 9.9087999999999994 7.6530699999999996 H
  atom -1.4070900000000000 6.5619600000000000 7.4158499999999998 O
  atom -1.6636100000000000 5.7799399999999999 6.8616000000000001 H
  atom -2.1505600000000000 6.7037800000000001 7.9160599999999999 H
  atom 3.1797499999999999 2.8371200000000001 0.0321390000000000 O
  atom 3.4474200000000002 3.5624099999999999 -0.4765480000000000 H
  atom 2.8671199999999999 1.9674400000000001 -0.3377360000000000 H
  atom 1.7785500000000001 -2.6678000000000002 7.0095499999999999 O
  atom 0.9618910000000001 -2.1284500000000000 7.4459900000000001 H
  atom 2.3145400000000000 -2.0365400000000000 6.5258099999999999 H
  atom 13.2220999999999993 3.4501800000000000 13.3706999999999994 O
  atom 13.5610999999999997 4.0847300000000004 12.5821000000000005 H
  atom 12.3996999999999993 3.7827000000000002 13.7809000000000008 H
  
  -----------------------------------------------------------------------
  Completed first pass over input file geometry.in .
  -----------------------------------------------------------------------
  

  Basic array size parameters:
  | Number of species                 :        2
  | Number of atoms                   :       96
  | Number of lattice vectors         :        3
  | Max. basis fn. angular momentum   :        2
  | Max. atomic/ionic basis occupied n:        2
  | Max. number of basis fn. types    :        2
  | Max. radial fns per species/type  :        3
  | Max. logarithmic grid size        :     1301
  | Max. radial integration grid size :       36
  | Max. angular integration grid size:      302
  | Max. angular grid division number :        8
  | Radial grid for Hartree potential :     1301
  | Number of spin channels           :        1

------------------------------------------------------------
          Reading file control.in.
------------------------------------------------------------
  XC: Using Perdew-Wang parametrisation of Ceperley-Alder LDA.
  Spin treatment: No spin polarisation.
  Non-relativistic treatment of kinetic energy.
  Charge =   0.000000E+00: Neutral system requested explicitly.
  DFPT calculation will begin after the DFT/HF calculation.
  Convergence accuracy of self-consistent charge density:  0.1000E-05
  Found k-point grid:         1         1         1
  Threshold value for wave function integration:  0.1000E-07
 
  Reading configuration options for species H                   .
  | Found nuclear charge :   1.0000
  | Found atomic mass :    1.00794000000000      amu
  | Found l_max for Hartree potential  :   4
  | Found cutoff potl. onset [A], width [A], scale factor :    3.50000    1.50000    1.00000
  | Threshold for basis-dependent cutoff potential is   0.100000E-03
  | Found data for basic radial integration grid :    24 points, outermost radius =    5.000 A
  | Found multiplier for basic radial grid :   1
  | Found angular grid specification: user-specified.
  | Specified grid contains     5 separate shells.
  | Check grid settings after all constraints further below.
  | Found free-atom valence shell :  1 s   1.000
  | No ionic wave fns used. Skipping ion_occ.
  | Found hydrogenic basis function :  2 s   2.100
  | Found hydrogenic basis function :  2 p   3.500
  Species H                   : Missing cutoff potential type.
  Defaulting to exp(1/x)/(1-x)^2 type cutoff potential.
  Species H : No 'logarithmic' tag. Using default grid for free atom:
  | Default logarithmic grid data [bohr] : 0.1000E-03 0.1000E+03 0.1012E+01
  Species H : On-site basis accuracy parameter (for Gram-Schmidt orthonormalisation) not specified.
  Using default value basis_acc =  0.1000000E-03.
  Species H                   : Using default innermost maximum threshold i_radial=  2 for radial functions.
  Species H                   : Default cutoff onset for free atom density etc. : 0.35000000E+01 AA.
  Species H                   : Basic radial grid will be enhanced according to radial_multiplier =   1, to contain    24 grid points.
 
  Reading configuration options for species O                   .
  | Found nuclear charge :   8.0000
  | Found atomic mass :    15.9994000000000      amu
  | Found l_max for Hartree potential  :   4
  | Found cutoff potl. onset [A], width [A], scale factor :    3.50000    1.50000    1.00000
  | Threshold for basis-dependent cutoff potential is   0.100000E-03
  | Found data for basic radial integration grid :    36 points, outermost radius =    5.000 A
  | Found multiplier for basic radial grid :   1
  | Found angular grid specification: user-specified.
  | Specified grid contains     5 separate shells.
  | Check grid settings after all constraints further below.
  | Found free-atom valence shell :  2 s   2.000
  | Found free-atom valence shell :  2 p   4.000
  | No ionic wave fns used. Skipping ion_occ.
  | No ionic wave fns used. Skipping ion_occ.
  | Found hydrogenic basis function :  2 p   1.800
  | Found hydrogenic basis function :  3 d   7.600
  | Found hydrogenic basis function :  3 s   6.400
  Species O                   : Missing cutoff potential type.
  Defaulting to exp(1/x)/(1-x)^2 type cutoff potential.
  Species O : No 'logarithmic' tag. Using default grid for free atom:
  | Default logarithmic grid data [bohr] : 0.1000E-03 0.1000E+03 0.1012E+01
  Species O : On-site basis accuracy parameter (for Gram-Schmidt orthonormalisation) not specified.
  Using default value basis_acc =  0.1000000E-03.
  Species O                   : Using default innermost maximum threshold i_radial=  2 for radial functions.
  Species O                   : Default cutoff onset for free atom density etc. : 0.35000000E+01 AA.
  Species O                   : Basic radial grid will be enhanced according to radial_multiplier =   1, to contain    36 grid points.
 
  Finished reading input file 'control.in'.
 
------------------------------------------------------------


------------------------------------------------------------
          Reading geometry description geometry.in.
------------------------------------------------------------
  | The smallest distance between any two atoms is         0.82795523 AA.
  | The first atom of this pair is atom number                     10 .
  | The second atom of this pair is atom number                    12 .
  | Wigner-Seitz cell of the first atom image           0     0     0 .
  | (The Wigner-Seitz cell of the second atom is 0 0 0  by definition.)

  Symmetry information by spglib:
  | Precision set to  0.1E-04
  | Number of Operations  : 1
  | Space group           : 1
  | International         : P1  g
  | Schoenflies           : C1^1
  Input structure read successfully.
  The structure contains       96 atoms,  and a total of        320.000 electrons.

  Input geometry:
  | Unit cell:
  |        9.88411000        0.00000000        0.00000000
  |        0.00000000        9.88411000        0.00000000
  |        0.00000000        0.00000000        9.88411000
  | Atomic structure:
  |       Atom                x [A]            y [A]            z [A]
  |    1: Species O             8.60203000       12.18980000       -9.62827000
  |    2: Species H             8.59578000       11.15960000       -9.53421000
  |    3: Species H             7.68947000       12.30430000       -9.67507000
  |    4: Species O            24.31180000       19.11150000        0.73386100
  |    5: Species H            23.70010000       18.38890000        0.85106200
  |    6: Species H            25.11750000       19.12030000        0.12224100
  |    7: Species O             6.05692000       -6.85105000        0.54073000
  |    8: Species H             6.28178000       -5.86874000        0.78253800
  |    9: Species H             5.23244000       -7.08677000        0.87342700
  |   10: Species O             0.05768400        2.29732000        3.34046000
  |   11: Species H             0.10308300        1.51334000        2.89271000
  |   12: Species H             0.62980300        2.73397000        2.93116000
  |   13: Species O            -6.29846000       -0.62194000        6.15373000
  |   14: Species H            -5.48519000       -1.22840000        6.11049000
  |   15: Species H            -6.35023000       -0.27953700        5.27654000
  |   16: Species O             1.41863000        3.56123000       15.68840000
  |   17: Species H             0.94542400        3.07534000       14.97980000
  |   18: Species H             0.66556600        3.45055000       16.28290000
  |   19: Species O             6.20376000        9.60792000        7.65550000
  |   20: Species H             5.61565000       10.34660000        7.69034000
  |   21: Species H             5.63088000        9.02802000        7.15785000
  |   22: Species O             7.78643000       -5.28904000        5.64680000
  |   23: Species H             6.74066000       -5.34556000        5.44053000
  |   24: Species H             8.06999000       -6.10530000        6.09286000
  |   25: Species O             0.64793300       -3.14104000       -7.94825000
  |   26: Species H             0.83486200       -3.00083000       -6.95800000
  |   27: Species H             0.52425200       -4.03158000       -7.96056000
  |   28: Species O             4.76536000        4.34602000        5.60324000
  |   29: Species H             4.21094000        4.26206000        4.77526000
  |   30: Species H             4.28531000        4.20957000        6.42018000
  |   31: Species O             8.76054000        9.66847000       -7.22323000
  |   32: Species H             8.51029000        9.04502000       -7.93193000
  |   33: Species H             7.69557000       10.06520000       -6.91558000
  |   34: Species O           -16.01050000       -4.25805000       11.75590000
  |   35: Species H           -16.62200000       -3.46911000       11.31070000
  |   36: Species H           -15.22390000       -4.38061000       11.35310000
  |   37: Species O            -3.21649000        1.18121000        3.67578000
  |   38: Species H            -4.18877000        0.94912600        3.64114000
  |   39: Species H            -3.22312000        1.83515000        3.07172000
  |   40: Species O             0.53089000       -3.45777000       -5.18438000
  |   41: Species H             0.80701600       -2.99078000       -4.50286000
  |   42: Species H             0.44227100       -4.49028000       -4.81384000
  |   43: Species O            -6.74741000        4.58527000      -11.84810000
  |   44: Species H            -7.51442000        4.50500000      -12.44070000
  |   45: Species H            -6.76457000        5.53387000      -11.43850000
  |   46: Species O            -1.66800000       17.87540000        0.61256800
  |   47: Species H            -1.14707000       18.16770000       -0.37276800
  |   48: Species H            -0.80513300       17.39690000        0.96460900
  |   49: Species O            -4.19582000        7.23024000        6.13758000
  |   50: Species H            -4.61960000        6.48896000        5.62783000
  |   51: Species H            -3.25512000        7.35446000        5.88178000
  |   52: Species O            -3.39680000        5.70154000       11.16640000
  |   53: Species H            -2.77912000        5.08992000       11.69770000
  |   54: Species H            -2.76640000        6.39470000       10.76510000
  |   55: Species O            13.95560000        0.74358100        3.47297000
  |   56: Species H            13.72210000        1.62661000        3.66247000
  |   57: Species H            14.07260000        0.72436400        2.53304000
  |   58: Species O            -9.06988000        3.80675000       10.94330000
  |   59: Species H            -8.26064000        3.68787000       10.53770000
  |   60: Species H            -9.75451000        3.16610000       10.52330000
  |   61: Species O             2.55119000        7.43676000       19.81410000
  |   62: Species H             1.93605000        7.07555000       20.50120000
  |   63: Species H             2.13501000        7.30121000       18.71940000
  |   64: Species O            -1.70302000       10.58270000        6.09609000
  |   65: Species H            -2.37071000       10.22350000        6.66645000
  |   66: Species H            -1.93015000       10.52350000        5.11149000
  |   67: Species O             7.91742000        4.19608000        3.04621000
  |   68: Species H             8.22343000        4.74215000        3.86862000
  |   69: Species H             8.61613000        3.52126000        3.24203000
  |   70: Species O            -0.60671000        2.81855000        7.32930000
  |   71: Species H            -0.89530200        2.83751000        8.20427000
  |   72: Species H            -1.23863000        2.07987000        6.87327000
  |   73: Species O            -0.18074000       -0.51277100       -1.62460000
  |   74: Species H            -0.65830900       -0.41449000       -2.39641000
  |   75: Species H             0.61260700        0.03143400       -1.52358000
  |   76: Species O            15.75220000        2.48504000        7.46143000
  |   77: Species H            15.87880000        3.52604000        7.23489000
  |   78: Species H            15.53690000        2.32701000        8.38981000
  |   79: Species O             7.85024000       17.78410000       14.36610000
  |   80: Species H             8.35008000       18.41350000       13.77890000
  |   81: Species H             8.58640000       17.09720000       14.51720000
  |   82: Species O            12.62290000       10.26310000        8.42687000
  |   83: Species H            13.38880000       10.16900000        9.06134000
  |   84: Species H            13.03460000        9.90880000        7.65307000
  |   85: Species O            -1.40709000        6.56196000        7.41585000
  |   86: Species H            -1.66361000        5.77994000        6.86160000
  |   87: Species H            -2.15056000        6.70378000        7.91606000
  |   88: Species O             3.17975000        2.83712000        0.03213900
  |   89: Species H             3.44742000        3.56241000       -0.47654800
  |   90: Species H             2.86712000        1.96744000       -0.33773600
  |   91: Species O             1.77855000       -2.66780000        7.00955000
  |   92: Species H             0.96189100       -2.12845000        7.44599000
  |   93: Species H             2.31454000       -2.03654000        6.52581000
  |   94: Species O            13.22210000        3.45018000       13.37070000
  |   95: Species H            13.56110000        4.08473000       12.58210000
  |   96: Species H            12.39970000        3.78270000       13.78090000

  Lattice parameters for 3D lattice (in Angstroms) :     9.884110    9.884110    9.884110
  Angle(s) between unit vectors (in degrees)       :    90.000000   90.000000   90.000000


  Quantities derived from the lattice vectors (in Angstrom^-1):
  | Reciprocal lattice vector 1:  0.635685  0.000000  0.000000
  | Reciprocal lattice vector 2:  0.000000  0.635685  0.000000
  | Reciprocal lattice vector 3:  0.000000  0.000000  0.635685
  | Unit cell volume                               :   0.965634E+03  Angstrom^3

  Fractional coordinates:
                         L1                L2                L3
       atom_frac         0.87028878        1.23327239       -0.97411603  O
       atom_frac         0.86965645        1.12904450       -0.96459975  H
       atom_frac         0.77796281        1.24485664       -0.97885090  H
       atom_frac         2.45968529        1.93355800        0.07424654  O
       atom_frac         2.39779808        1.86045076        0.08610406  H
       atom_frac         2.54119997        1.93444832        0.01236743  H
       atom_frac         0.61279367       -0.69313777        0.05470700  O
       atom_frac         0.63554331       -0.59375503        0.07917132  H
       atom_frac         0.52937897       -0.71698615        0.08836678  H
       atom_frac         0.00583603        0.23242558        0.33796265  O
       atom_frac         0.01042916        0.15310837        0.29266267  H
       atom_frac         0.06371874        0.27660255        0.29655275  H
       atom_frac        -0.63723087       -0.06292322        0.62258817  O
       atom_frac        -0.55495032       -0.12428028        0.61821348  H
       atom_frac        -0.64246857       -0.02828145        0.53384068  H
       atom_frac         0.14352633        0.36029850        1.58723446  O
       atom_frac         0.09565090        0.31113980        1.51554364  H
       atom_frac         0.06733697        0.34910073        1.64738150  H
       atom_frac         0.62764983        0.97205717        0.77452598  O
       atom_frac         0.56814928        1.04679126        0.77805083  H
       atom_frac         0.56969014        0.91338724        0.72417749  H
       atom_frac         0.78777250       -0.53510534        0.57130081  O
       atom_frac         0.68196934       -0.54082360        0.55043196  H
       atom_frac         0.81646097       -0.61768839        0.61642981  H
       atom_frac         0.06555299       -0.31778683       -0.80414423  O
       atom_frac         0.08446507       -0.30360144       -0.70395817  H
       atom_frac         0.05303988       -0.40788498       -0.80538966  H
       atom_frac         0.48212333        0.43969766        0.56689373  O
       atom_frac         0.42603128        0.43120321        0.48312493  H
       atom_frac         0.43355547        0.42589267        0.64954558  H
       atom_frac         0.88632563        0.97818316       -0.73079215  O
       atom_frac         0.86100721        0.91510718       -0.80249309  H
       atom_frac         0.77857996        1.01832133       -0.69966643  H
       atom_frac        -1.61982212       -0.43079751        1.18937365  O
       atom_frac        -1.68168909       -0.35097849        1.14433166  H
       atom_frac        -1.54023984       -0.44319721        1.14862137  H
       atom_frac        -0.32542030        0.11950595        0.37188781  O
       atom_frac        -0.42378828        0.09602544        0.36838319  H
       atom_frac        -0.32609107        0.18566669        0.31077355  H
       atom_frac         0.05371146       -0.34983119       -0.52451662  O
       atom_frac         0.08164782       -0.30258465       -0.45556555  H
       atom_frac         0.04474566       -0.45429280       -0.48702817  H
       atom_frac        -0.68265226        0.46390317       -1.19870175  O
       atom_frac        -0.76025257        0.45578206       -1.25865657  H
       atom_frac        -0.68438838        0.55987540       -1.15726150  H
       atom_frac        -0.16875571        1.80849869        0.06197503  O
       atom_frac        -0.11605193        1.83807141       -0.03771387  H
       atom_frac        -0.08145731        1.76008766        0.09759189  H
       atom_frac        -0.42450155        0.73150137        0.62095424  O
       atom_frac        -0.46737643        0.65650423        0.56938156  H
       atom_frac        -0.32932859        0.74406902        0.59507432  H
       atom_frac        -0.34366271        0.57683899        1.12973247  O
       atom_frac        -0.28117048        0.51495987        1.18348541  H
       atom_frac        -0.27988357        0.64696771        1.08913195  H
       atom_frac         1.41192277        0.07522994        0.35136902  O
       atom_frac         1.38829900        0.16456818        0.37054120  H
       atom_frac         1.42375995        0.07328571        0.25627396  H
       atom_frac        -0.91762233        0.38513837        1.10716089  O
       atom_frac        -0.83574950        0.37311098        1.06612533  H
       atom_frac        -0.98688805        0.32032221        1.06466844  H
       atom_frac         0.25811024        0.75239551        2.00464179  O
       atom_frac         0.19587500        0.71585100        2.07415741  H
       atom_frac         0.21600427        0.73868158        1.89388827  H
       atom_frac        -0.17229877        1.07067809        0.61675659  O
       atom_frac        -0.23985063        1.03433693        0.67446133  H
       atom_frac        -0.19527808        1.06468868        0.51714216  H
       atom_frac         0.80102508        0.42452785        0.30819264  O
       atom_frac         0.83198487        0.47977511        0.39139791  H
       atom_frac         0.87171531        0.35625463        0.32800424  H
       atom_frac        -0.06138236        0.28515972        0.74152352  O
       atom_frac        -0.09057993        0.28707795        0.83004641  H
       atom_frac        -0.12531528        0.21042562        0.69538583  H
       atom_frac        -0.01828592       -0.05187832       -0.16436482  O
       atom_frac        -0.06660276       -0.04193498       -0.24245076  H
       atom_frac         0.06197897        0.00318026       -0.15414438  H
       atom_frac         1.59368926        0.25141768        0.75489144  O
       atom_frac         1.60649770        0.35673824        0.73197182  H
       atom_frac         1.57190683        0.23542939        0.84881795  H
       atom_frac         0.79422831        1.79926164        1.45345408  O
       atom_frac         0.84479837        1.86293961        1.39404559  H
       atom_frac         0.86870745        1.72976626        1.46874124  H
       atom_frac         1.27709020        1.03834336        0.85256740  O
       atom_frac         1.35457821        1.02882303        0.91675831  H
       atom_frac         1.31874291        1.00249795        0.77428013  H
       atom_frac        -0.14235880        0.66388982        0.75027999  O
       atom_frac        -0.16831156        0.58477091        0.69420514  H
       atom_frac        -0.21757751        0.67823810        0.80088749  H
       atom_frac         0.32170322        0.28703849        0.00325158  O
       atom_frac         0.34878406        0.36041788       -0.04821355  H
       atom_frac         0.29007366        0.19905080       -0.03416959  H
       atom_frac         0.17994033       -0.26990796        0.70917361  O
       atom_frac         0.09731691       -0.21534058        0.75332933  H
       atom_frac         0.23416777       -0.20604182        0.66023243  H
       atom_frac         1.33771275        0.34906329        1.35274698  O
       atom_frac         1.37201023        0.41326230        1.27296236  H
       atom_frac         1.25450850        0.38270517        1.39424794  H

 
  Finished reading input file 'geometry.in'.
 

 
  Consistency checks for stacksize environment parameter are next.
 
  | Maximum stacksize for task 0: unlimited
  | Maximum stacksize for task 1: unlimited
  | Maximum stacksize for task 2: unlimited
  | Maximum stacksize for task 3: unlimited
  | Maximum stacksize for task 4: unlimited
  | Maximum stacksize for task 5: unlimited
  | Maximum stacksize for task 6: unlimited
  | Maximum stacksize for task 7: unlimited
  | Maximum stacksize for task 8: unlimited
  | Maximum stacksize for task 9: unlimited
  | Maximum stacksize for task 10: unlimited
  | Maximum stacksize for task 11: unlimited
  | Maximum stacksize for task 12: unlimited
  | Maximum stacksize for task 13: unlimited
  | Maximum stacksize for task 14: unlimited
  | Maximum stacksize for task 15: unlimited
  | Maximum stacksize for task 16: unlimited
  | Maximum stacksize for task 17: unlimited
  | Current stacksize for task 0: unlimited
  | Current stacksize for task 1: unlimited
  | Current stacksize for task 2: unlimited
  | Current stacksize for task 3: unlimited
  | Current stacksize for task 4: unlimited
  | Current stacksize for task 5: unlimited
  | Current stacksize for task 6: unlimited
  | Current stacksize for task 7: unlimited
  | Current stacksize for task 8: unlimited
  | Current stacksize for task 9: unlimited
  | Current stacksize for task 10: unlimited
  | Current stacksize for task 11: unlimited
  | Current stacksize for task 12: unlimited
  | Current stacksize for task 13: unlimited
  | Current stacksize for task 14: unlimited
  | Current stacksize for task 15: unlimited
  | Current stacksize for task 16: unlimited
  | Current stacksize for task 17: unlimited
 
  Consistency checks for the contents of control.in are next.
 
  MPI_IN_PLACE appears to work with this MPI implementation.
  | Keeping use_mpi_in_place .true. (see manual).
  Explicit treatment of the Coulomb operator is needed, but the RI method is not specified.
  Coulomb operator: Defaulting to 'LVL fast' resolution of identity - RI_type = LVL_fast
  Species H: Using default value for prodbas_acc =   1.000000E-06.
  Species H: Using default value max_l_prodbas =     6.
  Species O: Using default value for prodbas_acc =   1.000000E-06.
  Species O: Using default value max_l_prodbas =     6.
  Target number of points in a grid batch is not set.  Since GPU acceleration is enabled, defaulting to  200
  Method for grid partitioning is not set. Defaulting to parallel hash+maxmin partitioning.
  Batch size limit is not set. Defaulting to    200
  By default, will store active basis functions for each batch.
  If in need of memory, prune_basis_once .false. can be used to disable this option.
  communication_type for Hartree potential was not specified.
  Defaulting to calc_hartree .
  Defaulting to Pulay charge density mixer.
  Pulay mixer: Number of relevant iterations not set.
  Defaulting to    8 iterations.
  Pulay mixer: Number of initial linear mixing iterations not set.
  Defaulting to    0 iterations.
  Work space size for distributed Hartree potential not set.
  Defaulting to   0.200000E+03 MB.
  Mixing parameter for charge density mixing has not been set.
  Using default: charge_mix_param =     0.0500.
  The mixing parameter will be adjusted in iteration number     2 of the first full s.c.f. cycle only.
  Algorithm-dependent basis array size parameters:
  | n_max_pulay                         :        8
  Maximum number of self-consistency iterations not provided.
  Presetting  1000 iterations.
  Presetting      1001 iterations before the initial mixing cycle
  is restarted anyway using the sc_init_iter criterion / keyword.
  Presetting a factor      1.000 between actual scf density residual
  and density convergence criterion sc_accuracy_rho below which sc_init_iter
  takes no effect.
  Calculation of forces was not defined in control.in. No forces will be calculated.
  Geometry relaxation not requested: no relaxation will be performed.
  No accuracy limit for integral partition fn. given. Defaulting to  0.1000E-14.
  No occupation type (smearing scheme) given. Defaulting to Gaussian broadening, width =  0.1000E-01 eV.
  The width will be adjusted in iteration number     2 of the first full s.c.f. cycle only.
  S.C.F. convergence parameters will be adjusted in iteration number     2 of the first full s.c.f. cycle only.
  No accuracy for occupation numbers given. Defaulting to  0.1000E-12.
  No threshold value for occupation numbers given. Defaulting to  0.0000E+00.
  No accuracy for fermi level given. Defaulting to  0.1000E-19.
  Maximum # of iterations to find E_F not set. Defaulting to  200.
  Preferred method for the eigenvalue solver ('KS_method') not specified in 'control.in'.
  Calling BLACS routine to test compilation state
  Since ScaLAPACK support is enabled, defaulting to ELPA (via ELSI).
  Will not use alltoall communication since running on < 1024 CPUs.
  Threshold for basis singularities not set.
  Default threshold for basis singularities:  0.1000E-04
  partition_type (choice of integration weights) for integrals was not specified.
  | Using a version of the partition function of Stratmann and coworkers ('stratmann_sparse').
  | At each grid point, the set of atoms used to build the partition table is smoothly restricted to
  | only those atoms whose free-atom density would be non-zero at that grid point.
  Partitioning for Hartree potential was not defined. Using partition_type for integrals.
  | Adjusted default value of keyword multip_moments_threshold to:       0.10000000E-11
  | This value may affect high angular momentum components of the Hartree potential in periodic systems.
  Angular momentum expansion for Kerker preconditioner not set explicitly.
  | Using default value of   0
  No explicit requirement for turning off preconditioner.
  | By default, it will be turned off when the charge convergence reaches
  | sc_accuracy_rho  =   0.100000E-05
  No special mixing parameter while Kerker preconditioner is on.
  Using default: charge_mix_param =     0.0500.
  Threshold for auxiliary basis singularities not set.
  Default threshold for auxiliary basis singularities:  0.1000E-04
  No q(lm)/r^(l+1) cutoff set for long-range Hartree potential.
  | Using default value of  0.100000E-09 .
  | Verify using the multipole_threshold keyword.
  Defaulting to new monopole extrapolation.
  Density update method: automatic selection selected.
  Using density matrix based charge density update.
  Using density matrix based charge density update.
  Using packed matrix style: index .
  Defaulting to use time-reversal symmetry for k-point grid.
  Charge integration errors on the 3D integration grid will be compensated
  by explicit normalization and distribution of residual charges.
  Use the "compensate_multipole_errors" flag to change this behaviour.
  Default to 1D ("use_logsbt") integrations for auxiliary 2-center integrals.
  Default onset of logarithmic r-grid for SBT is -38.000000000000
  Default onset of logarithmic k-grid for SBT is -25.000000000000
  Default range of logarithmic r- and k-grid for SBT is  45.000000000000
  Default number of logarithmic r- and k-grid for SBT is   4096
  Default of use_2d_corr is to use the efficient 2D distribution where possible
 
  Consistency checks for the contents of geometry.in are next.
 

  Range separation radius for Ewald summation (hartree_convergence_parameter):      2.98326958 bohr.
  Number of empty states per atom not set in control.in .
  | Since you are using a method that relies on the unoccupied spectrum
  | (MP2,GW,RPA et al.), will use the full Hamiltonian size (see below)
  | as the max. possible number of states (occupied plus empty).

  Structure-dependent array size parameters: 
  | Maximum number of distinct radial functions  :        9
  | Maximum number of basis functions            :      768
  | Number of Kohn-Sham states (occupied + empty):      768
------------------------------------------------------------

  Performing system and environment tests:
  | Environment variable OMP_NUM_THREADS correctly set to 1.
  | Checking for ScaLAPACK...
  | Testing pdtran()...
  | All pdtran() tests passed.
CUDA runtime version: 11060
CUDA driver version: 11060
  Initializing GPUs...

  Number of GPUs available to MPI task         0 :   1
  Number of GPUs available to MPI task         1 :   1
  Number of GPUs available to MPI task         2 :   1
  Number of GPUs available to MPI task         3 :   1
  Number of GPUs available to MPI task         4 :   1
  Number of GPUs available to MPI task         5 :   1
  Number of GPUs available to MPI task         6 :   1
  Number of GPUs available to MPI task         7 :   1
  Number of GPUs available to MPI task         8 :   1
  Number of GPUs available to MPI task         9 :   1
  Number of GPUs available to MPI task        10 :   1
  Number of GPUs available to MPI task        11 :   1
  Number of GPUs available to MPI task        12 :   1
  Number of GPUs available to MPI task        13 :   1
  Number of GPUs available to MPI task        14 :   1
  Number of GPUs available to MPI task        15 :   1
  Number of GPUs available to MPI task        16 :   1
  Number of GPUs available to MPI task        17 :   1

  | MPI task         0, GPU activated = T, Device Name = NVIDIA A100-SXM4-80GB
  | MPI task         1, GPU activated = T, Device Name = NVIDIA A100-SXM4-80GB
  | MPI task         2, GPU activated = T, Device Name = NVIDIA A100-SXM4-80GB
  | MPI task         3, GPU activated = T, Device Name = NVIDIA A100-SXM4-80GB
  | MPI task         4, GPU activated = T, Device Name = NVIDIA A100-SXM4-80GB
  | MPI task         5, GPU activated = T, Device Name = NVIDIA A100-SXM4-80GB
  | MPI task         6, GPU activated = T, Device Name = NVIDIA A100-SXM4-80GB
  | MPI task         7, GPU activated = T, Device Name = NVIDIA A100-SXM4-80GB
  | MPI task         8, GPU activated = T, Device Name = NVIDIA A100-SXM4-80GB
  | MPI task         9, GPU activated = T, Device Name = NVIDIA A100-SXM4-80GB
  | MPI task        10, GPU activated = T, Device Name = NVIDIA A100-SXM4-80GB
  | MPI task        11, GPU activated = T, Device Name = NVIDIA A100-SXM4-80GB
  | MPI task        12, GPU activated = T, Device Name = NVIDIA A100-SXM4-80GB
  | MPI task        13, GPU activated = T, Device Name = NVIDIA A100-SXM4-80GB
  | MPI task        14, GPU activated = T, Device Name = NVIDIA A100-SXM4-80GB
  | MPI task        15, GPU activated = T, Device Name = NVIDIA A100-SXM4-80GB
  | MPI task        16, GPU activated = T, Device Name = NVIDIA A100-SXM4-80GB
  | MPI task        17, GPU activated = T, Device Name = NVIDIA A100-SXM4-80GB

------------------------------------------------------------
          Preparing all fixed parts of the calculation.
------------------------------------------------------------
  Determining machine precision:
    2.225073858507201E-308
  Setting up grids for atomic and cluster calculations.

  Creating wave function, potential, and density for free atoms.
  Runtime choices for atomic solver:
  | atomic solver xc        : PW-LDA
  | compute density gradient: 0
  | compute kinetic density : F

  Species: H

  List of occupied orbitals and eigenvalues:
    n    l              occ      energy [Ha]    energy [eV]
    1    0           1.0000        -0.232375        -6.3233


  Species: O

  List of occupied orbitals and eigenvalues:
    n    l              occ      energy [Ha]    energy [eV]
    1    0           2.0000       -18.757744      -510.4242
    2    0           2.0000        -0.870917       -23.6989
    2    1           4.0000        -0.337950        -9.1961


  Adding cutoff potential to free-atom effective potential.
  Creating fixed part of basis set: Ionic, confined, hydrogenic.
 
  H                    hydrogenic:
 
  List of hydrogenic basis orbitals: 
    n    l      effective z      eigenvalue [eV]  inner max. [A]     outer max. [A]     outer radius [A]   
    2    0         2.100000       -14.9728           0.193243           1.317208           4.696947
    2    1         3.500000       -41.6669           0.602369           0.602369           3.862494
 
 
  O                    hydrogenic:
 
  List of hydrogenic basis orbitals: 
    n    l      effective z      eigenvalue [eV]  inner max. [A]     outer max. [A]     outer radius [A]   
    2    1         1.800000       -10.9749           1.164242           1.164242           4.691341
    3    2         7.600000       -87.3180           0.624125           0.624125           3.413946
    3    0         6.400000       -61.9207           0.061167           1.081902           4.151495
 
  Creating atomic-like basis functions for current effective potential.

  Species H                   :

  List of atomic basis orbitals and eigenvalues:
    n    l      energy [Ha]    energy [eV]    outer radius [A]
    1    0        -0.232375        -6.3233       4.696947


  Species O                   :

  List of atomic basis orbitals and eigenvalues:
    n    l      energy [Ha]    energy [eV]    outer radius [A]
    1    0       -18.757744      -510.4242       1.830144
    2    0        -0.870917       -23.6989       4.578029
    2    1        -0.337950        -9.1961       4.634338

  Assembling full basis from fixed parts.
  | Species H :   atomic orbital   1 s accepted.
  | Species H :    hydro orbital   2 s accepted.
  | Species H :    hydro orbital   2 p accepted.
  | Species O :   atomic orbital   1 s accepted.
  | Species O :    hydro orbital   3 s accepted.
  | Species O :   atomic orbital   2 s accepted.
  | Species O :   atomic orbital   2 p accepted.
  | Species O :    hydro orbital   2 p accepted.
  | Species O :    hydro orbital   3 d accepted.
 
  Basis size parameters after reduction:
  | Total number of radial functions:        9
  | Total number of basis functions :      768
 
  Per-task memory consumption for arrays in subroutine allocate_ext:
  |           2.268304MB.
  Testing on-site integration grid accuracy.
  |  Species  Function  <phi|h_atom|phi> (log., in eV)  <phi|h_atom|phi> (rad., in eV)
           1        1                 -6.3245358373                 -6.3232436907
           1        2                 14.1326137532                 14.1384481100
           1        3                 25.3627025200                 25.3628451197
           2        4               -510.4241781764               -510.4240769407
           2        5                 14.9072942213                 14.9072945271
           2        6                -21.2004736474                -21.2005650551
           2        7                 -9.1962086505                 -9.1963509834
           2        8                  8.1896755006                  8.1702200081
           2        9                 45.7920584937                 45.7920228520

  Preparing densities etc. for the partition functions (integrals / Hartree potential).

  Preparations completed.
  max(cpu_time)          :      0.072 s.
  Wall clock time (cpu1) :      0.072 s.
------------------------------------------------------------

  Initializing index lists of integration centers etc. from given atomic structure:
  Mapping all atomic coordinates to central unit cell.

  Initializing the k-points
  Using symmetry for reducing the k-points
  | k-points reduced from:        1 to        1
  | Number of k-points                             :         1
  | Consuming          0 KiB for k_phase_exx.
  The eigenvectors in the calculations are REAL.
  | Number of basis functions in the Hamiltonian integrals :      4449
  | Number of basis functions in a single unit cell        :       768
  | Number of centers in hartree potential         :      2617
  | Number of centers in hartree multipole         :      1920
  | Number of centers in electron density summation:      1468
  | Number of centers in basis integrals           :      1556
  | Number of centers in integrals                 :       686
  | Number of centers in hamiltonian               :      1469
  | Consuming          0 KiB for k_phase.
  | Number of super-cells (origin) [n_cells]                     :         125
  | Number of super-cells (after PM_index) [n_cells]             :          28
  | Number of super-cells in hamiltonian [n_cells_in_hamiltonian]:          28
  | Size of matrix packed + index [n_hamiltonian_matrix_size] :      784405
  | Size of matrix packed + index (no_symmetry):     1568041

------------------------------------------------------------
          Begin self-consistency loop: Initialization.

          Date     :  20230221, Time     :  130831.082
------------------------------------------------------------
  | Estimated reciprocal-space cutoff momentum G_max:         3.16883712 bohr^-1 .
  | Reciprocal lattice points for long-range Hartree potential:    3430
  Using simple linear distribution as default method for k-point parallelism.
  * Using 18 tasks for Scalapack Eigenvalue solver.
  Detailed listing of tasks and assigned k-points:
   Task     0 k-point     1 on adag039
   Task     1 k-point     1 on adag039
   Task     2 k-point     1 on adag039
   Task     3 k-point     1 on adag039
   Task     4 k-point     1 on adag039
   Task     5 k-point     1 on adag039
   Task     6 k-point     1 on adag039
   Task     7 k-point     1 on adag039
   Task     8 k-point     1 on adag039
   Task     9 k-point     1 on adag039
   Task    10 k-point     1 on adag039
   Task    11 k-point     1 on adag039
   Task    12 k-point     1 on adag039
   Task    13 k-point     1 on adag039
   Task    14 k-point     1 on adag039
   Task    15 k-point     1 on adag039
   Task    16 k-point     1 on adag039
   Task    17 k-point     1 on adag039
  K-point:     1 Tasks:    18 split into      6 X      3 BLACS grid
  Calculating block size based on n_basis =          768  max_nprow =            6  max_npcol =            3
  ScaLAPACK block size set to:           16
  Allocating        0.250 MB for ovlp
  Allocating        0.250 MB for ham
  Allocating        0.250 MB for eigenvec
  Required Scalapack workspace - INTEGER:            1  REAL:             1
  Partitioning the integration grid into batches with parallel hashing+maxmin method.
  | Number of batches:     3894
  | Maximal batch size:     200
  | Minimal batch size:      99
  | Average batch size:     130.860
  | Standard deviation of batch sizes:      26.790

  Integration load balanced across    18 MPI tasks.
  Work distribution over tasks is as follows:
  Task     0 has      28353 integration points.
  Task     1 has      28263 integration points.
  Task     2 has      28306 integration points.
  Task     3 has      28283 integration points.
  Task     4 has      28305 integration points.
  Task     5 has      28300 integration points.
  Task     6 has      28320 integration points.
  Task     7 has      28316 integration points.
  Task     8 has      28312 integration points.
  Task     9 has      28280 integration points.
  Task    10 has      28300 integration points.
  Task    11 has      28334 integration points.
  Task    12 has      28248 integration points.
  Task    13 has      28267 integration points.
  Task    14 has      28353 integration points.
  Task    15 has      28332 integration points.
  Task    16 has      28374 integration points.
  Task    17 has      28322 integration points.
  Initializing partition tables, free-atom densities, potentials, etc. across the integration grid (initialize_grid_storage).
  | initialize_grid_storage: Actual outermost partition radius vs. multipole_radius_free
  | (-- VB: in principle, multipole_radius_free should be larger, hence this output)
  | Species        1: Confinement radius =              4.999999999999999 AA, multipole_radius_free =              5.054417573612229 AA.
  | Species        1: outer_partition_radius set to              5.054417573612229 AA .
  | Species        2: Confinement radius =              4.999999999999999 AA, multipole_radius_free =              5.048384829883283 AA.
  | Species        2: outer_partition_radius set to              5.048384829883283 AA .
  | The sparse table of interatomic distances needs       5133.85 kbyte instead of     19369.09 kbyte of memory.
  | Net number of integration points:   509568
  | of which are non-zero points    :   407221
  | Numerical average free-atom electrostatic potential    :     -5.39676688 eV
  Renormalizing the initial density to the exact electron count on the 3D integration grid.
  | Initial density: Formal number of electrons (from input files) :     320.0000000000
  | Integrated number of electrons on 3D grid     :     319.9993188175
  | Charge integration error                      :      -0.0006811825
  | Normalization factor for density and gradient :       1.0000021287
  Renormalizing the free-atom superposition density to the exact electron count on the 3D integration grid.
  | Formal number of electrons (from input files) :     320.0000000000
  | Integrated number of electrons on 3D grid     :     319.9993188175
  | Charge integration error                      :      -0.0006811825
  | Normalization factor for density and gradient :       1.0000021287
  Obtaining max. number of non-zero basis functions in each batch (get_n_compute_maxes).
  | Maximal number of non-zero basis functions:      422 in task     0
  | Maximal number of non-zero basis functions:      434 in task     1
  | Maximal number of non-zero basis functions:      440 in task     2
  | Maximal number of non-zero basis functions:      426 in task     3
  | Maximal number of non-zero basis functions:      428 in task     4
  | Maximal number of non-zero basis functions:      436 in task     5
  | Maximal number of non-zero basis functions:      412 in task     6
  | Maximal number of non-zero basis functions:      435 in task     7
  | Maximal number of non-zero basis functions:      439 in task     8
  | Maximal number of non-zero basis functions:      428 in task     9
  | Maximal number of non-zero basis functions:      439 in task    10
  | Maximal number of non-zero basis functions:      417 in task    11
  | Maximal number of non-zero basis functions:      414 in task    12
  | Maximal number of non-zero basis functions:      439 in task    13
  | Maximal number of non-zero basis functions:      424 in task    14
  | Maximal number of non-zero basis functions:      435 in task    15
  | Maximal number of non-zero basis functions:      434 in task    16
  | Maximal number of non-zero basis functions:      425 in task    17
  Integrating Hamiltonian matrix: batch-based integration.
  GPU acceleration will be used when integrating the Hamiltonian matrix.
  Reporting GPU memory usage by myid 0.  Note that it is likely not the only MPI task binding to its GPU!
  Allocating        1.425 MB on GPU for hamiltonian_shell
  Allocating        0.675 MB on GPU for wave
  Allocating        0.002 MB on GPU for partition
  Allocating        0.675 MB on GPU for h_times_psi
  Time summed over all CPUs for integration: real work       13.089 s, elapsed       13.444 s
  Deallocating memory used on GPU for Hamiltonian integration.
  Integrating overlap matrix.
  Time summed over all CPUs for integration: real work       11.572 s, elapsed       12.058 s
  Deallocating overlap matrix.

  Updating Kohn-Sham eigenvalues and eigenvectors using ELSI and the ELPA eigensolver.
  Singularity check in k-point 1 (analysis for other k-points may follow below):
  Overlap matrix is not singular
  | Lowest and highest eigenvalues :  0.2370E-02,  0.7316E+01
  Finished singularity check of overlap matrix
  | Time :     0.286 s
  Starting ELPA eigensolver (GPU)
  Finished Cholesky decomposition
  | Time :     0.013 s
  Finished transformation to standard eigenproblem
  | Time :     0.060 s
  Finished solving standard eigenproblem
  | Time :     0.247 s
  Finished back-transformation of eigenvectors
  | Time :     0.021 s

  Obtaining occupation numbers and electronic chemical potential using ELSI.
  | Note that, for insulating systems, the printed 'chemical potential' value is not uniquely defined.
  | It can be anywhere in the energy gap, as long as it correctly separates occupied and unoccupied states.
  | In systems with a gap, the physically relevant chemical potential is the VBM or HOMO.

  | Chemical potential (Fermi level):    -9.12252636 eV
  Writing Kohn-Sham eigenvalues.

  State    Occupation    Eigenvalue [Ha]    Eigenvalue [eV]
      1       2.00000         -18.928394         -515.06781
      2       2.00000         -18.890614         -514.03977
      3       2.00000         -18.888693         -513.98749
      4       2.00000         -18.886200         -513.91964
      5       2.00000         -18.882689         -513.82411
      6       2.00000         -18.882275         -513.81283
      7       2.00000         -18.880333         -513.76000
      8       2.00000         -18.877745         -513.68958
      9       2.00000         -18.877447         -513.68146
     10       2.00000         -18.874543         -513.60244
     11       2.00000         -18.873668         -513.57864
     12       2.00000         -18.873645         -513.57802
     13       2.00000         -18.873205         -513.56603
     14       2.00000         -18.872376         -513.54348
     15       2.00000         -18.871945         -513.53175
     16       2.00000         -18.871893         -513.53033
     17       2.00000         -18.871035         -513.50698
     18       2.00000         -18.869449         -513.46384
     19       2.00000         -18.868953         -513.45034
     20       2.00000         -18.866544         -513.38477
     21       2.00000         -18.865387         -513.35330
     22       2.00000         -18.862068         -513.26299
     23       2.00000         -18.859167         -513.18404
     24       2.00000         -18.858946         -513.17804
     25       2.00000         -18.858058         -513.15386
     26       2.00000         -18.857689         -513.14384
     27       2.00000         -18.857047         -513.12635
     28       2.00000         -18.856134         -513.10152
     29       2.00000         -18.854451         -513.05572
     30       2.00000         -18.843805         -512.76602
     31       2.00000         -18.840829         -512.68505
     32       2.00000         -18.834236         -512.50564
     33       2.00000          -1.196199          -32.55023
     34       2.00000          -1.142378          -31.08570
     35       2.00000          -1.127494          -30.68068
     36       2.00000          -1.124778          -30.60676
     37       2.00000          -1.123718          -30.57793
     38       2.00000          -1.118983          -30.44909
     39       2.00000          -1.117543          -30.40990
     40       2.00000          -1.115520          -30.35484
     41       2.00000          -1.113537          -30.30089
     42       2.00000          -1.112510          -30.27295
     43       2.00000          -1.110691          -30.22344
     44       2.00000          -1.106559          -30.11100
     45       2.00000          -1.102238          -29.99342
     46       2.00000          -1.099926          -29.93052
     47       2.00000          -1.099556          -29.92044
     48       2.00000          -1.097889          -29.87509
     49       2.00000          -1.096165          -29.82818
     50       2.00000          -1.093657          -29.75992
     51       2.00000          -1.090333          -29.66947
     52       2.00000          -1.087781          -29.60002
     53       2.00000          -1.087245          -29.58545
     54       2.00000          -1.082619          -29.45957
     55       2.00000          -1.079958          -29.38715
     56       2.00000          -1.079833          -29.38376
     57       2.00000          -1.076787          -29.30087
     58       2.00000          -1.074196          -29.23036
     59       2.00000          -1.070451          -29.12845
     60       2.00000          -1.068632          -29.07897
     61       2.00000          -1.066860          -29.03073
     62       2.00000          -1.056781          -28.75647
     63       2.00000          -1.045455          -28.44827
     64       2.00000          -1.034673          -28.15490
     65       2.00000          -0.715757          -19.47673
     66       2.00000          -0.688152          -18.72558
     67       2.00000          -0.687470          -18.70701
     68       2.00000          -0.670017          -18.23208
     69       2.00000          -0.666261          -18.12988
     70       2.00000          -0.665589          -18.11161
     71       2.00000          -0.663970          -18.06755
     72       2.00000          -0.661887          -18.01085
     73       2.00000          -0.659754          -17.95282
     74       2.00000          -0.657801          -17.89967
     75       2.00000          -0.656531          -17.86513
     76       2.00000          -0.655850          -17.84657
     77       2.00000          -0.654885          -17.82034
     78       2.00000          -0.649847          -17.68324
     79       2.00000          -0.649176          -17.66497
     80       2.00000          -0.646966          -17.60485
     81       2.00000          -0.642482          -17.48283
     82       2.00000          -0.641338          -17.45169
     83       2.00000          -0.638222          -17.36690
     84       2.00000          -0.635219          -17.28520
     85       2.00000          -0.632445          -17.20971
     86       2.00000          -0.631244          -17.17704
     87       2.00000          -0.627606          -17.07803
     88       2.00000          -0.626510          -17.04821
     89       2.00000          -0.621042          -16.89941
     90       2.00000          -0.618823          -16.83902
     91       2.00000          -0.617884          -16.81347
     92       2.00000          -0.615172          -16.73968
     93       2.00000          -0.603223          -16.41453
     94       2.00000          -0.601848          -16.37713
     95       2.00000          -0.600866          -16.35039
     96       2.00000          -0.575177          -15.65135
     97       2.00000          -0.571625          -15.55471
     98       2.00000          -0.562520          -15.30694
     99       2.00000          -0.559049          -15.21248
    100       2.00000          -0.555570          -15.11782
    101       2.00000          -0.553752          -15.06837
    102       2.00000          -0.552612          -15.03733
    103       2.00000          -0.548361          -14.92166
    104       2.00000          -0.548203          -14.91735
    105       2.00000          -0.544051          -14.80438
    106       2.00000          -0.539412          -14.67815
    107       2.00000          -0.537092          -14.61503
    108       2.00000          -0.533050          -14.50502
    109       2.00000          -0.530779          -14.44324
    110       2.00000          -0.529846          -14.41784
    111       2.00000          -0.528421          -14.37906
    112       2.00000          -0.524735          -14.27876
    113       2.00000          -0.523835          -14.25429
    114       2.00000          -0.520133          -14.15354
    115       2.00000          -0.516886          -14.06519
    116       2.00000          -0.513858          -13.98279
    117       2.00000          -0.512625          -13.94925
    118       2.00000          -0.511650          -13.92271
    119       2.00000          -0.507734          -13.81615
    120       2.00000          -0.507054          -13.79765
    121       2.00000          -0.503561          -13.70258
    122       2.00000          -0.500975          -13.63222
    123       2.00000          -0.500676          -13.62409
    124       2.00000          -0.496927          -13.52206
    125       2.00000          -0.496394          -13.50757
    126       2.00000          -0.493105          -13.41806
    127       2.00000          -0.490880          -13.35753
    128       2.00000          -0.486373          -13.23487
    129       2.00000          -0.480414          -13.07272
    130       2.00000          -0.472976          -12.87034
    131       2.00000          -0.469207          -12.76776
    132       2.00000          -0.468061          -12.73659
    133       2.00000          -0.466666          -12.69864
    134       2.00000          -0.465263          -12.66045
    135       2.00000          -0.465052          -12.65472
    136       2.00000          -0.463318          -12.60753
    137       2.00000          -0.462952          -12.59756
    138       2.00000          -0.461934          -12.56987
    139       2.00000          -0.461167          -12.54900
    140       2.00000          -0.459766          -12.51087
    141       2.00000          -0.459066          -12.49182
    142       2.00000          -0.457846          -12.45863
    143       2.00000          -0.457417          -12.44696
    144       2.00000          -0.456632          -12.42559
    145       2.00000          -0.455115          -12.38430
    146       2.00000          -0.454852          -12.37716
    147       2.00000          -0.450873          -12.26888
    148       2.00000          -0.449205          -12.22349
    149       2.00000          -0.448961          -12.21685
    150       2.00000          -0.448045          -12.19193
    151       2.00000          -0.446920          -12.16131
    152       2.00000          -0.445951          -12.13494
    153       2.00000          -0.443999          -12.08182
    154       2.00000          -0.442586          -12.04337
    155       2.00000          -0.441612          -12.01687
    156       2.00000          -0.436894          -11.88848
    157       2.00000          -0.435237          -11.84340
    158       2.00000          -0.434426          -11.82133
    159       2.00000          -0.430331          -11.70990
    160       2.00000          -0.429011          -11.67398
    161       0.00000          -0.177401           -4.82731
    162       0.00000          -0.125098           -3.40408
    163       0.00000          -0.121845           -3.31558
    164       0.00000          -0.114414           -3.11337
    165       0.00000          -0.113996           -3.10200
    166       0.00000          -0.099178           -2.69876
    167       0.00000          -0.095850           -2.60822
    168       0.00000          -0.080132           -2.18051
    169       0.00000          -0.073604           -2.00288
    170       0.00000          -0.066023           -1.79658
    171       0.00000          -0.063887           -1.73845
    172       0.00000          -0.060315           -1.64125
    173       0.00000          -0.056027           -1.52458
    174       0.00000          -0.055049           -1.49795
    175       0.00000          -0.048847           -1.32918
    176       0.00000          -0.047761           -1.29966
    177       0.00000          -0.041405           -1.12670
    178       0.00000          -0.033150           -0.90205
    179       0.00000          -0.026268           -0.71480
    180       0.00000          -0.020967           -0.57054
    181       0.00000          -0.013625           -0.37077
    182       0.00000          -0.007824           -0.21291
    183       0.00000          -0.007670           -0.20872
    184       0.00000           0.000539            0.01467
    185       0.00000           0.001253            0.03409
    186       0.00000           0.006858            0.18660
    187       0.00000           0.011696            0.31828
    188       0.00000           0.015710            0.42750
    189       0.00000           0.022671            0.61690
    190       0.00000           0.025837            0.70306
    191       0.00000           0.031577            0.85925
    192       0.00000           0.034485            0.93839
    193       0.00000           0.037355            1.01649
    194       0.00000           0.042317            1.15151
    195       0.00000           0.044991            1.22426
    196       0.00000           0.045821            1.24685
    197       0.00000           0.050967            1.38689
    198       0.00000           0.053819            1.46448
    199       0.00000           0.056038            1.52487
    200       0.00000           0.059229            1.61170
    201       0.00000           0.063800            1.73608
    202       0.00000           0.068908            1.87507
    203       0.00000           0.071309            1.94041
    204       0.00000           0.073023            1.98707
    205       0.00000           0.075278            2.04842
    206       0.00000           0.078290            2.13038
    207       0.00000           0.078964            2.14872
    208       0.00000           0.081782            2.22541
    209       0.00000           0.085352            2.32255
    210       0.00000           0.090430            2.46072
    211       0.00000           0.093037            2.53167
    212       0.00000           0.094163            2.56231
    213       0.00000           0.099687            2.71261
    214       0.00000           0.100174            2.72588
    215       0.00000           0.104334            2.83908
    216       0.00000           0.106021            2.88497
    217       0.00000           0.107380            2.92197
    218       0.00000           0.111295            3.02849
    219       0.00000           0.116529            3.17091
    220       0.00000           0.116998            3.18369
    221       0.00000           0.119507            3.25196
    222       0.00000           0.120952            3.29127
    223       0.00000           0.125762            3.42216
    224       0.00000           0.130969            3.56384
    225       0.00000           0.136726            3.72050
    226       0.00000           0.145782            3.96692
    227       0.00000           0.152734            4.15611
    228       0.00000           0.156807            4.26694
    229       0.00000           0.160317            4.36246
    230       0.00000           0.168046            4.57278
    231       0.00000           0.179456            4.88325
    232       0.00000           0.183131            4.98324
    233       0.00000           0.190503            5.18384
    234       0.00000           0.197651            5.37837
    235       0.00000           0.202936            5.52216
    236       0.00000           0.205864            5.60184
    237       0.00000           0.211244            5.74825
    238       0.00000           0.219232            5.96560
    239       0.00000           0.226033            6.15066
    240       0.00000           0.227249            6.18375
    241       0.00000           0.229785            6.25278
    242       0.00000           0.236782            6.44317
    243       0.00000           0.245759            6.68744
    244       0.00000           0.249821            6.79797
    245       0.00000           0.251283            6.83776
    246       0.00000           0.257773            7.01437
    247       0.00000           0.264890            7.20801
    248       0.00000           0.273867            7.45229
    249       0.00000           0.279391            7.60263
    250       0.00000           0.284643            7.74553
    251       0.00000           0.292621            7.96262
    252       0.00000           0.298893            8.13329
    253       0.00000           0.306177            8.33150
    254       0.00000           0.308282            8.38879
    255       0.00000           0.312823            8.51233
    256       0.00000           0.318525            8.66752
    257       0.00000           0.325485            8.85689
    258       0.00000           0.332708            9.05346
    259       0.00000           0.338658            9.21535
    260       0.00000           0.342897            9.33070
    261       0.00000           0.348726            9.48933
[...]
  |    H      0     4.527807 A      4.527807 A        1.268855E-16 a.u.
  |    H      0     4.527807 A      4.583499 A       -4.900954E-17 a.u.
  |    H      0     4.527807 A      4.583499 A        4.713786E-16 a.u.
  |    H      2     3.678162 A  2.180220E+05 A            0.556529 a.u.
  |    H      1     3.958095 A  1.721251E+08 A            0.841931 a.u.
  |    H      0     4.527807 A  3.866455E+16 A            0.581436 a.u.
  |    O      0     2.043000 A      2.043000 A       -1.436841E-16 a.u.
  |    O      3     3.498446 A      3.498446 A        3.043453E-17 a.u.
  |    O      3     3.498446 A      3.498446 A        1.541443E-16 a.u.
  |    O      0     3.905335 A      3.905335 A        2.173090E-16 a.u.
  |    O      0     3.905335 A      3.905335 A        7.213445E-17 a.u.
  |    O      0     4.101052 A      4.101052 A        2.361718E-16 a.u.
  |    O      1     4.101052 A      4.101052 A        3.235185E-17 a.u.
  |    O      0     4.359549 A      4.359549 A       -5.329475E-17 a.u.
  |    O      1     4.413171 A      4.413171 A        3.261883E-17 a.u.
  |    O      1     4.522403 A      4.522403 A        6.417997E-16 a.u.
  |    O      1     4.522403 A      4.522403 A        4.224783E-16 a.u.
  |    O      2     4.522403 A      4.522403 A       -4.387647E-16 a.u.
  |    O      0     4.522403 A      4.578029 A        2.602039E-16 a.u.
  |    O      0     4.578029 A      4.578029 A        1.226235E-16 a.u.
  |    O      1     4.578029 A      4.578029 A       -6.107316E-16 a.u.
  |    O      1     4.578029 A      4.578029 A       -2.224438E-16 a.u.
  |    O      2     4.578029 A      4.578029 A       -7.020279E-16 a.u.
  |    O      2     4.522403 A      4.578029 A        1.323470E-15 a.u.
  |    O      2     4.578029 A      4.578029 A        7.923696E-16 a.u.
  |    O      2     4.522403 A      4.578029 A       -9.951815E-16 a.u.
  |    O      0     4.578029 A      4.634338 A       -8.813582E-18 a.u.
  |    O      1     4.578029 A      4.634338 A       -3.325386E-17 a.u.
  |    O      1     4.634338 A      4.634338 A        9.588032E-16 a.u.
  |    O      2     4.578029 A      4.634338 A        1.064715E-17 a.u.
  |    O      2     4.578029 A      4.634338 A       -3.770343E-15 a.u.
  |    O      4     3.251020 A  1.511584E+03 A            1.513372 a.u.
  |    O      3     3.541477 A  1.434166E+04 A            4.293220 a.u.
  |    O      2     4.634338 A  5.584435E+05 A            9.352428 a.u.
  |    O      1     4.634338 A  2.821283E+08 A            2.261940 a.u.
  |    O      0     4.578029 A  4.264100E+16 A            0.641234 a.u.

  | Shrink_full_auxil_basis : there are       38  radial auxiliary wave functions
                            accepted and       5 rejected.
  | Shrink_full_auxil_basis : there are totally                4544 partial auxiliary wave functions.
 
  | Maximal number of product basis functions per thread :   256   256
 
  | Minimal total memory requirement for three-center overlap :      10.450 Gbs
  | Number of local auxiliary basis functions on task:      0   256
  | Number of local auxiliary basis functions on task:      1   256
  | Number of local auxiliary basis functions on task:      2   256
  | Number of local auxiliary basis functions on task:      3   256
  | Number of local auxiliary basis functions on task:      4   256
  | Number of local auxiliary basis functions on task:      5   256
  | Number of local auxiliary basis functions on task:      6   256
  | Number of local auxiliary basis functions on task:      7   256
  | Number of local auxiliary basis functions on task:      8   256
  | Number of local auxiliary basis functions on task:      9   256
  | Number of local auxiliary basis functions on task:     10   256
  | Number of local auxiliary basis functions on task:     11   256
  | Number of local auxiliary basis functions on task:     12   256
  | Number of local auxiliary basis functions on task:     13   256
  | Number of local auxiliary basis functions on task:     14   240
  | Number of local auxiliary basis functions on task:     15   240
  | Number of local auxiliary basis functions on task:     16   240
  | Number of local auxiliary basis functions on task:     17   240
  | 2D aux task distribution:      3 X      6
  | 2D block size (nb_aux_2d):     64
 
  Basis pair condensation :    295296  -->     225960
 
 --------------------------------------------
  Constructing auxiliary basis (full product) ...
 
  Product basis:
  | charge radius: extent of product basis function
  | field radius: extent of its Coulomb potential
  | Species   l  charge radius    field radius  multipol momen
  |    H      1     3.910002 A      3.910002 A       -2.487223E-16 a.u.
  |    H      1     3.958095 A      3.958095 A       -2.441841E-16 a.u.
  |    H      0     4.527807 A      4.527807 A        1.268855E-16 a.u.
  |    H      0     4.527807 A      4.583499 A       -4.900954E-17 a.u.
  |    H      0     4.527807 A      4.583499 A        4.713786E-16 a.u.
  |    H      2     3.678162 A  2.180220E+05 A            0.556529 a.u.
  |    H      1     3.958095 A  1.721251E+08 A            0.841931 a.u.
  |    H      0     4.527807 A  3.866455E+16 A            0.581436 a.u.
  |    O      0     2.043000 A      2.043000 A       -1.436841E-16 a.u.
  |    O      3     3.498446 A      3.498446 A        3.043453E-17 a.u.
  |    O      3     3.498446 A      3.498446 A        1.541443E-16 a.u.
  |    O      0     3.905335 A      3.905335 A        2.173090E-16 a.u.
  |    O      0     3.905335 A      3.905335 A        7.213445E-17 a.u.
  |    O      0     4.101052 A      4.101052 A        2.361718E-16 a.u.
  |    O      1     4.101052 A      4.101052 A        3.235185E-17 a.u.
  |    O      0     4.359549 A      4.359549 A       -5.329475E-17 a.u.
  |    O      1     4.413171 A      4.413171 A        3.261883E-17 a.u.
  |    O      1     4.522403 A      4.522403 A        6.417997E-16 a.u.
  |    O      1     4.522403 A      4.522403 A        4.224783E-16 a.u.
  |    O      2     4.522403 A      4.522403 A       -4.387647E-16 a.u.
  |    O      0     4.522403 A      4.578029 A        2.602039E-16 a.u.
  |    O      0     4.578029 A      4.578029 A        1.226235E-16 a.u.
  |    O      1     4.578029 A      4.578029 A       -6.107316E-16 a.u.
  |    O      1     4.578029 A      4.578029 A       -2.224438E-16 a.u.
  |    O      2     4.578029 A      4.578029 A       -7.020279E-16 a.u.
  |    O      2     4.522403 A      4.578029 A        1.323470E-15 a.u.
  |    O      2     4.578029 A      4.578029 A        7.923696E-16 a.u.
  |    O      2     4.522403 A      4.578029 A       -9.951815E-16 a.u.
  |    O      0     4.578029 A      4.634338 A       -8.813582E-18 a.u.
  |    O      1     4.578029 A      4.634338 A       -3.325386E-17 a.u.
  |    O      1     4.634338 A      4.634338 A        9.588032E-16 a.u.
  |    O      2     4.578029 A      4.634338 A        1.064715E-17 a.u.
  |    O      2     4.578029 A      4.634338 A       -3.770343E-15 a.u.
  |    O      4     3.251020 A  1.511584E+03 A            1.513372 a.u.
  |    O      3     3.541477 A  1.434166E+04 A            4.293220 a.u.
  |    O      2     4.634338 A  5.584435E+05 A            9.352428 a.u.
  |    O      1     4.634338 A  2.821283E+08 A            2.261940 a.u.
  |    O      0     4.578029 A  4.264100E+16 A            0.641234 a.u.

  | Shrink_full_auxil_basis : there are       38  radial auxiliary wave functions
                            accepted and       5 rejected.
  | Shrink_full_auxil_basis : there are totally                4544 partial auxiliary wave functions.
 
  | Maximal number of product basis functions per thread :   256   256
 
  | Minimal total memory requirement for three-center overlap :      10.450 Gbs
  | Number of local auxiliary basis functions on task:      0   256
  | Number of local auxiliary basis functions on task:      1   256
  | Number of local auxiliary basis functions on task:      2   256
  | Number of local auxiliary basis functions on task:      3   256
  | Number of local auxiliary basis functions on task:      4   256
  | Number of local auxiliary basis functions on task:      5   256
  | Number of local auxiliary basis functions on task:      6   256
  | Number of local auxiliary basis functions on task:      7   256
  | Number of local auxiliary basis functions on task:      8   256
  | Number of local auxiliary basis functions on task:      9   256
  | Number of local auxiliary basis functions on task:     10   256
  | Number of local auxiliary basis functions on task:     11   256
  | Number of local auxiliary basis functions on task:     12   256
  | Number of local auxiliary basis functions on task:     13   256
  | Number of local auxiliary basis functions on task:     14   240
  | Number of local auxiliary basis functions on task:     15   240
  | Number of local auxiliary basis functions on task:     16   240
  | Number of local auxiliary basis functions on task:     17   240
  | 2D aux task distribution:      3 X      6
  | 2D block size (nb_aux_2d):     64
 
  Basis pair condensation :    295296  -->     225960
dP_dE (Bohr^3) at every cycle:--->
 (356.043461070659,0.000000000000000E+000) (7.967584477111833E-002,0.000000000000000E+000) (3.11949292970054,0.000000000000000E+000)
 (8.349381967887187E-002,0.000000000000000E+000) (359.327046001302,0.000000000000000E+000) (-5.99785047912217,0.000000000000000E+000)
 (3.11489950287202,0.000000000000000E+000) (-5.99634368680236,0.000000000000000E+000) (368.495293752930,0.000000000000000E+000)
DFPT polarizability (Bohr^3)        xx        yy        zz        xy        xz        yz
  | Polarizability:--->                       356.043461071                  359.327046001                  368.495293753                    0.079675845                    3.119492930                   -5.997850479

DFPT for dielectric_constant:--->  # PARSE DFPT_dielectric_tensor
               1.686599629568717             0.000153648111781             0.006015677646582
               0.000161010752705             1.692931744727516            -0.011566346155579
               0.006006819612371            -0.011563440434336             1.710611933239147

                                               :  max(cpu_time)    wall_clock(cpu1)
  | Time for  dielectric calculation            :        0.000 s           0.001 s
===========================================================================

------------------------------------------------------------------------------
  Final output of selected total energy values:

  The following output summarizes some interesting total energy values
  at the end of a run (AFTER all relaxation, molecular dynamics, etc.).

  | Total energy of the DFT / Hartree-Fock s.c.f. calculation      :         -66110.631753098 eV
  | Final zero-broadening corrected energy (caution - metals only) :         -66110.631753098 eV
  | For reference only, the value of 1 Hartree used in FHI-aims is :             27.211384500 eV
  | For reference only, the overall average (free atom contribution
  | + realspace contribution) of the electrostatic potential after
  | s.c.f. convergence is                                          :             -4.991541723 eV

  Before relying on these values, please be sure to understand exactly which
  total energy value is referred to by a given number. Different objects may
  all carry the same name 'total energy'. Definitions:

  Total energy of the DFT / Hartree-Fock s.c.f. calculation:
  | Note that this energy does not include ANY quantities calculated after the
  | s.c.f. cycle, in particular not ANY RPA, MP2, etc. many-body perturbation terms.

  Final zero-broadening corrected energy:
  | For metallic systems only, a broadening of the occupation numbers at the Fermi
  | level can be extrapolated back to zero broadening by an electron-gas inspired
  | formula. For all systems that are not real metals, this value can be
  | meaningless and should be avoided.

------------------------------------------------------------------------------
  Methods described in the following list of references were used in this FHI-aims run.
  If you publish the results, please make sure to cite these reference if they apply.
  FHI-aims is an academic code, and for our developers (often, Ph.D. students
  and postdocs), scientific credit in the community is essential.
  Thank you for helping us!

  For any use of FHI-aims, please cite:

    Volker Blum, Ralf Gehrke, Felix Hanke, Paula Havu, Ville Havu,
    Xinguo Ren, Karsten Reuter, and Matthias Scheffler
    'Ab initio molecular simulations with numeric atom-centered orbitals'
    Computer Physics Communications 180, 2175-2196 (2009)
    http://doi.org/10.1016/j.cpc.2009.06.022


  For Hartree-Fock, hybrid functionals, or many-body perturbation theory used in your run, please cite:

    Xinguo Ren, Patrick Rinke, Volker Blum, Juergen Wieferink, Alex Tkatchenko,
    Andrea Sanfilippo, Karsten Reuter, and Matthias Scheffler,
    'Resolution-of-identity approach to Hartree-Fock, hybrid density functionals,
    RPA, MP2, and GW with numeric atom-centered orbital basis functions'
    New Journal of Physics 14, 053020 (2012).
    http://doi.org/10.1088/1367-2630/14/5/053020


  The provided symmetry information was generated with SPGlib:

    Atsushi Togo, Yusuke Seto, Dimitar Pashov
    SPGlib 1.7.3 obtained from http://spglib.sourceforge.net
    Copyright (C) 2008 Atsushi Togo


  The DFPT (perturbation by an electric field) part of the code was used.
  Here is the corresponding reference:

    Honghui Shang, Nathaniel Raimbault, Mariana Rossi,
    Christian Carbogno, Patrick Rinke and Matthias Scheffler,
    'All-Electron, Real-Space Perturbation Theory for Homogeneous
    Electric Fields: Theory, Implementation, and Application within dft'
    New Journal of Physics, 20(7):073040, 2018


  The ELSI infrastructure was used in your run to solve the Kohn-Sham electronic structure.
  Please check out http://elsi-interchange.org to learn more.
  If scalability is important for your project, please acknowledge ELSI by citing:

    V. W-z. Yu, F. Corsetti, A. Garcia, W. P. Huhn, M. Jacquelin, W. Jia,
    B. Lange, L. Lin, J. Lu, W. Mi, A. Seifitokaldani, A. Vazquez-Mayagoitia,
    C. Yang, H. Yang, and V. Blum
    'ELSI: A unified software interface for Kohn-Sham electronic structure solvers'
    Computer Physics Communications 222, 267-285 (2018).
    http://doi.org/10.1016/j.cpc.2017.09.007


  For the real-space grid partitioning and parallelization used in this calculation, please cite:

    Ville Havu, Volker Blum, Paula Havu, and Matthias Scheffler,
    'Efficient O(N) integration for all-electron electronic structure calculation'
    'using numerically tabulated basis functions'
    Journal of Computational Physics 228, 8367-8379 (2009).
    http://doi.org/10.1016/j.jcp.2009.08.008


  The high-level electronic structure method used in your calculation
  employed our efficient localized resolution of identity for the Coulomb operator.
  Some calculations, especially large-scale hybrid density functional theory,
  are only possible thanks to this development. For this feature, please cite:

    Arvid Ihrig, Juergen Wieferink, Igor Ying Zhang, Matti Ropo, Xinguo Ren,
    Patrick Rinke, Matthias Scheffler, and Volker Blum,
    'Accurate localized resolution of identity approach for linear-scaling
    hybrid density functionals and for many-body perturbation theory'
    New Journal of Physics 117, 093020 (2015).
    http://doi.org/10.1088/1367-2630/17/9/093020

  Of course, there are many other important community references, e.g., those cited in the
  above references. Our list is limited to references that describe implementations in the
  FHI-aims code. The reason is purely practical (length of this list) - please credit others as well.

------------------------------------------------------------
          Leaving FHI-aims.
          Date     :  20230221, Time     :  131643.029

          Computational steps:
          | Number of self-consistency cycles          :           45
          | Number of SCF (re)initializations          :            1
          | Number of coupled perturbed self-consistency cycles          :            0
          | Number of CPSCF (re)initializations          :            0

          Detailed time accounting                     :  max(cpu_time)    wall_clock(cpu1)
          | Total time                                  :      476.573 s         507.561 s
          | GPU initialization                          :        2.550 s          14.160 s
          | Preparation time                            :        0.072 s           0.072 s
          | Boundary condition initalization            :        1.282 s           1.282 s
          | Grid partitioning                           :        0.427 s           0.427 s
          | Preloading free-atom quantities on grid     :        2.358 s           2.359 s
          | Free-atom superposition energy              :        0.313 s           0.313 s
          | Total time for integrations                 :       12.494 s          13.039 s
          | Product basis setup: Total time             :        0.000 s           0.000 s
          | Product basis: | 2-center integrations     :(       0.000 s)  (       0.000 s)
          | Product basis: | LVL 3-center & coefficient:(       0.000 s)  (       0.000 s)
          | Total time for solution of K.-S. equations  :        4.470 s          21.083 s
          | Total time for density update               :        9.384 s          10.764 s
          | Total time for mixing & preconditioning     :        8.387 s           8.389 s
          | Total time for Hartree multipole update     :        0.105 s           0.105 s
          | Total time for Hartree multipole sum        :       37.911 s          37.924 s
          | Total time for total energy evaluation      :        0.008 s           0.008 s
          | Total time for DFPT                         :      396.322 s         396.472 s
          | Total time first_order_DM                   :        0.287 s           0.285 s
          | Total time first_order_density              :       82.792 s          82.809 s
          | Total time first_order_potential            :       52.730 s          52.747 s
          | Total time first_order_H                    :      165.736 s         165.799 s
          | Total time solving of Sternheimer equations :        0.175 s           0.174 s
          | Total time for dielectric constant          :        0.000 s           0.001 s
          | Total time momentum matrix                  :        0.000 s           0.000 s

          GPU acceleration has been used for charge density update.
          GPU acceleration has been used for real-space Hamiltonian integration.
          Due to GPU usage, wall_clock(cpu1) will give a more reliable estimate for timings.

          Partial memory accounting:
          | Residual value for overall tracked memory usage across tasks:     0.000000 MB (should be 0.000000 MB)
          | Peak values for overall tracked memory usage:
          |   Minimum:      117.450 MB (on task  0 after allocating DFPT_pulay_mixing::pulay_mix::alphas)
          |   Maximum:      117.450 MB (on task  0 after allocating DFPT_pulay_mixing::pulay_mix::alphas)
          |   Average:      117.450 MB
          | Largest tracked array allocation:
          |   Minimum:       41.892 MB (DFPT_pulay_mixing::initialize_pulay_mixing::X_in_diffs on task  0)
          |   Maximum:       41.892 MB (DFPT_pulay_mixing::initialize_pulay_mixing::X_in_diffs on task  0)
          |   Average:       41.892 MB
          Note:  These values currently only include a subset of arrays which are explicitly tracked.
          The "true" memory usage will be greater.

          Have a nice day.
------------------------------------------------------------
