------------------------------------------------------------
          Invoking FHI-aims ...

          When using FHI-aims, please cite the following reference:

            Volker Blum, Ralf Gehrke, Felix Hanke, Paula Havu,
            Ville Havu, Xinguo Ren, Karsten Reuter, and Matthias Scheffler,
            'Ab Initio Molecular Simulations with Numeric Atom-Centered Orbitals',
            Computer Physics Communications 180, 2175-2196 (2009)

          In addition, many other developments in FHI-aims are likely important for
          your particular application. A partial list of references is given at the end of
          this file. Thank you for giving credit to the authors of these developments.

          For any questions about FHI-aims, please visit our slack channel at

            https://fhi-aims.slack.com

          and our main development and support site at

            https://aims-git.rz-berlin.mpg.de .

          The latter site, in particular, has a wiki to collect information, as well
          as an issue tracker to log discussions, suggest improvements, and report issues
          or bugs. https://aims-git.rz-berlin.mpg.de is also the main development site
          of the project and all new and updated code versions can be obtained there.
          Please send an email to aims-coordinators@fhi-berlin.mpg.de and we will add
          you to these sites. They are for you and everyone is welcome there.

------------------------------------------------------------



  Date     :  20230221, Time     :  144232.953
  Time zero on CPU 1             :   0.416103000000000E+00  s.
  Internal wall clock time zero  :           446222552.953  s.

  FHI-aims created a unique identifier for this run for later identification
  aims_uuid : 228472D3-BE95-48D3-A59D-5792F20A2831

  Build configuration of the current instance of FHI-aims
  -------------------------------------------------------
  FHI-aims version      : 221103
  Commit number         : 42523251a
  CMake host system     : Linux-5.3.18-150300.59.68-default
  CMake version         : 3.17.0
  Fortran compiler      : /mpcdf/soft/SLE_15/packages/x86_64/intel_oneapi/2021.3/mpi/2021.3.0/bin/mpiifort (Intel) version 20.2.3.20210609
  Fortran compiler flags: -O3 -ip -fp-model precise
  C compiler            : /mpcdf/soft/SLE_15/packages/x86_64/intel/2021.3.0/bin/icc (Intel) version 20.2.3.20210609
  C compiler flags      : -O3 -ip -fp-model precise -std=gnu99
  CUDA compiler         : /mpcdf/soft/SLE_15/packages/x86_64/cuda/11.6.2/bin/nvcc
  CUDA compiler flags   : -O3 -DAdd_ -lcublas
  HIP compiler          :
  HIP compiler flags    :
  HIP GPU arch          :
  ELPA2 kernel          : AVX512
  Using MPI
  Using ScaLAPACK
  Using LibXC
  Using CUDA
  Using i-PI
  Using RLSY
  Linking against: /mpcdf/soft/SLE_15/packages/x86_64/cuda/11.6.2/lib64/libcublas.so
                   /mpcdf/soft/SLE_15/packages/x86_64/cuda/11.6.2/lib64/libcudart.so
                   /mpcdf/soft/SLE_15/packages/x86_64/intel_oneapi/2021.3/mkl/latest/lib/intel64/libmkl_intel_lp64.so
                   /mpcdf/soft/SLE_15/packages/x86_64/intel_oneapi/2021.3/mkl/latest/lib/intel64/libmkl_sequential.so
                   /mpcdf/soft/SLE_15/packages/x86_64/intel_oneapi/2021.3/mkl/latest/lib/intel64/libmkl_core.so
                   /mpcdf/soft/SLE_15/packages/x86_64/intel_oneapi/2021.3/mkl/latest/lib/intel64/libmkl_blacs_intelmpi_lp64.so
                   /mpcdf/soft/SLE_15/packages/x86_64/intel_oneapi/2021.3/mkl/latest/lib/intel64/libmkl_scalapack_lp64.so

  Using       18 parallel tasks.
  Task        0 on host adag039 reporting.
  Task        1 on host adag039 reporting.
  Task        2 on host adag039 reporting.
  Task        3 on host adag039 reporting.
  Task        4 on host adag039 reporting.
  Task        5 on host adag039 reporting.
  Task        6 on host adag039 reporting.
  Task        7 on host adag039 reporting.
  Task        8 on host adag039 reporting.
  Task        9 on host adag039 reporting.
  Task       10 on host adag039 reporting.
  Task       11 on host adag039 reporting.
  Task       12 on host adag039 reporting.
  Task       13 on host adag039 reporting.
  Task       14 on host adag039 reporting.
  Task       15 on host adag039 reporting.
  Task       16 on host adag039 reporting.
  Task       17 on host adag039 reporting.

  Obtaining array dimensions for all initial allocations:
  
  -----------------------------------------------------------------------
  Parsing control.in (first pass over file, find array dimensions only).
  The contents of control.in will be repeated verbatim below
  unless switched off by setting 'verbatim_writeout .false.' .
  in the first line of control.in .
  -----------------------------------------------------------------------
  
  #########################################################################################
  #
  #  Volker Blum, 2017 : Test run input file control.in for simple H2O
  #
  #########################################################################################
  #
  #  Physical model
  #
    xc                 pw-lda
    spin               none
    relativistic       none
    charge             0.
  
    use_gpu
  
    DFPT dielectric
    ri_density_restart write
    ri_rho1 write
  #  ri_density_restart read 0
  #  ri_rho1 read
    ri_full_output .true.
    sc_accuracy_rho    1d-6
  #  use_calculate_fock_matrix_old .false.
  #  wave_threshold 1e-8
    k_grid 1 1 1
  #  output cube eigenstate 160
  #  output cube eigenstate 161
    wave_threshold 1e-8
    default_prodbas_acc 1e-6
    default_max_l_prodbas 6
  #
  #  Relaxation
  #
  #  relax_geometry   bfgs 1.e-2
  #
  
  ################################################################################
  
  
  ################################################################################
  #
  #  FHI-aims code project
  #  VB, Fritz-Haber Institut, 2009
  #
  #  Suggested "light" defaults for H atom (to be pasted into control.in file)
  #  Be sure to double-check any results obtained with these settings for post-processing,
  #  e.g., with the "tight" defaults and larger basis sets.
  #
  ################################################################################
    species        H
  #     global species definitions
      nucleus             1
      mass                1.00794
  #
      l_hartree           4
  #
      cut_pot             3.5  1.5  1.0
      basis_dep_cutoff    1e-4
  #
      radial_base         24 5.0
      radial_multiplier   1
      angular_grids       specified
        division   0.2421   50
        division   0.3822  110
        division   0.4799  194
        division   0.5341  302
  #      division   0.5626  434
  #      division   0.5922  590
  #      division   0.6542  770
  #      division   0.6868 1202
  #      outer_grid  770
        outer_grid  302
  ################################################################################
  #
  #  Definition of "minimal" basis
  #
  ################################################################################
  #     valence basis states
      valence      1  s   1.
  #     ion occupancy
      ion_occ      1  s   0.5
  ################################################################################
  #
  #  Suggested additional basis functions. For production calculations,
  #  uncomment them one after another (the most important basis functions are
  #  listed first).
  #
  #  Basis constructed for dimers: 0.5 A, 0.7 A, 1.0 A, 1.5 A, 2.5 A
  #
  ################################################################################
  #  "First tier" - improvements: -1014.90 meV to -62.69 meV
       hydro 2 s 2.1
       hydro 2 p 3.5
  #  "Second tier" - improvements: -12.89 meV to -1.83 meV
  #     hydro 1 s 0.85
  #     hydro 2 p 3.7
  #     hydro 2 s 1.2
  #     hydro 3 d 7
  #  "Third tier" - improvements: -0.25 meV to -0.12 meV
  #     hydro 4 f 11.2
  #     hydro 3 p 4.8
  #     hydro 4 d 9
  #     hydro 3 s 3.2
  ################################################################################
  #
  #  FHI-aims code project
  #  VB, Fritz-Haber Institut, 2009
  #
  #  Suggested "light" defaults for O atom (to be pasted into control.in file)
  #  Be sure to double-check any results obtained with these settings for post-processing,
  #  e.g., with the "tight" defaults and larger basis sets.
  #
  ################################################################################
    species        O
  #     global species definitions
      nucleus             8
      mass                15.9994
  #
      l_hartree           4
  #
      cut_pot             3.5  1.5  1.0
      basis_dep_cutoff    1e-4
  #
      radial_base         36 5.0
      radial_multiplier   1
       angular_grids specified
        division   0.2659   50
        division   0.4451  110
        division   0.6052  194
        division   0.7543  302
  #      division   0.8014  434
  #      division   0.8507  590
  #      division   0.8762  770
  #      division   0.9023  974
  #      division   1.2339 1202
  #      outer_grid 974
        outer_grid 302
  ################################################################################
  #
  #  Definition of "minimal" basis
  #
  ################################################################################
  #     valence basis states
      valence      2  s   2.
      valence      2  p   4.
  #     ion occupancy
      ion_occ      2  s   1.
      ion_occ      2  p   3.
  ################################################################################
  #
  #  Suggested additional basis functions. For production calculations,
  #  uncomment them one after another (the most important basis functions are
  #  listed first).
  #
  #  Constructed for dimers: 1.0 A, 1.208 A, 1.5 A, 2.0 A, 3.0 A
  #
  ################################################################################
  #  "First tier" - improvements: -699.05 meV to -159.38 meV
       hydro 2 p 1.8
       hydro 3 d 7.6
       hydro 3 s 6.4
  #  "Second tier" - improvements: -49.91 meV to -5.39 meV
  #     hydro 4 f 11.6
  #     hydro 3 p 6.2
  #     hydro 3 d 5.6
  #     hydro 5 g 17.6
  #     hydro 1 s 0.75
  #  "Third tier" - improvements: -2.83 meV to -0.50 meV
  #     ionic 2 p auto
  #     hydro 4 f 10.8
  #     hydro 4 d 4.7
  #     hydro 2 s 6.8
  #  "Fourth tier" - improvements: -0.40 meV to -0.12 meV
  #     hydro 3 p 5
  #     hydro 3 s 3.3
  #     hydro 5 g 15.6
  #     hydro 4 f 17.6
  #     hydro 4 d 14
  # Further basis functions - -0.08 meV and below
  #     hydro 3 s 2.1
  #     hydro 4 d 11.6
  #     hydro 3 p 16
  #     hydro 2 s 17.2
  
  -----------------------------------------------------------------------
  Completed first pass over input file control.in .
  -----------------------------------------------------------------------
  
  
  -----------------------------------------------------------------------
  Parsing geometry.in (first pass over file, find array dimensions only).
  The contents of geometry.in will be repeated verbatim below
  unless switched off by setting 'verbatim_writeout .false.' .
  in the first line of geometry.in .
  -----------------------------------------------------------------------
  
  #=======================================================
  # FHI-aims file: /ada/ptmp/mpsd/alewis/bulk_water/qmdata/data/geoms/85.in
  # Created using the Atomic Simulation Environment (ASE)
  # Tue Feb 21 11:23:37 2023
  #=======================================================
  lattice_vector 9.9338200000000008 0.0000000000000000 0.0000000000000000
  lattice_vector 0.0000000000000000 9.9338200000000008 0.0000000000000000
  lattice_vector 0.0000000000000000 0.0000000000000000 9.9338200000000008
  atom 7.4497900000000001 12.8810000000000002 -5.7836900000000000 O
  atom 8.1420899999999996 12.3328000000000007 -6.2857700000000003 H
  atom 7.2915500000000000 13.6799999999999997 -6.3719299999999999 H
  atom 24.4556000000000004 21.7040000000000006 -0.7095050000000001 O
  atom 23.8535000000000004 20.8708999999999989 -0.6375580000000000 H
  atom 24.9271999999999991 21.9089999999999989 -1.6322900000000000 H
  atom 6.4931500000000000 -4.6246200000000002 -2.0816200000000000 O
  atom 5.5624500000000001 -4.6530100000000001 -2.3862500000000000 H
  atom 7.1593700000000000 -4.9061399999999997 -2.6162600000000000 H
  atom 3.6105200000000002 -0.6499710000000000 3.9163399999999999 O
  atom 4.3011400000000002 -0.8535400000000000 4.5180300000000004 H
  atom 3.5238800000000001 0.3332060000000000 4.1446600000000000 H
  atom -8.4828700000000001 0.6035750000000000 7.4147200000000000 O
  atom -8.7830600000000008 0.0112290000000000 6.6426900000000000 H
  atom -8.5484500000000008 1.5273099999999999 7.1139599999999996 H
  atom -0.5542110000000000 1.2670800000000000 12.4321000000000002 O
  atom -1.0898900000000000 1.0032500000000000 11.6347000000000005 H
  atom -0.2771390000000000 0.4442900000000000 12.8437999999999999 H
  atom 6.2483399999999998 8.1256299999999992 8.4719899999999999 O
  atom 6.3997900000000003 7.2457099999999999 8.2838999999999992 H
  atom 6.9306500000000000 8.7990899999999996 8.6875800000000005 H
  atom 9.9566599999999994 -3.9293800000000001 5.4485999999999999 O
  atom 9.1936099999999996 -3.3660800000000002 5.3965800000000002 H
  atom 10.0853000000000002 -4.2512600000000003 4.5343200000000001 H
  atom 0.7936510000000000 -5.1490900000000002 -10.2759999999999998 O
  atom 0.6790220000000000 -4.1788299999999996 -9.9609000000000005 H
  atom 1.2295700000000001 -5.5364699999999996 -9.5501100000000001 H
  atom 4.4261499999999998 1.9714799999999999 4.5618100000000004 O
  atom 5.0434400000000004 2.3970199999999999 3.8457900000000000 H
  atom 3.8372099999999998 2.6476600000000001 4.9106600000000000 H
  atom 8.7863000000000007 7.6049400000000000 -7.8473600000000001 O
  atom 7.9991399999999997 6.9654199999999999 -7.9258100000000002 H
  atom 9.3823200000000000 7.6074099999999998 -8.5368300000000001 H
  atom -16.6341999999999999 -2.6052499999999998 12.0198999999999998 O
  atom -16.5182000000000002 -1.7111099999999999 12.6171000000000006 H
  atom -17.4075999999999986 -3.0537500000000000 12.1865000000000006 H
  atom -3.7982499999999999 2.0349499999999998 6.7737600000000002 O
  atom -3.4151400000000001 2.8190400000000002 6.7550499999999998 H
  atom -4.4134900000000004 2.0397599999999998 6.0975299999999999 H
  atom 1.3849899999999999 -4.4065300000000001 -6.8906700000000001 O
  atom 1.9471099999999999 -4.7742899999999997 -6.1963999999999997 H
  atom 1.4893000000000001 -5.0610400000000002 -7.4945899999999996 H
  atom -5.8974500000000001 6.1230500000000001 -13.3278999999999996 O
  atom -5.4233500000000001 6.9004500000000002 -13.7942999999999998 H
  atom -6.4462500000000000 6.7353399999999999 -12.9530999999999992 H
  atom -1.8803300000000001 13.9230000000000000 -0.2672280000000000 O
  atom -2.4880100000000001 14.5494000000000003 -0.6787840000000001 H
  atom -0.9206410000000000 14.2339000000000002 -0.3047460000000000 H
  atom -1.6899900000000001 7.9587399999999997 4.6810799999999997 O
  atom -1.7921199999999999 8.9174500000000005 5.1391999999999998 H
  atom -1.2413500000000000 8.1448599999999995 3.7146200000000000 H
  atom -6.1825000000000001 9.1642100000000006 9.2492099999999997 O
  atom -5.4557200000000003 8.7994100000000000 9.0302399999999992 H
  atom -6.6030400000000000 9.2163599999999999 8.2858099999999997 H
  atom 12.7605000000000004 4.1533400000000000 4.9777100000000001 O
  atom 11.9497000000000000 3.7862800000000001 5.6441400000000002 H
  atom 13.3186999999999998 4.8859599999999999 5.6183500000000004 H
  atom -12.2664000000000009 1.1719400000000000 10.2028999999999996 O
  atom -13.2324000000000002 1.1530300000000000 10.0911000000000008 H
  atom -12.0719999999999992 2.2545799999999998 10.0724000000000000 H
  atom 0.9631080000000000 7.5760699999999996 20.0506999999999991 O
  atom 0.5198940000000000 8.4649599999999996 19.7103999999999999 H
  atom 1.7795000000000001 7.9422699999999997 20.3271000000000015 H
  atom -1.4936499999999999 10.2364999999999995 6.0118099999999997 O
  atom -1.0762000000000000 9.8818599999999996 6.9221599999999999 H
  atom -2.2465799999999998 10.8742999999999999 6.4202899999999996 H
  atom 7.1752900000000004 5.1981700000000002 2.1781999999999999 O
  atom 7.5182500000000001 4.4657999999999998 1.5831100000000000 H
  atom 6.2082899999999999 5.3878800000000000 1.7687299999999999 H
  atom 1.1442900000000000 3.3005800000000001 7.0416299999999996 O
  atom 1.3497800000000000 3.6099899999999998 8.0419000000000000 H
  atom 0.3465820000000000 3.7339699999999998 7.0202600000000004 H
  atom -0.8217100000000001 -0.5634479999999999 -1.2122900000000001 O
  atom -1.3011100000000000 -0.0181130000000000 -0.5622900000000000 H
  atom 0.0953620000000000 -0.2926150000000000 -1.4413899999999999 H
  atom 14.6148000000000007 2.8949400000000001 11.7094000000000005 O
  atom 14.9337999999999997 2.4862000000000002 10.7702000000000009 H
  atom 14.6249000000000002 3.8924300000000001 11.5312000000000001 H
  atom 10.7782999999999998 19.1988999999999983 13.9949999999999992 O
  atom 10.3812999999999995 18.4863999999999997 14.2742000000000004 H
  atom 11.8347999999999995 18.9051000000000009 14.1190999999999995 H
  atom 15.6919000000000004 8.1435800000000000 15.7340999999999998 O
  atom 16.2567999999999984 8.1659699999999997 16.4765000000000015 H
  atom 16.4251000000000005 8.1586200000000009 15.0335999999999999 H
  atom -1.6418200000000001 4.2637499999999999 6.4478999999999997 O
  atom -1.0877699999999999 4.9196299999999997 5.9554200000000002 H
  atom -2.0548700000000002 3.7202600000000001 5.6444000000000001 H
  atom 1.7025699999999999 3.0791200000000001 1.7385800000000000 O
  atom 2.5493399999999999 2.7545700000000002 1.8518600000000001 H
  atom 0.6896630000000000 2.6470300000000000 2.1929300000000000 H
  atom 1.7923600000000000 -2.5457500000000000 7.0559700000000003 O
  atom 1.2878200000000000 -3.0552299999999999 6.5183400000000002 H
  atom 1.3304000000000000 -2.5907700000000000 7.8062800000000001 H
  atom 14.7309000000000001 5.4136899999999999 10.9352999999999998 O
  atom 14.4337999999999997 5.1358499999999996 10.0366999999999997 H
  atom 14.2611000000000008 6.2684400000000000 11.1092999999999993 H
  
  -----------------------------------------------------------------------
  Completed first pass over input file geometry.in .
  -----------------------------------------------------------------------
  

  Basic array size parameters:
  | Number of species                 :        2
  | Number of atoms                   :       96
  | Number of lattice vectors         :        3
  | Max. basis fn. angular momentum   :        2
  | Max. atomic/ionic basis occupied n:        2
  | Max. number of basis fn. types    :        2
  | Max. radial fns per species/type  :        3
  | Max. logarithmic grid size        :     1301
  | Max. radial integration grid size :       36
  | Max. angular integration grid size:      302
  | Max. angular grid division number :        8
  | Radial grid for Hartree potential :     1301
  | Number of spin channels           :        1

------------------------------------------------------------
          Reading file control.in.
------------------------------------------------------------
  XC: Using Perdew-Wang parametrisation of Ceperley-Alder LDA.
  Spin treatment: No spin polarisation.
  Non-relativistic treatment of kinetic energy.
  Charge =   0.000000E+00: Neutral system requested explicitly.
  DFPT calculation will begin after the DFT/HF calculation.
  Convergence accuracy of self-consistent charge density:  0.1000E-05
  Found k-point grid:         1         1         1
  Threshold value for wave function integration:  0.1000E-07
 
  Reading configuration options for species H                   .
  | Found nuclear charge :   1.0000
  | Found atomic mass :    1.00794000000000      amu
  | Found l_max for Hartree potential  :   4
  | Found cutoff potl. onset [A], width [A], scale factor :    3.50000    1.50000    1.00000
  | Threshold for basis-dependent cutoff potential is   0.100000E-03
  | Found data for basic radial integration grid :    24 points, outermost radius =    5.000 A
  | Found multiplier for basic radial grid :   1
  | Found angular grid specification: user-specified.
  | Specified grid contains     5 separate shells.
  | Check grid settings after all constraints further below.
  | Found free-atom valence shell :  1 s   1.000
  | No ionic wave fns used. Skipping ion_occ.
  | Found hydrogenic basis function :  2 s   2.100
  | Found hydrogenic basis function :  2 p   3.500
  Species H                   : Missing cutoff potential type.
  Defaulting to exp(1/x)/(1-x)^2 type cutoff potential.
  Species H : No 'logarithmic' tag. Using default grid for free atom:
  | Default logarithmic grid data [bohr] : 0.1000E-03 0.1000E+03 0.1012E+01
  Species H : On-site basis accuracy parameter (for Gram-Schmidt orthonormalisation) not specified.
  Using default value basis_acc =  0.1000000E-03.
  Species H                   : Using default innermost maximum threshold i_radial=  2 for radial functions.
  Species H                   : Default cutoff onset for free atom density etc. : 0.35000000E+01 AA.
  Species H                   : Basic radial grid will be enhanced according to radial_multiplier =   1, to contain    24 grid points.
 
  Reading configuration options for species O                   .
  | Found nuclear charge :   8.0000
  | Found atomic mass :    15.9994000000000      amu
  | Found l_max for Hartree potential  :   4
  | Found cutoff potl. onset [A], width [A], scale factor :    3.50000    1.50000    1.00000
  | Threshold for basis-dependent cutoff potential is   0.100000E-03
  | Found data for basic radial integration grid :    36 points, outermost radius =    5.000 A
  | Found multiplier for basic radial grid :   1
  | Found angular grid specification: user-specified.
  | Specified grid contains     5 separate shells.
  | Check grid settings after all constraints further below.
  | Found free-atom valence shell :  2 s   2.000
  | Found free-atom valence shell :  2 p   4.000
  | No ionic wave fns used. Skipping ion_occ.
  | No ionic wave fns used. Skipping ion_occ.
  | Found hydrogenic basis function :  2 p   1.800
  | Found hydrogenic basis function :  3 d   7.600
  | Found hydrogenic basis function :  3 s   6.400
  Species O                   : Missing cutoff potential type.
  Defaulting to exp(1/x)/(1-x)^2 type cutoff potential.
  Species O : No 'logarithmic' tag. Using default grid for free atom:
  | Default logarithmic grid data [bohr] : 0.1000E-03 0.1000E+03 0.1012E+01
  Species O : On-site basis accuracy parameter (for Gram-Schmidt orthonormalisation) not specified.
  Using default value basis_acc =  0.1000000E-03.
  Species O                   : Using default innermost maximum threshold i_radial=  2 for radial functions.
  Species O                   : Default cutoff onset for free atom density etc. : 0.35000000E+01 AA.
  Species O                   : Basic radial grid will be enhanced according to radial_multiplier =   1, to contain    36 grid points.
 
  Finished reading input file 'control.in'.
 
------------------------------------------------------------


------------------------------------------------------------
          Reading geometry description geometry.in.
------------------------------------------------------------
  | The smallest distance between any two atoms is         0.84216155 AA.
  | The first atom of this pair is atom number                     52 .
  | The second atom of this pair is atom number                    53 .
  | Wigner-Seitz cell of the first atom image           0     0     0 .
  | (The Wigner-Seitz cell of the second atom is 0 0 0  by definition.)

  Symmetry information by spglib:
  | Precision set to  0.1E-04
  | Number of Operations  : 1
  | Space group           : 1
  | International         : P1
  | Schoenflies           : C1^1
  Input structure read successfully.
  The structure contains       96 atoms,  and a total of        320.000 electrons.

  Input geometry:
  | Unit cell:
  |        9.93382000        0.00000000        0.00000000
  |        0.00000000        9.93382000        0.00000000
  |        0.00000000        0.00000000        9.93382000
  | Atomic structure:
  |       Atom                x [A]            y [A]            z [A]
  |    1: Species O             7.44979000       12.88100000       -5.78369000
  |    2: Species H             8.14209000       12.33280000       -6.28577000
  |    3: Species H             7.29155000       13.68000000       -6.37193000
  |    4: Species O            24.45560000       21.70400000       -0.70950500
  |    5: Species H            23.85350000       20.87090000       -0.63755800
  |    6: Species H            24.92720000       21.90900000       -1.63229000
  |    7: Species O             6.49315000       -4.62462000       -2.08162000
  |    8: Species H             5.56245000       -4.65301000       -2.38625000
  |    9: Species H             7.15937000       -4.90614000       -2.61626000
  |   10: Species O             3.61052000       -0.64997100        3.91634000
  |   11: Species H             4.30114000       -0.85354000        4.51803000
  |   12: Species H             3.52388000        0.33320600        4.14466000
  |   13: Species O            -8.48287000        0.60357500        7.41472000
  |   14: Species H            -8.78306000        0.01122900        6.64269000
  |   15: Species H            -8.54845000        1.52731000        7.11396000
  |   16: Species O            -0.55421100        1.26708000       12.43210000
  |   17: Species H            -1.08989000        1.00325000       11.63470000
  |   18: Species H            -0.27713900        0.44429000       12.84380000
  |   19: Species O             6.24834000        8.12563000        8.47199000
  |   20: Species H             6.39979000        7.24571000        8.28390000
  |   21: Species H             6.93065000        8.79909000        8.68758000
  |   22: Species O             9.95666000       -3.92938000        5.44860000
  |   23: Species H             9.19361000       -3.36608000        5.39658000
  |   24: Species H            10.08530000       -4.25126000        4.53432000
  |   25: Species O             0.79365100       -5.14909000      -10.27600000
  |   26: Species H             0.67902200       -4.17883000       -9.96090000
  |   27: Species H             1.22957000       -5.53647000       -9.55011000
  |   28: Species O             4.42615000        1.97148000        4.56181000
  |   29: Species H             5.04344000        2.39702000        3.84579000
  |   30: Species H             3.83721000        2.64766000        4.91066000
  |   31: Species O             8.78630000        7.60494000       -7.84736000
  |   32: Species H             7.99914000        6.96542000       -7.92581000
  |   33: Species H             9.38232000        7.60741000       -8.53683000
  |   34: Species O           -16.63420000       -2.60525000       12.01990000
  |   35: Species H           -16.51820000       -1.71111000       12.61710000
  |   36: Species H           -17.40760000       -3.05375000       12.18650000
  |   37: Species O            -3.79825000        2.03495000        6.77376000
  |   38: Species H            -3.41514000        2.81904000        6.75505000
  |   39: Species H            -4.41349000        2.03976000        6.09753000
  |   40: Species O             1.38499000       -4.40653000       -6.89067000
  |   41: Species H             1.94711000       -4.77429000       -6.19640000
  |   42: Species H             1.48930000       -5.06104000       -7.49459000
  |   43: Species O            -5.89745000        6.12305000      -13.32790000
  |   44: Species H            -5.42335000        6.90045000      -13.79430000
  |   45: Species H            -6.44625000        6.73534000      -12.95310000
  |   46: Species O            -1.88033000       13.92300000       -0.26722800
  |   47: Species H            -2.48801000       14.54940000       -0.67878400
  |   48: Species H            -0.92064100       14.23390000       -0.30474600
  |   49: Species O            -1.68999000        7.95874000        4.68108000
  |   50: Species H            -1.79212000        8.91745000        5.13920000
  |   51: Species H            -1.24135000        8.14486000        3.71462000
  |   52: Species O            -6.18250000        9.16421000        9.24921000
  |   53: Species H            -5.45572000        8.79941000        9.03024000
  |   54: Species H            -6.60304000        9.21636000        8.28581000
  |   55: Species O            12.76050000        4.15334000        4.97771000
  |   56: Species H            11.94970000        3.78628000        5.64414000
  |   57: Species H            13.31870000        4.88596000        5.61835000
  |   58: Species O           -12.26640000        1.17194000       10.20290000
  |   59: Species H           -13.23240000        1.15303000       10.09110000
  |   60: Species H           -12.07200000        2.25458000       10.07240000
  |   61: Species O             0.96310800        7.57607000       20.05070000
  |   62: Species H             0.51989400        8.46496000       19.71040000
  |   63: Species H             1.77950000        7.94227000       20.32710000
  |   64: Species O            -1.49365000       10.23650000        6.01181000
  |   65: Species H            -1.07620000        9.88186000        6.92216000
  |   66: Species H            -2.24658000       10.87430000        6.42029000
  |   67: Species O             7.17529000        5.19817000        2.17820000
  |   68: Species H             7.51825000        4.46580000        1.58311000
  |   69: Species H             6.20829000        5.38788000        1.76873000
  |   70: Species O             1.14429000        3.30058000        7.04163000
  |   71: Species H             1.34978000        3.60999000        8.04190000
  |   72: Species H             0.34658200        3.73397000        7.02026000
  |   73: Species O            -0.82171000       -0.56344800       -1.21229000
  |   74: Species H            -1.30111000       -0.01811300       -0.56229000
  |   75: Species H             0.09536200       -0.29261500       -1.44139000
  |   76: Species O            14.61480000        2.89494000       11.70940000
  |   77: Species H            14.93380000        2.48620000       10.77020000
  |   78: Species H            14.62490000        3.89243000       11.53120000
  |   79: Species O            10.77830000       19.19890000       13.99500000
  |   80: Species H            10.38130000       18.48640000       14.27420000
  |   81: Species H            11.83480000       18.90510000       14.11910000
  |   82: Species O            15.69190000        8.14358000       15.73410000
  |   83: Species H            16.25680000        8.16597000       16.47650000
  |   84: Species H            16.42510000        8.15862000       15.03360000
  |   85: Species O            -1.64182000        4.26375000        6.44790000
  |   86: Species H            -1.08777000        4.91963000        5.95542000
  |   87: Species H            -2.05487000        3.72026000        5.64440000
  |   88: Species O             1.70257000        3.07912000        1.73858000
  |   89: Species H             2.54934000        2.75457000        1.85186000
  |   90: Species H             0.68966300        2.64703000        2.19293000
  |   91: Species O             1.79236000       -2.54575000        7.05597000
  |   92: Species H             1.28782000       -3.05523000        6.51834000
  |   93: Species H             1.33040000       -2.59077000        7.80628000
  |   94: Species O            14.73090000        5.41369000       10.93530000
  |   95: Species H            14.43380000        5.13585000       10.03670000
  |   96: Species H            14.26110000        6.26844000       11.10930000

  Lattice parameters for 3D lattice (in Angstroms) :     9.933820    9.933820    9.933820
  Angle(s) between unit vectors (in degrees)       :    90.000000   90.000000   90.000000


  Quantities derived from the lattice vectors (in Angstrom^-1):
  | Reciprocal lattice vector 1:  0.632504  0.000000  0.000000
  | Reciprocal lattice vector 2:  0.000000  0.632504  0.000000
  | Reciprocal lattice vector 3:  0.000000  0.000000  0.632504
  | Unit cell volume                               :   0.980277E+03  Angstrom^3

  Fractional coordinates:
                         L1                L2                L3
       atom_frac         0.74994212        1.29668144       -0.58222215  O
       atom_frac         0.81963333        1.24149622       -0.63276464  H
       atom_frac         0.73401270        1.37711374       -0.64143804  H
       atom_frac         2.46185254        2.18485940       -0.07142318  O
       atom_frac         2.40124142        2.10099438       -0.06418055  H
       atom_frac         2.50932672        2.20549597       -0.16431645  H
       atom_frac         0.65364079       -0.46554296       -0.20954879  O
       atom_frac         0.55995075       -0.46840088       -0.24021474  H
       atom_frac         0.72070664       -0.49388251       -0.26336898  H
       atom_frac         0.36345736       -0.06543012        0.39424310  O
       atom_frac         0.43297946       -0.08592264        0.45481295  H
       atom_frac         0.35473564        0.03354258        0.41722721  H
       atom_frac        -0.85393836        0.06075961        0.74641175  O
       atom_frac        -0.88415735        0.00113038        0.66869442  H
       atom_frac        -0.86054005        0.15374851        0.71613538  H
       atom_frac        -0.05579032        0.12755214        1.25149238  O
       atom_frac        -0.10971509        0.10099337        1.17122114  H
       atom_frac        -0.02789853        0.04472499        1.29293665  H
       atom_frac         0.62899670        0.81797637        0.85284312  O
       atom_frac         0.64424260        0.72939816        0.83390881  H
       atom_frac         0.69768226        0.88577103        0.87454574  H
       atom_frac         1.00229922       -0.39555579        0.54848991  O
       atom_frac         0.92548587       -0.33885051        0.54325325  H
       atom_frac         1.01524892       -0.42795823        0.45645280  H
       atom_frac         0.07989384       -0.51833937       -1.03444596  O
       atom_frac         0.06835457       -0.42066697       -1.00272604  H
       atom_frac         0.12377615       -0.55733545       -0.96137337  H
       atom_frac         0.44556374        0.19846142        0.45922012  O
       atom_frac         0.50770398        0.24129892        0.38714110  H
       atom_frac         0.38627738        0.26652989        0.49433753  H
       atom_frac         0.88448351        0.76556048       -0.78996398  O
       atom_frac         0.80524310        0.70118243       -0.79786125  H
       atom_frac         0.94448259        0.76580912       -0.85937031  H
       atom_frac        -1.67450185       -0.26226064        1.20999777  O
       atom_frac        -1.66282457       -0.17225096        1.27011563  H
       atom_frac        -1.75235710       -0.30740944        1.22676876  H
       atom_frac        -0.38235543        0.20485070        0.68188874  O
       atom_frac        -0.34378920        0.28378207        0.68000527  H
       atom_frac        -0.44428931        0.20533491        0.61381523  H
       atom_frac         0.13942169       -0.44358867       -0.69365763  O
       atom_frac         0.19600818       -0.48060967       -0.62376810  H
       atom_frac         0.14992219       -0.50947571       -0.75445196  H
       atom_frac        -0.59367393        0.61638423       -1.34166917  O
       atom_frac        -0.54594808        0.69464214       -1.38861989  H
       atom_frac        -0.64891955        0.67802114       -1.30393947  H
       atom_frac        -0.18928569        1.40157563       -0.02690083  O
       atom_frac        -0.25045853        1.46463294       -0.06833061  H
       atom_frac        -0.09267744        1.43287275       -0.03067762  H
       atom_frac        -0.17012489        0.80117618        0.47122658  O
       atom_frac        -0.18040593        0.89768589        0.51734378  H
       atom_frac        -0.12496200        0.81991218        0.37393671  H
       atom_frac        -0.62236884        0.92252628        0.93108291  O
       atom_frac        -0.54920665        0.88580325        0.90904003  H
       atom_frac        -0.66470300        0.92777602        0.83410108  H
       atom_frac         1.28455116        0.41810099        0.50108720  O
       atom_frac         1.20293100        0.38115045        0.56817418  H
       atom_frac         1.34074304        0.49185107        0.56557800  H
       atom_frac        -1.23481199        0.11797476        1.02708726  O
       atom_frac        -1.33205554        0.11607116        1.01583278  H
       atom_frac        -1.21524247        0.22696002        1.01395032  H
       atom_frac         0.09695243        0.76265425        2.01842796  O
       atom_frac         0.05233576        0.85213543        1.98417125  H
       atom_frac         0.17913552        0.79951821        2.04625210  H
       atom_frac        -0.15036008        1.03046965        0.60518612  O
       atom_frac        -0.10833697        0.99476938        0.69682761  H
       atom_frac        -0.22615469        1.09467456        0.64630625  H
       atom_frac         0.72230924        0.52328007        0.21927114  O
       atom_frac         0.75683373        0.44955516        0.15936568  H
       atom_frac         0.62496502        0.54237745        0.17805134  H
       atom_frac         0.11519134        0.33225688        0.70885420  O
       atom_frac         0.13587724        0.36340401        0.80954759  H
       atom_frac         0.03488910        0.37588460        0.70670296  H
       atom_frac        -0.08271843       -0.05672017       -0.12203664  O
       atom_frac        -0.13097781       -0.00182337       -0.05660360  H
       atom_frac         0.00959973       -0.02945644       -0.14509927  H
       atom_frac         1.47121651        0.29142263        1.17874091  O
       atom_frac         1.50332903        0.25027633        1.08419520  H
       atom_frac         1.47223324        0.39183617        1.16080219  H
       atom_frac         1.08501060        1.93268048        1.40882359  O
       atom_frac         1.04504612        1.86095581        1.43692960  H
       atom_frac         1.19136445        1.90310475        1.42131627  H
       atom_frac         1.57964408        0.81978333        1.58389220  O
       atom_frac         1.63651043        0.82203724        1.65862679  H
       atom_frac         1.65345255        0.82129735        1.51337552  H
       atom_frac        -0.16527580        0.42921555        0.64908565  O
       atom_frac        -0.10950168        0.49524050        0.59950955  H
       atom_frac        -0.20685597        0.37450447        0.56820035  H
       atom_frac         0.17139127        0.30996334        0.17501626  O
       atom_frac         0.25663239        0.27729212        0.18641973  H
       atom_frac         0.06942576        0.26646648        0.22075395  H
       atom_frac         0.18043009       -0.25627100        0.71029775  O
       atom_frac         0.12963996       -0.30755842        0.65617658  H
       atom_frac         0.13392632       -0.26080299        0.78582861  H
       atom_frac         1.48290386        0.54497565        1.10081519  O
       atom_frac         1.45299593        0.51700655        1.01035654  H
       atom_frac         1.43561087        0.63102009        1.11833112  H

 
  Finished reading input file 'geometry.in'.
 

 
  Consistency checks for stacksize environment parameter are next.
 
  | Maximum stacksize for task 0: unlimited
  | Maximum stacksize for task 1: unlimited
  | Maximum stacksize for task 2: unlimited
  | Maximum stacksize for task 3: unlimited
  | Maximum stacksize for task 4: unlimited
  | Maximum stacksize for task 5: unlimited
  | Maximum stacksize for task 6: unlimited
  | Maximum stacksize for task 7: unlimited
  | Maximum stacksize for task 8: unlimited
  | Maximum stacksize for task 9: unlimited
  | Maximum stacksize for task 10: unlimited
  | Maximum stacksize for task 11: unlimited
  | Maximum stacksize for task 12: unlimited
  | Maximum stacksize for task 13: unlimited
  | Maximum stacksize for task 14: unlimited
  | Maximum stacksize for task 15: unlimited
  | Maximum stacksize for task 16: unlimited
  | Maximum stacksize for task 17: unlimited
  | Current stacksize for task 0: unlimited
  | Current stacksize for task 1: unlimited
  | Current stacksize for task 2: unlimited
  | Current stacksize for task 3: unlimited
  | Current stacksize for task 4: unlimited
  | Current stacksize for task 5: unlimited
  | Current stacksize for task 6: unlimited
  | Current stacksize for task 7: unlimited
  | Current stacksize for task 8: unlimited
  | Current stacksize for task 9: unlimited
  | Current stacksize for task 10: unlimited
  | Current stacksize for task 11: unlimited
  | Current stacksize for task 12: unlimited
  | Current stacksize for task 13: unlimited
  | Current stacksize for task 14: unlimited
  | Current stacksize for task 15: unlimited
  | Current stacksize for task 16: unlimited
  | Current stacksize for task 17: unlimited
 
  Consistency checks for the contents of control.in are next.
 
  MPI_IN_PLACE appears to work with this MPI implementation.
  | Keeping use_mpi_in_place .true. (see manual).
  Explicit treatment of the Coulomb operator is needed, but the RI method is not specified.
  Coulomb operator: Defaulting to 'LVL fast' resolution of identity - RI_type = LVL_fast
  Species H: Using default value for prodbas_acc =   1.000000E-06.
  Species H: Using default value max_l_prodbas =     6.
  Species O: Using default value for prodbas_acc =   1.000000E-06.
  Species O: Using default value max_l_prodbas =     6.
  Target number of points in a grid batch is not set.  Since GPU acceleration is enabled, defaulting to  200
  Method for grid partitioning is not set. Defaulting to parallel hash+maxmin partitioning.
  Batch size limit is not set. Defaulting to    200
  By default, will store active basis functions for each batch.
  If in need of memory, prune_basis_once .false. can be used to disable this option.
  communication_type for Hartree potential was not specified.
  Defaulting to calc_hartree .
  Defaulting to Pulay charge density mixer.
  Pulay mixer: Number of relevant iterations not set.
  Defaulting to    8 iterations.
  Pulay mixer: Number of initial linear mixing iterations not set.
  Defaulting to    0 iterations.
  Work space size for distributed Hartree potential not set.
  Defaulting to   0.200000E+03 MB.
  Mixing parameter for charge density mixing has not been set.
  Using default: charge_mix_param =     0.0500.
  The mixing parameter will be adjusted in iteration number     2 of the first full s.c.f. cycle only.
  Algorithm-dependent basis array size parameters:
  | n_max_pulay                         :        8
  Maximum number of self-consistency iterations not provided.
  Presetting  1000 iterations.
  Presetting      1001 iterations before the initial mixing cycle
  is restarted anyway using the sc_init_iter criterion / keyword.
  Presetting a factor      1.000 between actual scf density residual
  and density convergence criterion sc_accuracy_rho below which sc_init_iter
  takes no effect.
  Calculation of forces was not defined in control.in. No forces will be calculated.
  Geometry relaxation not requested: no relaxation will be performed.
  No accuracy limit for integral partition fn. given. Defaulting to  0.1000E-14.
  No occupation type (smearing scheme) given. Defaulting to Gaussian broadening, width =  0.1000E-01 eV.
  The width will be adjusted in iteration number     2 of the first full s.c.f. cycle only.
  S.C.F. convergence parameters will be adjusted in iteration number     2 of the first full s.c.f. cycle only.
  No accuracy for occupation numbers given. Defaulting to  0.1000E-12.
  No threshold value for occupation numbers given. Defaulting to  0.0000E+00.
  No accuracy for fermi level given. Defaulting to  0.1000E-19.
  Maximum # of iterations to find E_F not set. Defaulting to  200.
  Preferred method for the eigenvalue solver ('KS_method') not specified in 'control.in'.
  Calling BLACS routine to test compilation state
  Since ScaLAPACK support is enabled, defaulting to ELPA (via ELSI).
  Will not use alltoall communication since running on < 1024 CPUs.
  Threshold for basis singularities not set.
  Default threshold for basis singularities:  0.1000E-04
  partition_type (choice of integration weights) for integrals was not specified.
  | Using a version of the partition function of Stratmann and coworkers ('stratmann_sparse').
  | At each grid point, the set of atoms used to build the partition table is smoothly restricted to
  | only those atoms whose free-atom density would be non-zero at that grid point.
  Partitioning for Hartree potential was not defined. Using partition_type for integrals.
  | Adjusted default value of keyword multip_moments_threshold to:       0.10000000E-11
  | This value may affect high angular momentum components of the Hartree potential in periodic systems.
  Angular momentum expansion for Kerker preconditioner not set explicitly.
  | Using default value of   0
  No explicit requirement for turning off preconditioner.
  | By default, it will be turned off when the charge convergence reaches
  | sc_accuracy_rho  =   0.100000E-05
  No special mixing parameter while Kerker preconditioner is on.
  Using default: charge_mix_param =     0.0500.
  Threshold for auxiliary basis singularities not set.
  Default threshold for auxiliary basis singularities:  0.1000E-04
  No q(lm)/r^(l+1) cutoff set for long-range Hartree potential.
  | Using default value of  0.100000E-09 .
  | Verify using the multipole_threshold keyword.
  Defaulting to new monopole extrapolation.
  Density update method: automatic selection selected.
  Using density matrix based charge density update.
  Using density matrix based charge density update.
  Using packed matrix style: index .
  Defaulting to use time-reversal symmetry for k-point grid.
  Charge integration errors on the 3D integration grid will be compensated
  by explicit normalization and distribution of residual charges.
  Use the "compensate_multipole_errors" flag to change this behaviour.
  Default to 1D ("use_logsbt") integrations for auxiliary 2-center integrals.
  Default onset of logarithmic r-grid for SBT is -38.000000000000
  Default onset of logarithmic k-grid for SBT is -25.000000000000
  Default range of logarithmic r- and k-grid for SBT is  45.000000000000
  Default number of logarithmic r- and k-grid for SBT is   4096
  Default of use_2d_corr is to use the efficient 2D distribution where possible
 
  Consistency checks for the contents of geometry.in are next.
 

  Range separation radius for Ewald summation (hartree_convergence_parameter):      3.00165346 bohr.
  Number of empty states per atom not set in control.in .
  | Since you are using a method that relies on the unoccupied spectrum
  | (MP2,GW,RPA et al.), will use the full Hamiltonian size (see below)
  | as the max. possible number of states (occupied plus empty).

  Structure-dependent array size parameters: 
  | Maximum number of distinct radial functions  :        9
  | Maximum number of basis functions            :      768
  | Number of Kohn-Sham states (occupied + empty):      768
------------------------------------------------------------

  Performing system and environment tests:
  | Environment variable OMP_NUM_THREADS correctly set to 1.
  | Checking for ScaLAPACK...
  | Testing pdtran()...
  | All pdtran() tests passed.
CUDA runtime version: 11060
CUDA driver version: 11060
  Initializing GPUs...

  Number of GPUs available to MPI task         0 :   1
  Number of GPUs available to MPI task         1 :   1
  Number of GPUs available to MPI task         2 :   1
  Number of GPUs available to MPI task         3 :   1
  Number of GPUs available to MPI task         4 :   1
  Number of GPUs available to MPI task         5 :   1
  Number of GPUs available to MPI task         6 :   1
  Number of GPUs available to MPI task         7 :   1
  Number of GPUs available to MPI task         8 :   1
  Number of GPUs available to MPI task         9 :   1
  Number of GPUs available to MPI task        10 :   1
  Number of GPUs available to MPI task        11 :   1
  Number of GPUs available to MPI task        12 :   1
  Number of GPUs available to MPI task        13 :   1
  Number of GPUs available to MPI task        14 :   1
  Number of GPUs available to MPI task        15 :   1
  Number of GPUs available to MPI task        16 :   1
  Number of GPUs available to MPI task        17 :   1

  | MPI task         0, GPU activated = T, Device Name = NVIDIA A100-SXM4-80GB
  | MPI task         1, GPU activated = T, Device Name = NVIDIA A100-SXM4-80GB
  | MPI task         2, GPU activated = T, Device Name = NVIDIA A100-SXM4-80GB
  | MPI task         3, GPU activated = T, Device Name = NVIDIA A100-SXM4-80GB
  | MPI task         4, GPU activated = T, Device Name = NVIDIA A100-SXM4-80GB
  | MPI task         5, GPU activated = T, Device Name = NVIDIA A100-SXM4-80GB
  | MPI task         6, GPU activated = T, Device Name = NVIDIA A100-SXM4-80GB
  | MPI task         7, GPU activated = T, Device Name = NVIDIA A100-SXM4-80GB
  | MPI task         8, GPU activated = T, Device Name = NVIDIA A100-SXM4-80GB
  | MPI task         9, GPU activated = T, Device Name = NVIDIA A100-SXM4-80GB
  | MPI task        10, GPU activated = T, Device Name = NVIDIA A100-SXM4-80GB
  | MPI task        11, GPU activated = T, Device Name = NVIDIA A100-SXM4-80GB
  | MPI task        12, GPU activated = T, Device Name = NVIDIA A100-SXM4-80GB
  | MPI task        13, GPU activated = T, Device Name = NVIDIA A100-SXM4-80GB
  | MPI task        14, GPU activated = T, Device Name = NVIDIA A100-SXM4-80GB
  | MPI task        15, GPU activated = T, Device Name = NVIDIA A100-SXM4-80GB
  | MPI task        16, GPU activated = T, Device Name = NVIDIA A100-SXM4-80GB
  | MPI task        17, GPU activated = T, Device Name = NVIDIA A100-SXM4-80GB

------------------------------------------------------------
          Preparing all fixed parts of the calculation.
------------------------------------------------------------
  Determining machine precision:
    2.225073858507201E-308
  Setting up grids for atomic and cluster calculations.

  Creating wave function, potential, and density for free atoms.
  Runtime choices for atomic solver:
  | atomic solver xc        : PW-LDA
  | compute density gradient: 0
  | compute kinetic density : F

  Species: H

  List of occupied orbitals and eigenvalues:
    n    l              occ      energy [Ha]    energy [eV]
    1    0           1.0000        -0.232375        -6.3233


  Species: O

  List of occupied orbitals and eigenvalues:
    n    l              occ      energy [Ha]    energy [eV]
    1    0           2.0000       -18.757744      -510.4242
    2    0           2.0000        -0.870917       -23.6989
    2    1           4.0000        -0.337950        -9.1961


  Adding cutoff potential to free-atom effective potential.
  Creating fixed part of basis set: Ionic, confined, hydrogenic.
 
  H                    hydrogenic:
 
  List of hydrogenic basis orbitals: 
    n    l      effective z      eigenvalue [eV]  inner max. [A]     outer max. [A]     outer radius [A]   
    2    0         2.100000       -14.9728           0.193243           1.317208           4.696947
    2    1         3.500000       -41.6669           0.602369           0.602369           3.862494
 
 
  O                    hydrogenic:
 
  List of hydrogenic basis orbitals: 
    n    l      effective z      eigenvalue [eV]  inner max. [A]     outer max. [A]     outer radius [A]   
    2    1         1.800000       -10.9749           1.164242           1.164242           4.691341
    3    2         7.600000       -87.3180           0.624125           0.624125           3.413946
    3    0         6.400000       -61.9207           0.061167           1.081902           4.151495
 
  Creating atomic-like basis functions for current effective potential.

  Species H                   :

  List of atomic basis orbitals and eigenvalues:
    n    l      energy [Ha]    energy [eV]    outer radius [A]
    1    0        -0.232375        -6.3233       4.696947


  Species O                   :

  List of atomic basis orbitals and eigenvalues:
    n    l      energy [Ha]    energy [eV]    outer radius [A]
    1    0       -18.757744      -510.4242       1.830144
    2    0        -0.870917       -23.6989       4.578029
    2    1        -0.337950        -9.1961       4.634338

  Assembling full basis from fixed parts.
  | Species H :   atomic orbital   1 s accepted.
  | Species H :    hydro orbital   2 s accepted.
  | Species H :    hydro orbital   2 p accepted.
  | Species O :   atomic orbital   1 s accepted.
  | Species O :    hydro orbital   3 s accepted.
  | Species O :   atomic orbital   2 s accepted.
  | Species O :   atomic orbital   2 p accepted.
  | Species O :    hydro orbital   2 p accepted.
  | Species O :    hydro orbital   3 d accepted.
 
  Basis size parameters after reduction:
  | Total number of radial functions:        9
  | Total number of basis functions :      768
 
  Per-task memory consumption for arrays in subroutine allocate_ext:
  |           2.268304MB.
  Testing on-site integration grid accuracy.
  |  Species  Function  <phi|h_atom|phi> (log., in eV)  <phi|h_atom|phi> (rad., in eV)
           1        1                 -6.3245358373                 -6.3232436907
           1        2                 14.1326137532                 14.1384481100
           1        3                 25.3627025200                 25.3628451197
           2        4               -510.4241781764               -510.4240769407
           2        5                 14.9072942213                 14.9072945271
           2        6                -21.2004736474                -21.2005650551
           2        7                 -9.1962086505                 -9.1963509834
           2        8                  8.1896755006                  8.1702200081
           2        9                 45.7920584937                 45.7920228520

  Preparing densities etc. for the partition functions (integrals / Hartree potential).

  Preparations completed.
  max(cpu_time)          :      0.069 s.
  Wall clock time (cpu1) :      0.062 s.
------------------------------------------------------------

  Initializing index lists of integration centers etc. from given atomic structure:
  Mapping all atomic coordinates to central unit cell.

  Initializing the k-points
  Using symmetry for reducing the k-points
  | k-points reduced from:        1 to        1
  | Number of k-points                             :         1
  | Consuming          0 KiB for k_phase_exx.
  The eigenvectors in the calculations are REAL.
  | Number of basis functions in the Hamiltonian integrals :      4498
  | Number of basis functions in a single unit cell        :       768
  | Number of centers in hartree potential         :      2577
  | Number of centers in hartree multipole         :      1893
  | Number of centers in electron density summation:      1497
  | Number of centers in basis integrals           :      1562
  | Number of centers in integrals                 :       698
  | Number of centers in hamiltonian               :      1497
  | Consuming          0 KiB for k_phase.
  | Number of super-cells (origin) [n_cells]                     :         125
  | Number of super-cells (after PM_index) [n_cells]             :          28
  | Number of super-cells in hamiltonian [n_cells_in_hamiltonian]:          28
  | Size of matrix packed + index [n_hamiltonian_matrix_size] :      774250
  | Size of matrix packed + index (no_symmetry):     1547731

------------------------------------------------------------
          Begin self-consistency loop: Initialization.

          Date     :  20230221, Time     :  144243.667
------------------------------------------------------------
  | Estimated reciprocal-space cutoff momentum G_max:         3.14852259 bohr^-1 .
  | Reciprocal lattice points for long-range Hartree potential:    3430
  Using simple linear distribution as default method for k-point parallelism.
  * Using 18 tasks for Scalapack Eigenvalue solver.
  Detailed listing of tasks and assigned k-points:
   Task     0 k-point     1 on adag039
   Task     1 k-point     1 on adag039
   Task     2 k-point     1 on adag039
   Task     3 k-point     1 on adag039
   Task     4 k-point     1 on adag039
   Task     5 k-point     1 on adag039
   Task     6 k-point     1 on adag039
   Task     7 k-point     1 on adag039
   Task     8 k-point     1 on adag039
   Task     9 k-point     1 on adag039
   Task    10 k-point     1 on adag039
   Task    11 k-point     1 on adag039
   Task    12 k-point     1 on adag039
   Task    13 k-point     1 on adag039
   Task    14 k-point     1 on adag039
   Task    15 k-point     1 on adag039
   Task    16 k-point     1 on adag039
   Task    17 k-point     1 on adag039
  K-point:     1 Tasks:    18 split into      6 X      3 BLACS grid
  Calculating block size based on n_basis =          768  max_nprow =            6  max_npcol =            3
  ScaLAPACK block size set to:           16
  Allocating        0.250 MB for ovlp
  Allocating        0.250 MB for ham
  Allocating        0.250 MB for eigenvec
  Required Scalapack workspace - INTEGER:            1  REAL:             1
  Partitioning the integration grid into batches with parallel hashing+maxmin method.
  | Number of batches:     4106
  | Maximal batch size:     200
  | Minimal batch size:      99
  | Average batch size:     124.103
  | Standard deviation of batch sizes:      22.862

  Integration load balanced across    18 MPI tasks.
  Work distribution over tasks is as follows:
  Task     0 has      28254 integration points.
  Task     1 has      28309 integration points.
  Task     2 has      28263 integration points.
  Task     3 has      28315 integration points.
  Task     4 has      28306 integration points.
  Task     5 has      28319 integration points.
  Task     6 has      28279 integration points.
  Task     7 has      28332 integration points.
  Task     8 has      28309 integration points.
  Task     9 has      28266 integration points.
  Task    10 has      28345 integration points.
  Task    11 has      28344 integration points.
  Task    12 has      28304 integration points.
  Task    13 has      28334 integration points.
  Task    14 has      28376 integration points.
  Task    15 has      28320 integration points.
  Task    16 has      28281 integration points.
  Task    17 has      28312 integration points.
  Initializing partition tables, free-atom densities, potentials, etc. across the integration grid (initialize_grid_storage).
  | initialize_grid_storage: Actual outermost partition radius vs. multipole_radius_free
  | (-- VB: in principle, multipole_radius_free should be larger, hence this output)
  | Species        1: Confinement radius =              4.999999999999999 AA, multipole_radius_free =              5.054417573612229 AA.
  | Species        1: outer_partition_radius set to              5.054417573612229 AA .
  | Species        2: Confinement radius =              4.999999999999999 AA, multipole_radius_free =              5.048384829883283 AA.
  | Species        2: outer_partition_radius set to              5.048384829883283 AA .
  | The sparse table of interatomic distances needs       5096.89 kbyte instead of     19518.75 kbyte of memory.
  | Net number of integration points:   509568
  | of which are non-zero points    :   408522
  | Numerical average free-atom electrostatic potential    :     -5.31617903 eV
  Renormalizing the initial density to the exact electron count on the 3D integration grid.
  | Initial density: Formal number of electrons (from input files) :     320.0000000000
  | Integrated number of electrons on 3D grid     :     320.0008889620
  | Charge integration error                      :       0.0008889620
  | Normalization factor for density and gradient :       0.9999972220
  Renormalizing the free-atom superposition density to the exact electron count on the 3D integration grid.
  | Formal number of electrons (from input files) :     320.0000000000
  | Integrated number of electrons on 3D grid     :     320.0008889620
  | Charge integration error                      :       0.0008889620
  | Normalization factor for density and gradient :       0.9999972220
  Obtaining max. number of non-zero basis functions in each batch (get_n_compute_maxes).
  | Maximal number of non-zero basis functions:      401 in task     0
  | Maximal number of non-zero basis functions:      414 in task     1
  | Maximal number of non-zero basis functions:      414 in task     2
  | Maximal number of non-zero basis functions:      403 in task     3
  | Maximal number of non-zero basis functions:      425 in task     4
  | Maximal number of non-zero basis functions:      432 in task     5
  | Maximal number of non-zero basis functions:      401 in task     6
  | Maximal number of non-zero basis functions:      421 in task     7
  | Maximal number of non-zero basis functions:      428 in task     8
  | Maximal number of non-zero basis functions:      430 in task     9
  | Maximal number of non-zero basis functions:      408 in task    10
  | Maximal number of non-zero basis functions:      428 in task    11
  | Maximal number of non-zero basis functions:      406 in task    12
  | Maximal number of non-zero basis functions:      425 in task    13
  | Maximal number of non-zero basis functions:      406 in task    14
  | Maximal number of non-zero basis functions:      440 in task    15
  | Maximal number of non-zero basis functions:      424 in task    16
  | Maximal number of non-zero basis functions:      405 in task    17
  Integrating Hamiltonian matrix: batch-based integration.
  GPU acceleration will be used when integrating the Hamiltonian matrix.
  Reporting GPU memory usage by myid 0.  Note that it is likely not the only MPI task binding to its GPU!
  Allocating        1.286 MB on GPU for hamiltonian_shell
  Allocating        0.642 MB on GPU for wave
  Allocating        0.002 MB on GPU for partition
  Allocating        0.642 MB on GPU for h_times_psi
  Time summed over all CPUs for integration: real work       10.856 s, elapsed       12.116 s
  Deallocating memory used on GPU for Hamiltonian integration.
  Integrating overlap matrix.
  Time summed over all CPUs for integration: real work        8.921 s, elapsed        9.487 s
  Deallocating overlap matrix.

  Updating Kohn-Sham eigenvalues and eigenvectors using ELSI and the ELPA eigensolver.
  Singularity check in k-point 1 (analysis for other k-points may follow below):
  Overlap matrix is not singular
  | Lowest and highest eigenvalues :  0.2618E-02,  0.7190E+01
  Finished singularity check of overlap matrix
  | Time :     0.132 s
  Starting ELPA eigensolver (GPU)
  Finished Cholesky decomposition
  | Time :     0.007 s
  Finished transformation to standard eigenproblem
  | Time :     0.025 s
  Finished solving standard eigenproblem
  | Time :     0.166 s
  Finished back-transformation of eigenvectors
  | Time :     0.015 s

  Obtaining occupation numbers and electronic chemical potential using ELSI.
  | Note that, for insulating systems, the printed 'chemical potential' value is not uniquely defined.
  | It can be anywhere in the energy gap, as long as it correctly separates occupied and unoccupied states.
  | In systems with a gap, the physically relevant chemical potential is the VBM or HOMO.

  | Chemical potential (Fermi level):    -8.37671760 eV
  Writing Kohn-Sham eigenvalues.

  State    Occupation    Eigenvalue [Ha]    Eigenvalue [eV]
      1       2.00000         -18.911864         -514.61801
      2       2.00000         -18.911104         -514.59733
      3       2.00000         -18.892498         -514.09102
      4       2.00000         -18.891929         -514.07553
      5       2.00000         -18.888847         -513.99167
      6       2.00000         -18.883834         -513.85526
      7       2.00000         -18.881436         -513.79000
      8       2.00000         -18.880315         -513.75952
      9       2.00000         -18.878286         -513.70429
     10       2.00000         -18.878020         -513.69705
     11       2.00000         -18.876818         -513.66435
     12       2.00000         -18.874356         -513.59735
     13       2.00000         -18.873701         -513.57953
     14       2.00000         -18.873372         -513.57058
     15       2.00000         -18.872358         -513.54299
     16       2.00000         -18.870679         -513.49730
     17       2.00000         -18.869831         -513.47423
     18       2.00000         -18.868895         -513.44875
     19       2.00000         -18.867732         -513.41711
     20       2.00000         -18.867618         -513.41402
     21       2.00000         -18.863313         -513.29687
     22       2.00000         -18.861859         -513.25730
     23       2.00000         -18.858292         -513.16023
     24       2.00000         -18.858108         -513.15522
     25       2.00000         -18.855302         -513.07889
     26       2.00000         -18.852266         -512.99625
     27       2.00000         -18.849515         -512.92139
     28       2.00000         -18.847659         -512.87090
     29       2.00000         -18.845750         -512.81895
     30       2.00000         -18.842682         -512.73548
     31       2.00000         -18.840578         -512.67820
     32       2.00000         -18.828929         -512.36124
     33       2.00000          -1.170216          -31.84319
     34       2.00000          -1.164577          -31.68975
     35       2.00000          -1.142465          -31.08806
     36       2.00000          -1.141947          -31.07397
     37       2.00000          -1.130604          -30.76530
     38       2.00000          -1.124975          -30.61212
     39       2.00000          -1.119859          -30.47293
     40       2.00000          -1.118136          -30.42604
     41       2.00000          -1.114598          -30.32974
     42       2.00000          -1.112701          -30.27812
     43       2.00000          -1.110511          -30.21854
     44       2.00000          -1.108399          -30.16106
     45       2.00000          -1.104725          -30.06109
     46       2.00000          -1.104513          -30.05532
     47       2.00000          -1.103459          -30.02665
     48       2.00000          -1.099176          -29.91010
     49       2.00000          -1.096537          -29.83828
     50       2.00000          -1.093500          -29.75564
     51       2.00000          -1.088691          -29.62480
     52       2.00000          -1.088024          -29.60664
     53       2.00000          -1.084352          -29.50671
     54       2.00000          -1.081364          -29.42541
     55       2.00000          -1.080596          -29.40452
     56       2.00000          -1.070895          -29.14053
     57       2.00000          -1.067123          -29.03791
     58       2.00000          -1.066022          -29.00795
     59       2.00000          -1.061033          -28.87218
     60       2.00000          -1.059013          -28.81720
     61       2.00000          -1.056216          -28.74109
     62       2.00000          -1.047772          -28.51132
     63       2.00000          -1.039373          -28.28279
     64       2.00000          -1.023454          -27.84960
     65       2.00000          -0.705850          -19.20715
     66       2.00000          -0.703574          -19.14522
     67       2.00000          -0.696755          -18.95966
     68       2.00000          -0.693133          -18.86110
     69       2.00000          -0.674596          -18.35670
     70       2.00000          -0.673193          -18.31852
     71       2.00000          -0.670203          -18.23714
     72       2.00000          -0.656227          -17.85685
     73       2.00000          -0.653512          -17.78298
     74       2.00000          -0.653262          -17.77616
     75       2.00000          -0.650650          -17.70507
     76       2.00000          -0.649577          -17.67590
     77       2.00000          -0.648342          -17.64229
     78       2.00000          -0.646345          -17.58795
     79       2.00000          -0.642288          -17.47755
     80       2.00000          -0.639316          -17.39666
     81       2.00000          -0.637212          -17.33941
     82       2.00000          -0.635635          -17.29651
     83       2.00000          -0.630768          -17.16408
     84       2.00000          -0.629006          -17.11612
     85       2.00000          -0.626024          -17.03499
     86       2.00000          -0.624480          -16.99297
     87       2.00000          -0.622459          -16.93797
     88       2.00000          -0.621650          -16.91596
     89       2.00000          -0.620666          -16.88917
     90       2.00000          -0.617016          -16.78987
     91       2.00000          -0.612099          -16.65605
     92       2.00000          -0.608725          -16.56426
     93       2.00000          -0.603237          -16.41491
     94       2.00000          -0.598557          -16.28757
     95       2.00000          -0.596915          -16.24289
     96       2.00000          -0.585851          -15.94182
     97       2.00000          -0.575636          -15.66385
     98       2.00000          -0.569107          -15.48618
     99       2.00000          -0.564742          -15.36742
    100       2.00000          -0.559102          -15.21394
    101       2.00000          -0.555450          -15.11457
    102       2.00000          -0.554714          -15.09454
    103       2.00000          -0.552079          -15.02283
    104       2.00000          -0.548182          -14.91679
    105       2.00000          -0.546477          -14.87040
    106       2.00000          -0.545350          -14.83972
    107       2.00000          -0.542029          -14.74937
    108       2.00000          -0.538867          -14.66332
    109       2.00000          -0.533552          -14.51869
    110       2.00000          -0.532045          -14.47768
    111       2.00000          -0.531000          -14.44925
    112       2.00000          -0.527009          -14.34065
    113       2.00000          -0.525321          -14.29472
    114       2.00000          -0.522491          -14.21770
    115       2.00000          -0.518407          -14.10658
    116       2.00000          -0.517040          -14.06936
    117       2.00000          -0.512407          -13.94330
    118       2.00000          -0.510948          -13.90361
    119       2.00000          -0.508338          -13.83258
    120       2.00000          -0.506364          -13.77887
    121       2.00000          -0.504659          -13.73247
    122       2.00000          -0.503158          -13.69162
    123       2.00000          -0.494847          -13.46548
    124       2.00000          -0.493423          -13.42673
    125       2.00000          -0.491875          -13.38460
    126       2.00000          -0.488984          -13.30593
    127       2.00000          -0.484449          -13.18254
    128       2.00000          -0.483095          -13.14569
    129       2.00000          -0.480126          -13.06489
    130       2.00000          -0.477337          -12.98900
    131       2.00000          -0.476314          -12.96117
    132       2.00000          -0.473851          -12.89415
    133       2.00000          -0.468563          -12.75026
    134       2.00000          -0.466066          -12.68229
    135       2.00000          -0.464696          -12.64502
    136       2.00000          -0.463612          -12.61552
    137       2.00000          -0.462561          -12.58691
    138       2.00000          -0.461901          -12.56896
    139       2.00000          -0.460855          -12.54052
    140       2.00000          -0.459216          -12.49589
    141       2.00000          -0.458084          -12.46511
    142       2.00000          -0.457351          -12.44515
    143       2.00000          -0.456460          -12.42091
    144       2.00000          -0.455802          -12.40301
    145       2.00000          -0.454330          -12.36296
    146       2.00000          -0.454035          -12.35492
    147       2.00000          -0.452534          -12.31408
    148       2.00000          -0.451807          -12.29429
    149       2.00000          -0.449991          -12.24489
    150       2.00000          -0.447948          -12.18929
    151       2.00000          -0.445874          -12.13285
    152       2.00000          -0.445583          -12.12494
    153       2.00000          -0.441592          -12.01633
    154       2.00000          -0.439978          -11.97241
    155       2.00000          -0.438925          -11.94377
    156       2.00000          -0.436965          -11.89042
    157       2.00000          -0.436085          -11.86648
    158       2.00000          -0.432158          -11.75962
    159       2.00000          -0.430095          -11.70348
    160       2.00000          -0.429605          -11.69016
    161       0.00000          -0.172529           -4.69476
    162       0.00000          -0.118368           -3.22095
    163       0.00000          -0.109918           -2.99102
    164       0.00000          -0.109511           -2.97993
    165       0.00000          -0.105732           -2.87712
    166       0.00000          -0.097074           -2.64151
    167       0.00000          -0.095961           -2.61123
    168       0.00000          -0.071550           -1.94697
    169       0.00000          -0.067813           -1.84529
    170       0.00000          -0.065208           -1.77440
    171       0.00000          -0.061839           -1.68272
    172       0.00000          -0.056540           -1.53853
    173       0.00000          -0.054167           -1.47395
    174       0.00000          -0.052601           -1.43135
    175       0.00000          -0.049241           -1.33991
    176       0.00000          -0.039211           -1.06699
    177       0.00000          -0.035639           -0.96979
    178       0.00000          -0.033521           -0.91214
    179       0.00000          -0.023439           -0.63781
    180       0.00000          -0.012617           -0.34333
    181       0.00000          -0.004832           -0.13148
    182       0.00000          -0.004003           -0.10893
    183       0.00000           0.001152            0.03135
    184       0.00000           0.002861            0.07786
    185       0.00000           0.012932            0.35190
    186       0.00000           0.015827            0.43069
    187       0.00000           0.018703            0.50893
    188       0.00000           0.025105            0.68314
    189       0.00000           0.030218            0.82228
    190       0.00000           0.031802            0.86537
    191       0.00000           0.038524            1.04828
    192       0.00000           0.039457            1.07368
    193       0.00000           0.041843            1.13862
    194       0.00000           0.043584            1.18597
    195       0.00000           0.050228            1.36678
    196       0.00000           0.053370            1.45227
    197       0.00000           0.054767            1.49029
    198       0.00000           0.057414            1.56233
    199       0.00000           0.058702            1.59735
    200       0.00000           0.060714            1.65211
    201       0.00000           0.064730            1.76140
    202       0.00000           0.068006            1.85053
    203       0.00000           0.068241            1.85692
    204       0.00000           0.070863            1.92828
    205       0.00000           0.074866            2.03722
    206       0.00000           0.079245            2.15636
    207       0.00000           0.080648            2.19455
    208       0.00000           0.081706            2.22332
    209       0.00000           0.084339            2.29499
    210       0.00000           0.086455            2.35256
    211       0.00000           0.088177            2.39942
    212       0.00000           0.093869            2.55430
    213       0.00000           0.097470            2.65230
    214       0.00000           0.100017            2.72159
    215       0.00000           0.102111            2.77858
    216       0.00000           0.104728            2.84979
    217       0.00000           0.106182            2.88935
    218       0.00000           0.112709            3.06698
    219       0.00000           0.116617            3.17330
    220       0.00000           0.120401            3.27627
    221       0.00000           0.124852            3.39741
    222       0.00000           0.126783            3.44995
    223       0.00000           0.130111            3.54051
    224       0.00000           0.133038            3.62015
    225       0.00000           0.137410            3.73911
    226       0.00000           0.143545            3.90607
    227       0.00000           0.146616            3.98961
    228       0.00000           0.155829            4.24031
    229       0.00000           0.163105            4.43831
    230       0.00000           0.165287            4.49767
    231       0.00000           0.173449            4.71979
    232       0.00000           0.178698            4.86263
    233       0.00000           0.182358            4.96221
    234       0.00000           0.189007            5.14313
    235       0.00000           0.195509            5.32006
    236       0.00000           0.200525            5.45655
    237       0.00000           0.205696            5.59727
    238       0.00000           0.209184            5.69219
    239       0.00000           0.221474            6.02662
    240       0.00000           0.224805            6.11726
    241       0.00000           0.228370            6.21427
    242       0.00000           0.232018            6.31353
    243       0.00000           0.240726            6.55048
    244       0.00000           0.246188            6.69911
    245       0.00000           0.249463            6.78825
    246       0.00000           0.251392            6.84074
    247       0.00000           0.256157            6.97038
    248       0.00000           0.263756            7.17717
    249       0.00000           0.264550            7.19878
    250       0.00000           0.270904            7.37167
    251       0.00000           0.280242            7.62576
    252       0.00000           0.285150            7.75932
    253       0.00000           0.296699            8.07359
    254       0.00000           0.299325            8.14504
    255       0.00000           0.300619            8.18026
    256       0.00000           0.311280            8.47035
    257       0.00000           0.317106            8.62889
    258       0.00000           0.322487            8.77531
    259       0.00000           0.325805            8.86559
    260       0.00000           0.343992            9.36050
    261       0.00000           0.345664            9.40600
[...]
  |    H      0     4.527807 A      4.527807 A        1.268855E-16 a.u.
  |    H      0     4.527807 A      4.583499 A       -4.900954E-17 a.u.
  |    H      0     4.527807 A      4.583499 A        4.713786E-16 a.u.
  |    H      2     3.678162 A  2.180220E+05 A            0.556529 a.u.
  |    H      1     3.958095 A  1.721251E+08 A            0.841931 a.u.
  |    H      0     4.527807 A  3.866455E+16 A            0.581436 a.u.
  |    O      0     2.043000 A      2.043000 A       -1.436841E-16 a.u.
  |    O      3     3.498446 A      3.498446 A        3.043453E-17 a.u.
  |    O      3     3.498446 A      3.498446 A        1.541443E-16 a.u.
  |    O      0     3.905335 A      3.905335 A        2.173090E-16 a.u.
  |    O      0     3.905335 A      3.905335 A        7.213445E-17 a.u.
  |    O      0     4.101052 A      4.101052 A        2.361718E-16 a.u.
  |    O      1     4.101052 A      4.101052 A        3.235185E-17 a.u.
  |    O      0     4.359549 A      4.359549 A       -5.329475E-17 a.u.
  |    O      1     4.413171 A      4.413171 A        3.261883E-17 a.u.
  |    O      1     4.522403 A      4.522403 A        6.417997E-16 a.u.
  |    O      1     4.522403 A      4.522403 A        4.224783E-16 a.u.
  |    O      2     4.522403 A      4.522403 A       -4.387647E-16 a.u.
  |    O      0     4.522403 A      4.578029 A        2.602039E-16 a.u.
  |    O      0     4.578029 A      4.578029 A        1.226235E-16 a.u.
  |    O      1     4.578029 A      4.578029 A       -6.107316E-16 a.u.
  |    O      1     4.578029 A      4.578029 A       -2.224438E-16 a.u.
  |    O      2     4.578029 A      4.578029 A       -7.020279E-16 a.u.
  |    O      2     4.522403 A      4.578029 A        1.323470E-15 a.u.
  |    O      2     4.578029 A      4.578029 A        7.923696E-16 a.u.
  |    O      2     4.522403 A      4.578029 A       -9.951815E-16 a.u.
  |    O      0     4.578029 A      4.634338 A       -8.813582E-18 a.u.
  |    O      1     4.578029 A      4.634338 A       -3.325386E-17 a.u.
  |    O      1     4.634338 A      4.634338 A        9.588032E-16 a.u.
  |    O      2     4.578029 A      4.634338 A        1.064715E-17 a.u.
  |    O      2     4.578029 A      4.634338 A       -3.770343E-15 a.u.
  |    O      4     3.251020 A  1.511584E+03 A            1.513372 a.u.
  |    O      3     3.541477 A  1.434166E+04 A            4.293220 a.u.
  |    O      2     4.634338 A  5.584435E+05 A            9.352428 a.u.
  |    O      1     4.634338 A  2.821283E+08 A            2.261940 a.u.
  |    O      0     4.578029 A  4.264100E+16 A            0.641234 a.u.

  | Shrink_full_auxil_basis : there are       38  radial auxiliary wave functions
                            accepted and       5 rejected.
  | Shrink_full_auxil_basis : there are totally                4544 partial auxiliary wave functions.
 
  | Maximal number of product basis functions per thread :   256   256
 
  | Minimal total memory requirement for three-center overlap :      10.450 Gbs
  | Number of local auxiliary basis functions on task:      0   256
  | Number of local auxiliary basis functions on task:      1   256
  | Number of local auxiliary basis functions on task:      2   256
  | Number of local auxiliary basis functions on task:      3   256
  | Number of local auxiliary basis functions on task:      4   256
  | Number of local auxiliary basis functions on task:      5   256
  | Number of local auxiliary basis functions on task:      6   256
  | Number of local auxiliary basis functions on task:      7   256
  | Number of local auxiliary basis functions on task:      8   256
  | Number of local auxiliary basis functions on task:      9   256
  | Number of local auxiliary basis functions on task:     10   256
  | Number of local auxiliary basis functions on task:     11   256
  | Number of local auxiliary basis functions on task:     12   256
  | Number of local auxiliary basis functions on task:     13   256
  | Number of local auxiliary basis functions on task:     14   240
  | Number of local auxiliary basis functions on task:     15   240
  | Number of local auxiliary basis functions on task:     16   240
  | Number of local auxiliary basis functions on task:     17   240
  | 2D aux task distribution:      3 X      6
  | 2D block size (nb_aux_2d):     64
 
  Basis pair condensation :    295296  -->     218291
 
 --------------------------------------------
  Constructing auxiliary basis (full product) ...
 
  Product basis:
  | charge radius: extent of product basis function
  | field radius: extent of its Coulomb potential
  | Species   l  charge radius    field radius  multipol momen
  |    H      1     3.910002 A      3.910002 A       -2.487223E-16 a.u.
  |    H      1     3.958095 A      3.958095 A       -2.441841E-16 a.u.
  |    H      0     4.527807 A      4.527807 A        1.268855E-16 a.u.
  |    H      0     4.527807 A      4.583499 A       -4.900954E-17 a.u.
  |    H      0     4.527807 A      4.583499 A        4.713786E-16 a.u.
  |    H      2     3.678162 A  2.180220E+05 A            0.556529 a.u.
  |    H      1     3.958095 A  1.721251E+08 A            0.841931 a.u.
  |    H      0     4.527807 A  3.866455E+16 A            0.581436 a.u.
  |    O      0     2.043000 A      2.043000 A       -1.436841E-16 a.u.
  |    O      3     3.498446 A      3.498446 A        3.043453E-17 a.u.
  |    O      3     3.498446 A      3.498446 A        1.541443E-16 a.u.
  |    O      0     3.905335 A      3.905335 A        2.173090E-16 a.u.
  |    O      0     3.905335 A      3.905335 A        7.213445E-17 a.u.
  |    O      0     4.101052 A      4.101052 A        2.361718E-16 a.u.
  |    O      1     4.101052 A      4.101052 A        3.235185E-17 a.u.
  |    O      0     4.359549 A      4.359549 A       -5.329475E-17 a.u.
  |    O      1     4.413171 A      4.413171 A        3.261883E-17 a.u.
  |    O      1     4.522403 A      4.522403 A        6.417997E-16 a.u.
  |    O      1     4.522403 A      4.522403 A        4.224783E-16 a.u.
  |    O      2     4.522403 A      4.522403 A       -4.387647E-16 a.u.
  |    O      0     4.522403 A      4.578029 A        2.602039E-16 a.u.
  |    O      0     4.578029 A      4.578029 A        1.226235E-16 a.u.
  |    O      1     4.578029 A      4.578029 A       -6.107316E-16 a.u.
  |    O      1     4.578029 A      4.578029 A       -2.224438E-16 a.u.
  |    O      2     4.578029 A      4.578029 A       -7.020279E-16 a.u.
  |    O      2     4.522403 A      4.578029 A        1.323470E-15 a.u.
  |    O      2     4.578029 A      4.578029 A        7.923696E-16 a.u.
  |    O      2     4.522403 A      4.578029 A       -9.951815E-16 a.u.
  |    O      0     4.578029 A      4.634338 A       -8.813582E-18 a.u.
  |    O      1     4.578029 A      4.634338 A       -3.325386E-17 a.u.
  |    O      1     4.634338 A      4.634338 A        9.588032E-16 a.u.
  |    O      2     4.578029 A      4.634338 A        1.064715E-17 a.u.
  |    O      2     4.578029 A      4.634338 A       -3.770343E-15 a.u.
  |    O      4     3.251020 A  1.511584E+03 A            1.513372 a.u.
  |    O      3     3.541477 A  1.434166E+04 A            4.293220 a.u.
  |    O      2     4.634338 A  5.584435E+05 A            9.352428 a.u.
  |    O      1     4.634338 A  2.821283E+08 A            2.261940 a.u.
  |    O      0     4.578029 A  4.264100E+16 A            0.641234 a.u.

  | Shrink_full_auxil_basis : there are       38  radial auxiliary wave functions
                            accepted and       5 rejected.
  | Shrink_full_auxil_basis : there are totally                4544 partial auxiliary wave functions.
 
  | Maximal number of product basis functions per thread :   256   256
 
  | Minimal total memory requirement for three-center overlap :      10.450 Gbs
  | Number of local auxiliary basis functions on task:      0   256
  | Number of local auxiliary basis functions on task:      1   256
  | Number of local auxiliary basis functions on task:      2   256
  | Number of local auxiliary basis functions on task:      3   256
  | Number of local auxiliary basis functions on task:      4   256
  | Number of local auxiliary basis functions on task:      5   256
  | Number of local auxiliary basis functions on task:      6   256
  | Number of local auxiliary basis functions on task:      7   256
  | Number of local auxiliary basis functions on task:      8   256
  | Number of local auxiliary basis functions on task:      9   256
  | Number of local auxiliary basis functions on task:     10   256
  | Number of local auxiliary basis functions on task:     11   256
  | Number of local auxiliary basis functions on task:     12   256
  | Number of local auxiliary basis functions on task:     13   256
  | Number of local auxiliary basis functions on task:     14   240
  | Number of local auxiliary basis functions on task:     15   240
  | Number of local auxiliary basis functions on task:     16   240
  | Number of local auxiliary basis functions on task:     17   240
  | 2D aux task distribution:      3 X      6
  | 2D block size (nb_aux_2d):     64
 
  Basis pair condensation :    295296  -->     218291
dP_dE (Bohr^3) at every cycle:--->
 (368.470852050135,0.000000000000000E+000) (1.96257367134839,0.000000000000000E+000) (0.489214581086409,0.000000000000000E+000)
 (1.97226871041485,0.000000000000000E+000) (362.369786676614,0.000000000000000E+000) (8.14492966608407,0.000000000000000E+000)
 (0.481681574281895,0.000000000000000E+000) (8.14347471597317,0.000000000000000E+000) (357.735314769899,0.000000000000000E+000)
DFPT polarizability (Bohr^3)        xx        yy        zz        xy        xz        yz
  | Polarizability:--->                       368.470852050                  362.369786677                  357.735314770                    1.962573671                    0.489214581                    8.144929666

DFPT for dielectric_constant:--->  # PARSE DFPT_dielectric_tensor
               1.699950841903801             0.003728124181100             0.000929316812979
               0.003746540972331             1.688361198324272             0.015472188221409
               0.000915007039423             0.015469424383919             1.679557510068238

                                               :  max(cpu_time)    wall_clock(cpu1)
  | Time for  dielectric calculation            :        0.000 s           0.000 s
===========================================================================

------------------------------------------------------------------------------
  Final output of selected total energy values:

  The following output summarizes some interesting total energy values
  at the end of a run (AFTER all relaxation, molecular dynamics, etc.).

  | Total energy of the DFT / Hartree-Fock s.c.f. calculation      :         -66112.343953024 eV
  | Final zero-broadening corrected energy (caution - metals only) :         -66112.343953024 eV
  | For reference only, the value of 1 Hartree used in FHI-aims is :             27.211384500 eV
  | For reference only, the overall average (free atom contribution
  | + realspace contribution) of the electrostatic potential after
  | s.c.f. convergence is                                          :             -4.916310927 eV

  Before relying on these values, please be sure to understand exactly which
  total energy value is referred to by a given number. Different objects may
  all carry the same name 'total energy'. Definitions:

  Total energy of the DFT / Hartree-Fock s.c.f. calculation:
  | Note that this energy does not include ANY quantities calculated after the
  | s.c.f. cycle, in particular not ANY RPA, MP2, etc. many-body perturbation terms.

  Final zero-broadening corrected energy:
  | For metallic systems only, a broadening of the occupation numbers at the Fermi
  | level can be extrapolated back to zero broadening by an electron-gas inspired
  | formula. For all systems that are not real metals, this value can be
  | meaningless and should be avoided.

------------------------------------------------------------------------------
  Methods described in the following list of references were used in this FHI-aims run.
  If you publish the results, please make sure to cite these reference if they apply.
  FHI-aims is an academic code, and for our developers (often, Ph.D. students
  and postdocs), scientific credit in the community is essential.
  Thank you for helping us!

  For any use of FHI-aims, please cite:

    Volker Blum, Ralf Gehrke, Felix Hanke, Paula Havu, Ville Havu,
    Xinguo Ren, Karsten Reuter, and Matthias Scheffler
    'Ab initio molecular simulations with numeric atom-centered orbitals'
    Computer Physics Communications 180, 2175-2196 (2009)
    http://doi.org/10.1016/j.cpc.2009.06.022


  For Hartree-Fock, hybrid functionals, or many-body perturbation theory used in your run, please cite:

    Xinguo Ren, Patrick Rinke, Volker Blum, Juergen Wieferink, Alex Tkatchenko,
    Andrea Sanfilippo, Karsten Reuter, and Matthias Scheffler,
    'Resolution-of-identity approach to Hartree-Fock, hybrid density functionals,
    RPA, MP2, and GW with numeric atom-centered orbital basis functions'
    New Journal of Physics 14, 053020 (2012).
    http://doi.org/10.1088/1367-2630/14/5/053020


  The provided symmetry information was generated with SPGlib:

    Atsushi Togo, Yusuke Seto, Dimitar Pashov
    SPGlib 1.7.3 obtained from http://spglib.sourceforge.net
    Copyright (C) 2008 Atsushi Togo


  The DFPT (perturbation by an electric field) part of the code was used.
  Here is the corresponding reference:

    Honghui Shang, Nathaniel Raimbault, Mariana Rossi,
    Christian Carbogno, Patrick Rinke and Matthias Scheffler,
    'All-Electron, Real-Space Perturbation Theory for Homogeneous
    Electric Fields: Theory, Implementation, and Application within dft'
    New Journal of Physics, 20(7):073040, 2018


  The ELSI infrastructure was used in your run to solve the Kohn-Sham electronic structure.
  Please check out http://elsi-interchange.org to learn more.
  If scalability is important for your project, please acknowledge ELSI by citing:

    V. W-z. Yu, F. Corsetti, A. Garcia, W. P. Huhn, M. Jacquelin, W. Jia,
    B. Lange, L. Lin, J. Lu, W. Mi, A. Seifitokaldani, A. Vazquez-Mayagoitia,
    C. Yang, H. Yang, and V. Blum
    'ELSI: A unified software interface for Kohn-Sham electronic structure solvers'
    Computer Physics Communications 222, 267-285 (2018).
    http://doi.org/10.1016/j.cpc.2017.09.007


  For the real-space grid partitioning and parallelization used in this calculation, please cite:

    Ville Havu, Volker Blum, Paula Havu, and Matthias Scheffler,
    'Efficient O(N) integration for all-electron electronic structure calculation'
    'using numerically tabulated basis functions'
    Journal of Computational Physics 228, 8367-8379 (2009).
    http://doi.org/10.1016/j.jcp.2009.08.008


  The high-level electronic structure method used in your calculation
  employed our efficient localized resolution of identity for the Coulomb operator.
  Some calculations, especially large-scale hybrid density functional theory,
  are only possible thanks to this development. For this feature, please cite:

    Arvid Ihrig, Juergen Wieferink, Igor Ying Zhang, Matti Ropo, Xinguo Ren,
    Patrick Rinke, Matthias Scheffler, and Volker Blum,
    'Accurate localized resolution of identity approach for linear-scaling
    hybrid density functionals and for many-body perturbation theory'
    New Journal of Physics 117, 093020 (2015).
    http://doi.org/10.1088/1367-2630/17/9/093020

  Of course, there are many other important community references, e.g., those cited in the
  above references. Our list is limited to references that describe implementations in the
  FHI-aims code. The reason is purely practical (length of this list) - please credit others as well.

------------------------------------------------------------
          Leaving FHI-aims.
          Date     :  20230221, Time     :  145032.256

          Computational steps:
          | Number of self-consistency cycles          :           45
          | Number of SCF (re)initializations          :            1
          | Number of coupled perturbed self-consistency cycles          :            0
          | Number of CPSCF (re)initializations          :            0

          Detailed time accounting                     :  max(cpu_time)    wall_clock(cpu1)
          | Total time                                  :      468.344 s         479.303 s
          | GPU initialization                          :        2.026 s           9.298 s
          | Preparation time                            :        0.069 s           0.062 s
          | Boundary condition initalization            :        1.253 s           1.254 s
          | Grid partitioning                           :        0.410 s           0.410 s
          | Preloading free-atom quantities on grid     :        2.363 s           2.363 s
          | Free-atom superposition energy              :        0.261 s           0.261 s
          | Total time for integrations                 :       14.554 s          14.730 s
          | Product basis setup: Total time             :        0.000 s           0.000 s
          | Product basis: | 2-center integrations     :(       0.000 s)  (       0.000 s)
          | Product basis: | LVL 3-center & coefficient:(       0.000 s)  (       0.000 s)
          | Total time for solution of K.-S. equations  :        2.487 s           5.069 s
          | Total time for density update               :       10.367 s          10.703 s
          | Total time for mixing & preconditioning     :        8.278 s           8.281 s
          | Total time for Hartree multipole update     :        0.103 s           0.104 s
          | Total time for Hartree multipole sum        :       37.545 s          37.562 s
          | Total time for total energy evaluation      :        0.005 s           0.003 s
          | Total time for DFPT                         :      387.847 s         387.989 s
          | Total time first_order_DM                   :        0.287 s           0.287 s
          | Total time first_order_density              :       82.180 s          82.195 s
          | Total time first_order_potential            :       52.413 s          52.426 s
          | Total time first_order_H                    :      164.098 s         164.154 s
          | Total time solving of Sternheimer equations :        0.179 s           0.183 s
          | Total time for dielectric constant          :        0.000 s           0.000 s
          | Total time momentum matrix                  :        0.000 s           0.000 s

          GPU acceleration has been used for charge density update.
          GPU acceleration has been used for real-space Hamiltonian integration.
          Due to GPU usage, wall_clock(cpu1) will give a more reliable estimate for timings.

          Partial memory accounting:
          | Residual value for overall tracked memory usage across tasks:     0.000000 MB (should be 0.000000 MB)
          | Peak values for overall tracked memory usage:
          |   Minimum:      115.940 MB (on task  0 after allocating DFPT_pulay_mixing::pulay_mix::alphas)
          |   Maximum:      115.940 MB (on task  0 after allocating DFPT_pulay_mixing::pulay_mix::alphas)
          |   Average:      115.940 MB
          | Largest tracked array allocation:
          |   Minimum:       41.349 MB (DFPT_pulay_mixing::initialize_pulay_mixing::X_in_diffs on task  0)
          |   Maximum:       41.349 MB (DFPT_pulay_mixing::initialize_pulay_mixing::X_in_diffs on task  0)
          |   Average:       41.349 MB
          Note:  These values currently only include a subset of arrays which are explicitly tracked.
          The "true" memory usage will be greater.

          Have a nice day.
------------------------------------------------------------
