------------------------------------------------------------
          Invoking FHI-aims ...

          When using FHI-aims, please cite the following reference:

            Volker Blum, Ralf Gehrke, Felix Hanke, Paula Havu,
            Ville Havu, Xinguo Ren, Karsten Reuter, and Matthias Scheffler,
            'Ab Initio Molecular Simulations with Numeric Atom-Centered Orbitals',
            Computer Physics Communications 180, 2175-2196 (2009)

          In addition, many other developments in FHI-aims are likely important for
          your particular application. A partial list of references is given at the end of
          this file. Thank you for giving credit to the authors of these developments.

          For any questions about FHI-aims, please visit our slack channel at

            https://fhi-aims.slack.com

          and our main development and support site at

            https://aims-git.rz-berlin.mpg.de .

          The latter site, in particular, has a wiki to collect information, as well
          as an issue tracker to log discussions, suggest improvements, and report issues
          or bugs. https://aims-git.rz-berlin.mpg.de is also the main development site
          of the project and all new and updated code versions can be obtained there.
          Please send an email to aims-coordinators@fhi-berlin.mpg.de and we will add
          you to these sites. They are for you and everyone is welcome there.

------------------------------------------------------------



  Date     :  20230119, Time     :  194729.800
  Time zero on CPU 1             :   0.375294000000000E+00  s.
  Internal wall clock time zero  :           443389649.800  s.

  FHI-aims created a unique identifier for this run for later identification
  aims_uuid : 47183A75-26BF-4254-AB7E-94498FD18623

  Build configuration of the current instance of FHI-aims
  -------------------------------------------------------
  FHI-aims version      : 220829
  Commit number         : 9895fc21d
  CMake host system     : Linux-5.3.18-150300.59.68-default
  CMake version         : 3.17.0
  Fortran compiler      : /mpcdf/soft/SLE_15/packages/x86_64/intel_oneapi/2021.3/mpi/2021.3.0/bin/mpiifort (Intel) version 20.2.3.20210609
  Fortran compiler flags: -O3 -ip -fp-model precise
  C compiler            : /mpcdf/soft/SLE_15/packages/x86_64/intel/2021.3.0/bin/icc (Intel) version 20.2.3.20210609
  C compiler flags      : -O3 -ip -fp-model precise -std=gnu99
  CUDA compiler         : /mpcdf/soft/SLE_15/packages/x86_64/cuda/11.6.2/bin/nvcc
  CUDA compiler flags   : -O3 -DAdd_ -lcublas
  ELPA2 kernel          : AVX512
  Using MPI
  Using ScaLAPACK
  Using LibXC
  Using CUDA
  Using i-PI
  Using RLSY
  Linking against: /mpcdf/soft/SLE_15/packages/x86_64/cuda/11.6.2/lib64/libcublas.so
                   /mpcdf/soft/SLE_15/packages/x86_64/cuda/11.6.2/lib64/libcudart.so
                   /mpcdf/soft/SLE_15/packages/x86_64/intel_oneapi/2021.3/mkl/latest/lib/intel64/libmkl_intel_lp64.so
                   /mpcdf/soft/SLE_15/packages/x86_64/intel_oneapi/2021.3/mkl/latest/lib/intel64/libmkl_sequential.so
                   /mpcdf/soft/SLE_15/packages/x86_64/intel_oneapi/2021.3/mkl/latest/lib/intel64/libmkl_core.so
                   /mpcdf/soft/SLE_15/packages/x86_64/intel_oneapi/2021.3/mkl/latest/lib/intel64/libmkl_blacs_intelmpi_lp64.so
                   /mpcdf/soft/SLE_15/packages/x86_64/intel_oneapi/2021.3/mkl/latest/lib/intel64/libmkl_scalapack_lp64.so

  Using       18 parallel tasks.
  Task        0 on host adag012 reporting.
  Task        1 on host adag012 reporting.
  Task        2 on host adag012 reporting.
  Task        3 on host adag012 reporting.
  Task        4 on host adag012 reporting.
  Task        5 on host adag012 reporting.
  Task        6 on host adag012 reporting.
  Task        7 on host adag012 reporting.
  Task        8 on host adag012 reporting.
  Task        9 on host adag012 reporting.
  Task       10 on host adag012 reporting.
  Task       11 on host adag012 reporting.
  Task       12 on host adag012 reporting.
  Task       13 on host adag012 reporting.
  Task       14 on host adag012 reporting.
  Task       15 on host adag012 reporting.
  Task       16 on host adag012 reporting.
  Task       17 on host adag012 reporting.

  Performing system and environment tests:
  | Environment variable OMP_NUM_THREADS correctly set to 1.
  | Checking for ScaLAPACK...
  | Testing pdtran()...
  | All pdtran() tests passed.

  Obtaining array dimensions for all initial allocations:
  
  -----------------------------------------------------------------------
  Parsing control.in (first pass over file, find array dimensions only).
  The contents of control.in will be repeated verbatim below
  unless switched off by setting 'verbatim_writeout .false.' .
  in the first line of control.in .
  -----------------------------------------------------------------------
  
  #
  # Input for polarizability replays on generic oligoacene molecular crystals (light settings,  LDA+MBD).
  #
  #########################################################################################
  #
  #  Physical model
  #
    xc                 pw-lda
    spin               none
    relativistic       none
    charge             0.0
    k_grid 	     2 1 1
    DFPT dielectric
  #
  #  GPU acceleration
  #
  # Turns on GPU acceleration everywhere
    use_gpu
  
  # Turns OFF GPU acceleration of ELPA - may be necessary if GPU ELPA is slow
    elsi_elpa_gpu 0
  #
  #  Relaxation
  #
  #  relax_geometry trm 1E-3
  #  relax_unit_cell fixed_angles
  #
  #  SCF convergence        #
    charge_mix_param   0.75
    #sc_accuracy_rho 1E-4
  #
  # i-PI communication
  #
  compute_forces .false.
  # use_pimd_wrapper 130.183.223.27 26118
  #communicate_pimd_wrapper polarizability
  #output_level MD_light
  #
  # Output SALTED info
    ri_density_restart write
    ri_rho1 write
    ri_full_output .true.
  #  sc_accuracy_rho    1d-6
    default_prodbas_acc 1e-6
    default_max_l_prodbas 6
  #
  #
  ################################################################################
  #
  #  FHI-aims code project
  #  VB, Fritz-Haber Institut, 2009
  #
  #  Suggested "light" defaults for H atom (to be pasted into control.in file)
  #  Be sure to double-check any results obtained with these settings for post-processing,
  #  e.g., with the "tight" defaults and larger basis sets.
  #
  ################################################################################
    species        H
  #     global species definitions
      nucleus             1
      mass                1.00794
  #
      l_hartree           4
  #
      cut_pot             3.5  1.5  1.0
      basis_dep_cutoff    1e-4
  #
      radial_base         24 5.0
      radial_multiplier   1
      angular_grids       specified
        division   0.2421   50
        division   0.3822  110
        division   0.4799  194
        division   0.5341  302
  #      division   0.5626  434
  #      division   0.5922  590
  #      division   0.6542  770
  #      division   0.6868 1202
  #      outer_grid  770
        outer_grid  302
  ################################################################################
  #
  #  Definition of "minimal" basis
  #
  ################################################################################
  #     valence basis states
      valence      1  s   1.
  #     ion occupancy
      ion_occ      1  s   0.5
  ################################################################################
  #
  #  Suggested additional basis functions. For production calculations,
  #  uncomment them one after another (the most important basis functions are
  #  listed first).
  #
  #  Basis constructed for dimers: 0.5 A, 0.7 A, 1.0 A, 1.5 A, 2.5 A
  #
  ################################################################################
  #  "First tier" - improvements: -1014.90 meV to -62.69 meV
       hydro 2 s 2.1
       hydro 2 p 3.5
  #  "Second tier" - improvements: -12.89 meV to -1.83 meV
  #     hydro 1 s 0.85
  #     hydro 2 p 3.7
  #     hydro 2 s 1.2
  #     hydro 3 d 7
  #  "Third tier" - improvements: -0.25 meV to -0.12 meV
  #     hydro 4 f 11.2
  #     hydro 3 p 4.8
  #     hydro 4 d 9
  #     hydro 3 s 3.2
  ################################################################################
  ################################################################################
  #
  #  FHI-aims code project
  #  VB, Fritz-Haber Institut, 2009
  #
  #  Suggested "light" defaults for C atom (to be pasted into control.in file)
  #  Be sure to double-check any results obtained with these settings for post-processing,
  #  e.g., with the "tight" defaults and larger basis sets.
  #
  ################################################################################
    species        C
  #     global species definitions
      nucleus             6
      mass                12.0107
  #
      l_hartree           4
  #
      cut_pot             3.5  1.5  1.0
      basis_dep_cutoff    1e-4
  #
      radial_base         34 5.0
      radial_multiplier   1
      angular_grids specified
        division   0.3326   50
        division   0.5710  110
        division   0.7727  194
        division   0.8772  302
  #      division   0.9334  434
  #      division   0.9625  590
  #      division   0.9924  770
  #      division   1.0230  974
  #      division   1.4589 1202
  #     outer_grid  974
       outer_grid 302
  ################################################################################
  #
  #  Definition of "minimal" basis
  #
  ################################################################################
  #     valence basis states
      valence      2  s   2.
      valence      2  p   2.
  #     ion occupancy
      ion_occ      2  s   1.
      ion_occ      2  p   1.
  ################################################################################
  #
  #  Suggested additional basis functions. For production calculations,
  #  uncomment them one after another (the most important basis functions are
  #  listed first).
  #
  #  Constructed for dimers: 1.0 A, 1.25 A, 1.5 A, 2.0 A, 3.0 A
  #
  ################################################################################
  #  "First tier" - improvements: -1214.57 meV to -155.61 meV
       hydro 2 p 1.7
       hydro 3 d 6
       hydro 2 s 4.9
  #  "Second tier" - improvements: -67.75 meV to -5.23 meV
  #     hydro 4 f 9.8
  #     hydro 3 p 5.2
  #     hydro 3 s 4.3
  #     hydro 5 g 14.4
  #     hydro 3 d 6.2
  #  "Third tier" - improvements: -2.43 meV to -0.60 meV
  #     hydro 2 p 5.6
  #     hydro 2 s 1.4
  #     hydro 3 d 4.9
  #     hydro 4 f 11.2
  #  "Fourth tier" - improvements: -0.39 meV to -0.18 meV
  #     hydro 2 p 2.1
  #     hydro 5 g 16.4
  #     hydro 4 d 13.2
  #     hydro 3 s 13.6
  #     hydro 4 f 17.6
  #  Further basis functions - improvements: -0.08 meV and below
  #     hydro 3 s 2
  #     hydro 3 p 6
  #     hydro 4 d 20
  
  -----------------------------------------------------------------------
  Completed first pass over input file control.in .
  -----------------------------------------------------------------------
  
  
  -----------------------------------------------------------------------
  Parsing geometry.in (first pass over file, find array dimensions only).
  The contents of geometry.in will be repeated verbatim below
  unless switched off by setting 'verbatim_writeout .false.' .
  in the first line of geometry.in .
  -----------------------------------------------------------------------
  
  #=======================================================
  # FHI-aims file: /ada/ptmp/mpsd/alewis/naphthalene/qmdata/data/geoms/114.in
  # Created using the Atomic Simulation Environment (ASE)
  # Thu Jan 19 15:19:16 2023
  #=======================================================
  lattice_vector 8.1020000000000003 0.0000000000000000 0.0000000000000000
  lattice_vector 0.0000000000000000 11.8800000000000008 0.0000000000000000
  lattice_vector -9.7850918486534706 0.0000000000000000 14.2571119625755713
  atom -0.8761790000000000 0.1230800000000000 2.3716400000000002 C
  atom 0.2762660000000000 2.8749899999999999 4.8030600000000003 C
  atom 4.3831199999999999 5.7404200000000003 4.8497300000000001 C
  atom 3.1170200000000001 2.8338199999999998 2.4780400000000000 C
  atom -0.1330390000000000 1.0139000000000000 1.6052500000000001 C
  atom -0.5325180000000000 3.7924199999999999 5.4843299999999999 C
  atom 3.5889799999999998 4.8960800000000004 5.6026999999999996 C
  atom 3.8788600000000000 2.0168800000000000 1.6817100000000000 C
  atom 0.2900720000000000 0.6854070000000000 0.3167900000000000 C
  atom -0.9596830000000000 3.5537000000000001 6.8258500000000000 C
  atom 3.1744200000000000 5.3038499999999997 6.8949400000000001 C
  atom 4.2572200000000002 2.4355000000000002 0.3651460000000000 C
  atom -3.8357299999999999 1.6462300000000001 6.7068399999999997 C
  atom 2.9733600000000000 4.4683200000000003 0.7352810000000000 C
  atom 7.2032400000000001 4.3784000000000001 0.6092400000000000 C
  atom 0.3193190000000000 1.4754100000000001 6.7638400000000001 C
  atom -3.4460400000000000 1.2836900000000000 5.4168700000000003 C
  atom 2.6198299999999999 4.0539100000000001 1.9897700000000000 C
  atom 6.8559400000000004 4.8104600000000000 1.8647100000000001 C
  atom 0.7863170000000000 1.7458400000000001 5.4828500000000000 C
  atom -1.2721600000000000 0.4398620000000000 3.3286500000000001 H
  atom 0.5759130000000000 3.1251099999999998 3.7964300000000000 H
  atom 4.7403700000000004 5.3917599999999997 3.9029600000000002 H
  atom 2.8866299999999998 2.5049700000000001 3.5224500000000001 H
  atom 0.1565060000000000 1.9777400000000001 2.0305599999999999 H
  atom -0.9197220000000000 4.6588599999999998 5.0086700000000004 H
  atom 3.2340399999999998 3.9579300000000002 5.2507999999999999 H
  atom 4.2927600000000004 1.0765499999999999 2.0611600000000001 H
  atom -3.5748400000000000 2.6268899999999999 7.1243999999999996 H
  atom 2.6672899999999999 5.4564199999999996 0.4076940000000000 H
  atom 6.9210200000000004 3.3689300000000002 0.2772360000000000 H
  atom 0.6513110000000000 0.5559760000000000 7.2659500000000001 H
  atom -2.9668800000000002 1.9497899999999999 4.7308100000000000 H
  atom 2.0390400000000000 4.7066200000000000 2.6617999999999999 H
  atom 6.2272400000000001 4.1613499999999997 2.5237200000000000 H
  atom 1.5252500000000000 1.0922499999999999 5.0495000000000001 H
  atom -5.8084499999999997 0.2103890000000000 9.5401799999999994 C
  atom -4.7599200000000002 3.4057499999999998 12.0300999999999991 C
  atom -0.7063220000000000 5.6480499999999996 11.8966999999999992 C
  atom -1.7665599999999999 2.8931100000000001 9.4176300000000008 C
  atom -5.0071700000000003 1.0498499999999999 8.8095199999999991 C
  atom -5.5842599999999996 4.1531500000000001 12.8431999999999995 C
  atom -1.4734799999999999 4.8154100000000000 12.7098999999999993 C
  atom -1.0203700000000000 1.9839100000000001 8.7238399999999992 C
  atom -4.6131500000000001 0.7242900000000000 7.4902100000000003 C
  atom -5.9738499999999997 3.6926600000000001 14.1401000000000003 C
  atom -1.8185500000000001 5.2329299999999996 14.0168999999999997 C
  atom -0.5836840000000000 2.3089300000000001 7.4211299999999998 C
  atom -8.6705900000000007 1.5451600000000001 13.7997999999999994 C
  atom -1.6966000000000001 4.4730999999999996 7.6017700000000001 C
  atom 2.3178299999999998 4.4557500000000001 7.6857499999999996 C
  atom -4.7214999999999998 1.6603600000000001 13.7375000000000007 C
  atom -8.2472200000000004 1.2182500000000001 12.5475999999999992 C
  atom -2.0788099999999998 4.1609200000000000 8.8545999999999996 C
  atom 1.9716800000000001 4.7727199999999996 8.9699500000000008 C
  atom -4.3586400000000003 2.1073900000000001 12.4809000000000001 C
  atom -6.1977799999999998 0.4679190000000000 10.5355000000000008 H
  atom -4.3513099999999998 3.8022600000000000 11.0776000000000003 H
  atom -0.4315680000000000 5.2588999999999997 10.9074000000000009 H
  atom -2.0893600000000001 2.6507499999999999 10.4350000000000005 H
  atom -4.6752300000000000 2.0133000000000001 9.1763700000000004 H
  atom -6.0077699999999998 5.0997800000000000 12.5290999999999997 H
  atom -1.7412900000000000 3.8267600000000002 12.3985000000000003 H
  atom -0.7211560000000000 1.0324000000000000 9.1504600000000007 H
  atom -8.3486600000000006 2.4435199999999999 14.3185000000000002 H
  atom -1.9953500000000000 5.4335699999999996 7.1940600000000003 H
  atom 1.9434499999999999 3.5102899999999999 7.2096799999999996 H
  atom -4.3830499999999999 0.6880430000000000 14.1115999999999993 H
  atom -7.6142200000000004 1.9752400000000001 12.0433000000000003 H
  atom -2.6331400000000000 4.9032200000000001 9.4269099999999995 H
  atom 1.3303900000000000 4.1218399999999997 9.5446500000000007 H
  atom -3.7540600000000000 1.5028500000000000 11.8242999999999991 H
  atom -0.8596950000000000 6.1131300000000000 2.3211700000000000 C
  atom 0.1515010000000000 8.8966499999999993 4.7178100000000001 C
  atom 4.3181799999999999 11.8734000000000002 4.8930999999999996 C
  atom 3.3519800000000002 8.5555099999999999 2.5880600000000000 C
  atom -0.1230610000000000 6.9453699999999996 1.4826400000000000 C
  atom -0.5304070000000000 9.8106700000000000 5.4776600000000002 C
  atom 3.6382599999999998 10.9303000000000008 5.6475799999999996 C
  atom 4.1018800000000004 7.7776800000000001 1.7430800000000000 C
  atom 0.2846080000000000 6.5526799999999996 0.1844880000000000 C
  atom -0.8992830000000001 9.4850499999999993 6.8380599999999996 C
  atom 3.1411300000000000 11.3033999999999999 6.9292699999999998 C
  atom 4.3684700000000003 8.1922300000000003 0.4011080000000000 C
  atom -3.7448500000000000 7.4075800000000003 6.6203900000000004 C
  atom 3.1358500000000000 10.2481000000000009 0.8645590000000000 C
  atom 7.2583399999999996 10.3635999999999999 0.5847980000000000 C
  atom 0.2657380000000000 7.3579499999999998 6.5948099999999998 C
  atom -3.3068800000000000 6.9998100000000001 5.3647700000000000 C
  atom 2.8037100000000001 9.7836599999999994 2.1246299999999998 C
  atom 6.8750400000000003 10.7355000000000000 1.8313999999999999 C
  atom 0.5641860000000000 7.6656599999999999 5.2984200000000001 C
  atom -1.1280600000000001 6.4379999999999997 3.3205300000000002 H
  atom 0.4328540000000000 9.1487099999999995 3.6874500000000001 H
  atom 4.6073700000000004 11.5554000000000006 3.8773900000000001 H
  atom 3.1301399999999999 8.2467400000000008 3.6378800000000000 H
  atom 0.1847900000000000 7.9423700000000004 1.8167400000000000 H
  atom -0.9605760000000000 10.7177000000000007 5.0190599999999996 H
  atom 3.4417900000000001 9.9329499999999999 5.2513199999999998 H
  atom 4.5880000000000001 6.8549800000000003 2.0115500000000002 H
  atom -3.4605299999999999 8.3781099999999995 7.0553400000000002 H
  atom 2.8501400000000001 11.2642000000000007 0.5614330000000000 H
  atom 6.9109699999999998 9.4139800000000005 0.1794390000000000 H
  atom 0.5477340000000001 6.3913599999999997 7.0068799999999998 H
  atom -2.5834800000000002 7.6021999999999998 4.7938700000000001 H
  atom 2.2372999999999998 10.3750000000000000 2.8310300000000002 H
  atom 6.2199700000000000 10.0660000000000007 2.3919000000000001 H
  atom 1.1427099999999999 6.9651399999999999 4.7086199999999998 H
  atom -5.7502899999999997 6.0198799999999997 9.5166799999999991 C
  atom -4.8105900000000004 9.2391199999999998 12.0643999999999991 C
  atom -0.5082360000000000 11.8473000000000006 12.0372000000000003 C
  atom -1.6181200000000000 8.8377400000000002 9.4385499999999993 C
  atom -4.9677800000000003 6.8661700000000003 8.7757500000000004 C
  atom -5.5505000000000004 10.0105000000000004 12.9483999999999995 C
  atom -1.3007400000000000 10.9626999999999999 12.7296999999999993 C
  atom -0.8412050000000000 7.9290200000000004 8.7409999999999997 C
  atom -4.5068299999999999 6.5499499999999999 7.4447200000000002 C
  atom -5.8705400000000001 9.5138900000000000 14.2370999999999999 C
  atom -1.7547100000000000 11.2325999999999997 14.0520999999999994 C
  atom -0.4686240000000000 8.2556200000000004 7.4141800000000000 C
  atom -8.7225500000000000 7.3524599999999998 13.5739999999999998 C
  atom -1.7191399999999999 10.3545999999999996 7.5880700000000001 C
  atom 2.3411300000000002 10.4746000000000006 7.7302499999999998 C
  atom -4.6699999999999999 7.4180500000000000 13.7127999999999997 C
  atom -8.3995200000000008 6.9586600000000001 12.3096999999999994 C
  atom -2.0904300000000000 10.0422999999999991 8.8596900000000005 C
  atom 1.9389500000000000 10.8087999999999997 9.0122000000000000 C
  atom -4.3755400000000000 7.9259899999999996 12.4469999999999992 C
  atom -6.0570100000000000 6.3420899999999998 10.5114999999999998 H
  atom -4.5258599999999998 9.6514799999999994 11.1054999999999993 H
  atom -0.2437330000000000 11.5852000000000004 10.9954000000000001 H
  atom -1.8588499999999999 8.5926700000000000 10.4652999999999992 H
  atom -4.6863900000000003 7.8352500000000003 9.1623000000000001 H
  atom -5.9673200000000000 10.9981000000000009 12.6678999999999995 H
  atom -1.5320700000000000 9.9755299999999991 12.2967999999999993 H
  atom -0.4948680000000000 7.0166899999999996 9.2135400000000001 H
  atom -8.3702799999999993 8.3083799999999997 13.9993999999999996 H
  atom -2.0016600000000002 11.2702000000000009 7.0611300000000004 H
  atom 1.9732000000000001 9.5395800000000008 7.2689500000000002 H
  atom -4.3316999999999997 6.4152600000000000 13.9672999999999998 H
  atom -7.8059399999999997 7.5899299999999998 11.6587999999999994 H
  atom -2.7126800000000002 10.7141999999999999 9.4427099999999999 H
  atom 1.2414799999999999 10.1682000000000006 9.5357599999999998 H
  atom -3.7240700000000002 7.3593299999999999 11.7965000000000000 H
  
  -----------------------------------------------------------------------
  Completed first pass over input file geometry.in .
  -----------------------------------------------------------------------
  

  Basic array size parameters:
  | Number of species                 :        2
  | Number of atoms                   :      144
  | Number of lattice vectors         :        3
  | Max. basis fn. angular momentum   :        2
  | Max. atomic/ionic basis occupied n:        2
  | Max. number of basis fn. types    :        2
  | Max. radial fns per species/type  :        3
  | Max. logarithmic grid size        :     1277
  | Max. radial integration grid size :       34
  | Max. angular integration grid size:      302
  | Max. angular grid division number :        8
  | Radial grid for Hartree potential :     1277
  | Number of spin channels           :        1

------------------------------------------------------------
          Reading file control.in.
------------------------------------------------------------
  XC: Using Perdew-Wang parametrisation of Ceperley-Alder LDA.
  Spin treatment: No spin polarisation.
  Non-relativistic treatment of kinetic energy.
  Charge =   0.000000E+00: Neutral system requested explicitly.
  Found k-point grid:         2         1         1
  DFPT calculation will begin after the DFT/HF calculation.
  Charge density mixing - mixing parameter:     0.7500
  Forces will not be computed.
 
  Reading configuration options for species H                   .
  | Found nuclear charge :   1.0000
  | Found atomic mass :    1.00794000000000      amu
  | Found l_max for Hartree potential  :   4
  | Found cutoff potl. onset [A], width [A], scale factor :    3.50000    1.50000    1.00000
  | Threshold for basis-dependent cutoff potential is   0.100000E-03
  | Found data for basic radial integration grid :    24 points, outermost radius =    5.000 A
  | Found multiplier for basic radial grid :   1
  | Found angular grid specification: user-specified.
  | Specified grid contains     5 separate shells.
  | Check grid settings after all constraints further below.
  | Found free-atom valence shell :  1 s   1.000
  | No ionic wave fns used. Skipping ion_occ.
  | Found hydrogenic basis function :  2 s   2.100
  | Found hydrogenic basis function :  2 p   3.500
  Species H                   : Missing cutoff potential type.
  Defaulting to exp(1/x)/(1-x)^2 type cutoff potential.
  Species H : No 'logarithmic' tag. Using default grid for free atom:
  | Default logarithmic grid data [bohr] : 0.1000E-03 0.1000E+03 0.1012E+01
  Species H : On-site basis accuracy parameter (for Gram-Schmidt orthonormalisation) not specified.
  Using default value basis_acc =  0.1000000E-03.
  Species H                   : Using default innermost maximum threshold i_radial=  2 for radial functions.
  Species H                   : Default cutoff onset for free atom density etc. : 0.35000000E+01 AA.
  Species H                   : Basic radial grid will be enhanced according to radial_multiplier =   1, to contain    24 grid points.
 
  Reading configuration options for species C                   .
  | Found nuclear charge :   6.0000
  | Found atomic mass :    12.0107000000000      amu
  | Found l_max for Hartree potential  :   4
  | Found cutoff potl. onset [A], width [A], scale factor :    3.50000    1.50000    1.00000
  | Threshold for basis-dependent cutoff potential is   0.100000E-03
  | Found data for basic radial integration grid :    34 points, outermost radius =    5.000 A
  | Found multiplier for basic radial grid :   1
  | Found angular grid specification: user-specified.
  | Specified grid contains     5 separate shells.
  | Check grid settings after all constraints further below.
  | Found free-atom valence shell :  2 s   2.000
  | Found free-atom valence shell :  2 p   2.000
  | No ionic wave fns used. Skipping ion_occ.
  | No ionic wave fns used. Skipping ion_occ.
  | Found hydrogenic basis function :  2 p   1.700
  | Found hydrogenic basis function :  3 d   6.000
  | Found hydrogenic basis function :  2 s   4.900
  Species C                   : Missing cutoff potential type.
  Defaulting to exp(1/x)/(1-x)^2 type cutoff potential.
  Species C : No 'logarithmic' tag. Using default grid for free atom:
  | Default logarithmic grid data [bohr] : 0.1000E-03 0.1000E+03 0.1012E+01
  Species C : On-site basis accuracy parameter (for Gram-Schmidt orthonormalisation) not specified.
  Using default value basis_acc =  0.1000000E-03.
  Species C                   : Using default innermost maximum threshold i_radial=  2 for radial functions.
  Species C                   : Default cutoff onset for free atom density etc. : 0.35000000E+01 AA.
  Species C                   : Basic radial grid will be enhanced according to radial_multiplier =   1, to contain    34 grid points.
 
  Finished reading input file 'control.in'.
 
------------------------------------------------------------


------------------------------------------------------------
          Reading geometry description geometry.in.
------------------------------------------------------------
  | The smallest distance between any two atoms is         1.06155435 AA.
  | The first atom of this pair is atom number                      6 .
  | The second atom of this pair is atom number                    26 .
  | Wigner-Seitz cell of the first atom image           0     0     0 .
  | (The Wigner-Seitz cell of the second atom is 0 0 0  by definition.)

  Symmetry information by spglib:
  | Precision set to  0.1E-04
  | Number of Operations  : 1
  | Space group           : 1
  | International         : P1
  | Schoenflies           : C1^1
  Input structure read successfully.
  The structure contains      144 atoms,  and a total of        544.000 electrons.

  Input geometry:
  | Unit cell:
  |        8.10200000        0.00000000        0.00000000
  |        0.00000000       11.88000000        0.00000000
  |       -9.78509185        0.00000000       14.25711196
  | Atomic structure:
  |       Atom                x [A]            y [A]            z [A]
  |    1: Species C            -0.87617900        0.12308000        2.37164000
  |    2: Species C             0.27626600        2.87499000        4.80306000
  |    3: Species C             4.38312000        5.74042000        4.84973000
  |    4: Species C             3.11702000        2.83382000        2.47804000
  |    5: Species C            -0.13303900        1.01390000        1.60525000
  |    6: Species C            -0.53251800        3.79242000        5.48433000
  |    7: Species C             3.58898000        4.89608000        5.60270000
  |    8: Species C             3.87886000        2.01688000        1.68171000
  |    9: Species C             0.29007200        0.68540700        0.31679000
  |   10: Species C            -0.95968300        3.55370000        6.82585000
  |   11: Species C             3.17442000        5.30385000        6.89494000
  |   12: Species C             4.25722000        2.43550000        0.36514600
  |   13: Species C            -3.83573000        1.64623000        6.70684000
  |   14: Species C             2.97336000        4.46832000        0.73528100
  |   15: Species C             7.20324000        4.37840000        0.60924000
  |   16: Species C             0.31931900        1.47541000        6.76384000
  |   17: Species C            -3.44604000        1.28369000        5.41687000
  |   18: Species C             2.61983000        4.05391000        1.98977000
  |   19: Species C             6.85594000        4.81046000        1.86471000
  |   20: Species C             0.78631700        1.74584000        5.48285000
  |   21: Species H            -1.27216000        0.43986200        3.32865000
  |   22: Species H             0.57591300        3.12511000        3.79643000
  |   23: Species H             4.74037000        5.39176000        3.90296000
  |   24: Species H             2.88663000        2.50497000        3.52245000
  |   25: Species H             0.15650600        1.97774000        2.03056000
  |   26: Species H            -0.91972200        4.65886000        5.00867000
  |   27: Species H             3.23404000        3.95793000        5.25080000
  |   28: Species H             4.29276000        1.07655000        2.06116000
  |   29: Species H            -3.57484000        2.62689000        7.12440000
  |   30: Species H             2.66729000        5.45642000        0.40769400
  |   31: Species H             6.92102000        3.36893000        0.27723600
  |   32: Species H             0.65131100        0.55597600        7.26595000
  |   33: Species H            -2.96688000        1.94979000        4.73081000
  |   34: Species H             2.03904000        4.70662000        2.66180000
  |   35: Species H             6.22724000        4.16135000        2.52372000
  |   36: Species H             1.52525000        1.09225000        5.04950000
  |   37: Species C            -5.80845000        0.21038900        9.54018000
  |   38: Species C            -4.75992000        3.40575000       12.03010000
  |   39: Species C            -0.70632200        5.64805000       11.89670000
  |   40: Species C            -1.76656000        2.89311000        9.41763000
  |   41: Species C            -5.00717000        1.04985000        8.80952000
  |   42: Species C            -5.58426000        4.15315000       12.84320000
  |   43: Species C            -1.47348000        4.81541000       12.70990000
  |   44: Species C            -1.02037000        1.98391000        8.72384000
  |   45: Species C            -4.61315000        0.72429000        7.49021000
  |   46: Species C            -5.97385000        3.69266000       14.14010000
  |   47: Species C            -1.81855000        5.23293000       14.01690000
  |   48: Species C            -0.58368400        2.30893000        7.42113000
  |   49: Species C            -8.67059000        1.54516000       13.79980000
  |   50: Species C            -1.69660000        4.47310000        7.60177000
  |   51: Species C             2.31783000        4.45575000        7.68575000
  |   52: Species C            -4.72150000        1.66036000       13.73750000
  |   53: Species C            -8.24722000        1.21825000       12.54760000
  |   54: Species C            -2.07881000        4.16092000        8.85460000
  |   55: Species C             1.97168000        4.77272000        8.96995000
  |   56: Species C            -4.35864000        2.10739000       12.48090000
  |   57: Species H            -6.19778000        0.46791900       10.53550000
  |   58: Species H            -4.35131000        3.80226000       11.07760000
  |   59: Species H            -0.43156800        5.25890000       10.90740000
  |   60: Species H            -2.08936000        2.65075000       10.43500000
  |   61: Species H            -4.67523000        2.01330000        9.17637000
  |   62: Species H            -6.00777000        5.09978000       12.52910000
  |   63: Species H            -1.74129000        3.82676000       12.39850000
  |   64: Species H            -0.72115600        1.03240000        9.15046000
  |   65: Species H            -8.34866000        2.44352000       14.31850000
  |   66: Species H            -1.99535000        5.43357000        7.19406000
  |   67: Species H             1.94345000        3.51029000        7.20968000
  |   68: Species H            -4.38305000        0.68804300       14.11160000
  |   69: Species H            -7.61422000        1.97524000       12.04330000
  |   70: Species H            -2.63314000        4.90322000        9.42691000
  |   71: Species H             1.33039000        4.12184000        9.54465000
  |   72: Species H            -3.75406000        1.50285000       11.82430000
  |   73: Species C            -0.85969500        6.11313000        2.32117000
  |   74: Species C             0.15150100        8.89665000        4.71781000
  |   75: Species C             4.31818000       11.87340000        4.89310000
  |   76: Species C             3.35198000        8.55551000        2.58806000
  |   77: Species C            -0.12306100        6.94537000        1.48264000
  |   78: Species C            -0.53040700        9.81067000        5.47766000
  |   79: Species C             3.63826000       10.93030000        5.64758000
  |   80: Species C             4.10188000        7.77768000        1.74308000
  |   81: Species C             0.28460800        6.55268000        0.18448800
  |   82: Species C            -0.89928300        9.48505000        6.83806000
  |   83: Species C             3.14113000       11.30340000        6.92927000
  |   84: Species C             4.36847000        8.19223000        0.40110800
  |   85: Species C            -3.74485000        7.40758000        6.62039000
  |   86: Species C             3.13585000       10.24810000        0.86455900
  |   87: Species C             7.25834000       10.36360000        0.58479800
  |   88: Species C             0.26573800        7.35795000        6.59481000
  |   89: Species C            -3.30688000        6.99981000        5.36477000
  |   90: Species C             2.80371000        9.78366000        2.12463000
  |   91: Species C             6.87504000       10.73550000        1.83140000
  |   92: Species C             0.56418600        7.66566000        5.29842000
  |   93: Species H            -1.12806000        6.43800000        3.32053000
  |   94: Species H             0.43285400        9.14871000        3.68745000
  |   95: Species H             4.60737000       11.55540000        3.87739000
  |   96: Species H             3.13014000        8.24674000        3.63788000
  |   97: Species H             0.18479000        7.94237000        1.81674000
  |   98: Species H            -0.96057600       10.71770000        5.01906000
  |   99: Species H             3.44179000        9.93295000        5.25132000
  |  100: Species H             4.58800000        6.85498000        2.01155000
  |  101: Species H            -3.46053000        8.37811000        7.05534000
  |  102: Species H             2.85014000       11.26420000        0.56143300
  |  103: Species H             6.91097000        9.41398000        0.17943900
  |  104: Species H             0.54773400        6.39136000        7.00688000
  |  105: Species H            -2.58348000        7.60220000        4.79387000
  |  106: Species H             2.23730000       10.37500000        2.83103000
  |  107: Species H             6.21997000       10.06600000        2.39190000
  |  108: Species H             1.14271000        6.96514000        4.70862000
  |  109: Species C            -5.75029000        6.01988000        9.51668000
  |  110: Species C            -4.81059000        9.23912000       12.06440000
  |  111: Species C            -0.50823600       11.84730000       12.03720000
  |  112: Species C            -1.61812000        8.83774000        9.43855000
  |  113: Species C            -4.96778000        6.86617000        8.77575000
  |  114: Species C            -5.55050000       10.01050000       12.94840000
  |  115: Species C            -1.30074000       10.96270000       12.72970000
  |  116: Species C            -0.84120500        7.92902000        8.74100000
  |  117: Species C            -4.50683000        6.54995000        7.44472000
  |  118: Species C            -5.87054000        9.51389000       14.23710000
  |  119: Species C            -1.75471000       11.23260000       14.05210000
  |  120: Species C            -0.46862400        8.25562000        7.41418000
  |  121: Species C            -8.72255000        7.35246000       13.57400000
  |  122: Species C            -1.71914000       10.35460000        7.58807000
  |  123: Species C             2.34113000       10.47460000        7.73025000
  |  124: Species C            -4.67000000        7.41805000       13.71280000
  |  125: Species C            -8.39952000        6.95866000       12.30970000
  |  126: Species C            -2.09043000       10.04230000        8.85969000
  |  127: Species C             1.93895000       10.80880000        9.01220000
  |  128: Species C            -4.37554000        7.92599000       12.44700000
  |  129: Species H            -6.05701000        6.34209000       10.51150000
  |  130: Species H            -4.52586000        9.65148000       11.10550000
  |  131: Species H            -0.24373300       11.58520000       10.99540000
  |  132: Species H            -1.85885000        8.59267000       10.46530000
  |  133: Species H            -4.68639000        7.83525000        9.16230000
  |  134: Species H            -5.96732000       10.99810000       12.66790000
  |  135: Species H            -1.53207000        9.97553000       12.29680000
  |  136: Species H            -0.49486800        7.01669000        9.21354000
  |  137: Species H            -8.37028000        8.30838000       13.99940000
  |  138: Species H            -2.00166000       11.27020000        7.06113000
  |  139: Species H             1.97320000        9.53958000        7.26895000
  |  140: Species H            -4.33170000        6.41526000       13.96730000
  |  141: Species H            -7.80594000        7.58993000       11.65880000
  |  142: Species H            -2.71268000       10.71420000        9.44271000
  |  143: Species H             1.24148000       10.16820000        9.53576000
  |  144: Species H            -3.72407000        7.35933000       11.79650000

  Lattice parameters for 3D lattice (in Angstroms) :     8.102000   11.880000   17.292000
  Angle(s) between unit vectors (in degrees)       :    90.000000  124.463000   90.000000


  Quantities derived from the lattice vectors (in Angstrom^-1):
  | Reciprocal lattice vector 1:  0.775510  0.000000  0.532257
  | Reciprocal lattice vector 2:  0.000000  0.528888  0.000000
  | Reciprocal lattice vector 3: -0.000000  0.000000  0.440705
  | Unit cell volume                               :   0.137227E+04  Angstrom^3

  Fractional coordinates:
                         L1                L2                L3
       atom_frac         0.09276105        0.01036027        0.16634786  C
       atom_frac         0.44097173        0.24200253        0.33688871  C
       atom_frac         0.95181905        0.48320034        0.34016216  C
       atom_frac         0.59464017        0.23853704        0.17381080  C
       atom_frac         0.11956223        0.08534512        0.11259293  C
       atom_frac         0.39885773        0.31922727        0.38467328  C
       atom_frac         0.91758631        0.41212795        0.39297580  C
       atom_frac         0.62121316        0.16977104        0.11795587  C
       atom_frac         0.06263820        0.05769419        0.02221979  C
       atom_frac         0.45977617        0.29913300        0.47876807  C
       atom_frac         0.97588597        0.44645202        0.48361407  C
       atom_frac         0.55638495        0.20500842        0.02561150  C
       atom_frac         0.09471481        0.13857155        0.47042066  C
       atom_frac         0.42927744        0.37612121        0.05157293  C
       atom_frac         0.94067885        0.36855219        0.04273236  C
       atom_frac         0.61238573        0.12419276        0.47441866  C
       atom_frac         0.03353783        0.10805471        0.37994160  C
       atom_frac         0.49191187        0.34123822        0.13956333  C
       atom_frac         1.00416533        0.40492088        0.13079157  C
       atom_frac         0.56151130        0.14695623        0.38456947  C
       atom_frac         0.12495609        0.03702542        0.23347295  H
       atom_frac         0.39268316        0.26305640        0.26628324  H
       atom_frac         0.91571103        0.45385185        0.27375530  H
       atom_frac         0.65467726        0.21085606        0.24706617  H
       atom_frac         0.19132824        0.16647643        0.14242436  H
       atom_frac         0.31077282        0.39215993        0.35131028  H
       atom_frac         0.84396749        0.33315909        0.36829338  H
       atom_frac         0.70444299        0.09061869        0.14457065  H
       atom_frac         0.16228753        0.22111869        0.49970850  H
       atom_frac         0.36375004        0.45929461        0.02859583  H
       atom_frac         0.87772100        0.28357997        0.01944545  H
       atom_frac         0.69589665        0.04679933        0.50963688  H
       atom_frac         0.03456178        0.16412374        0.33182106  H
       atom_frac         0.47715561        0.39618013        0.18669980  H
       atom_frac         0.98239277        0.35028199        0.17701481  H
       atom_frac         0.61600546        0.09194024        0.35417411  H
       atom_frac         0.09124503        0.01770951        0.66915235  C
       atom_frac         0.43158547        0.28667929        0.84379642  C
       atom_frac         0.92060565        0.47542508        0.83443968  C
       atom_frac         0.57973925        0.24352778        0.66055664  C
       atom_frac         0.12824894        0.08837121        0.61790354  C
       atom_frac         0.39871894        0.34959175        0.90082760  C
       atom_frac         0.89480535        0.40533754        0.89147788  C
       atom_frac         0.61306691        0.16699579        0.61189391  C
       atom_frac         0.06512097        0.06096717        0.52536657  C
       atom_frac         0.46049531        0.31082997        0.99179273  C
       atom_frac         0.96293224        0.44048232        0.98315143  C
       atom_frac         0.55661126        0.19435438        0.52052127  C
       atom_frac         0.09881939        0.13006397        0.96792394  C
       atom_frac         0.43455038        0.37652357        0.53319144  C
       atom_frac         0.93715073        0.37506313        0.53908183  C
       atom_frac         0.58096350        0.13976094        0.96355419  C
       atom_frac         0.04499895        0.10254630        0.88009409  C
       atom_frac         0.49350441        0.35024579        0.62106547  C
       atom_frac         1.00321290        0.40174411        0.62915617  C
       atom_frac         0.51930181        0.17738973        0.87541572  C
       atom_frac         0.12750627        0.03938712        0.73896453  H
       atom_frac         0.40133122        0.32005556        0.77698766  H
       atom_frac         0.87071268        0.44266835        0.76504975  H
       atom_frac         0.62607992        0.22312710        0.73191541  H
       atom_frac         0.20029540        0.16946970        0.64363456  H
       atom_frac         0.31983886        0.42927441        0.87879649  H
       atom_frac         0.83537147        0.32211785        0.86963615  H
       atom_frac         0.68613731        0.08690236        0.64181722  H
       atom_frac         0.18249375        0.20568350        1.00430578  H
       atom_frac         0.36313914        0.45737121        0.50459448  H
       atom_frac         0.85061390        0.29547896        0.50569007  H
       atom_frac         0.65442762        0.05791608        0.98979373  H
       atom_frac         0.08040793        0.16626599        0.84472227  H
       atom_frac         0.47356660        0.41272896        0.66120755  H
       atom_frac         0.97274440        0.34695623        0.66946588  H
       atom_frac         0.53830148        0.12650253        0.82936152  H
       atom_frac         0.09052023        0.51457323        0.16280787  C
       atom_frac         0.41835081        0.74887626        0.33090923  C
       atom_frac         0.94747768        0.99944444        0.34320415  C
       atom_frac         0.63296034        0.72016077        0.18152765  C
       atom_frac         0.11040733        0.58462710        0.10399301  C
       atom_frac         0.39855326        0.82581397        0.38420544  C
       atom_frac         0.92747060        0.92005892        0.39612370  C
       atom_frac         0.65393842        0.65468687        0.12226039  C
       atom_frac         0.05075633        0.55157239        0.01294007  C
       atom_frac         0.46826545        0.79840488        0.47962449  C
       atom_frac         0.97468525        0.95146465        0.48602200  C
       atom_frac         0.57316251        0.68958165        0.02813389  C
       atom_frac         0.09860850        0.62353367        0.46435702  C
       atom_frac         0.46028428        0.86263468        0.06064054  C
       atom_frac         0.94540913        0.87235690        0.04101798  C
       atom_frac         0.59145368        0.61935606        0.46256283  C
       atom_frac         0.04630038        0.58920960        0.37628729  C
       atom_frac         0.52603166        0.82354040        0.14902247  C
       atom_frac         1.00370104        0.90366162        0.12845519  C
       atom_frac         0.51847120        0.64525758        0.37163347  C
       atom_frac         0.14205397        0.54191919        0.23290341  H
       atom_frac         0.36579409        0.77009343        0.25863934  H
       atom_frac         0.89712927        0.97267677        0.27196181  H
       atom_frac         0.69451102        0.69417003        0.25516248  H
       atom_frac         0.17670627        0.66854966        0.12742693  H
       atom_frac         0.30661051        0.90216330        0.35203904  H
       atom_frac         0.86965335        0.83610690        0.36832986  H
       atom_frac         0.73668085        0.57701852        0.14109099  H
       atom_frac         0.17054623        0.70522811        0.49486460  H
       atom_frac         0.39934197        0.94816498        0.03937915  H
       atom_frac         0.86819606        0.79242256        0.01258593  H
       atom_frac         0.66116638        0.53799327        0.49146559  H
       atom_frac         0.08722532        0.63991582        0.33624412  H
       atom_frac         0.51596179        0.87331650        0.19856967  H
       atom_frac         0.97032882        0.84730640        0.16776890  H
       atom_frac         0.53991359        0.58629125        0.33026464  H
       atom_frac         0.09643279        0.50672391        0.66750405  C
       atom_frac         0.42823705        0.77770370        0.84620223  C
       atom_frac         0.95695660        0.99724747        0.84429441  C
       atom_frac         0.59983281        0.74391751        0.66202398  C
       atom_frac         0.13025001        0.57796044        0.61553490  C
       atom_frac         0.41179743        0.84263468        0.90820638  C
       atom_frac         0.91780330        0.92278620        0.89286666  C
       atom_frac         0.63663423        0.66742593        0.61309752  C
       atom_frac         0.07439015        0.55134259        0.52217588  C
       atom_frac         0.48146347        0.80083249        0.99859635  C
       atom_frac         0.97379362        0.94550505        0.98562037  C
       atom_frac         0.57022395        0.69491751        0.52003379  C
       atom_frac         0.07327835        0.61889394        0.95208623  C
       atom_frac         0.43060781        0.87159933        0.53223051  C
       atom_frac         0.94379621        0.88170034        0.54220308  C
       atom_frac         0.58522759        0.62441498        0.96182172  C
       atom_frac         0.00604832        0.58574579        0.86340768  C
       atom_frac         0.49250137        0.84531145        0.62142249  C
       atom_frac         1.00275221        0.90983165        0.63211961  C
       atom_frac         0.51434419        0.66717088        0.87303796  C
       atom_frac         0.14284792        0.53384596        0.73728116  H
       atom_frac         0.38215060        0.81241414        0.77894457  H
       atom_frac         0.90135105        0.97518519        0.77122211  H
       atom_frac         0.65709768        0.72328872        0.73404067  H
       atom_frac         0.19772607        0.65953283        0.64264769  H
       atom_frac         0.33658937        0.92576599        0.88853199  H
       atom_frac         0.85257959        0.83969108        0.86250287  H
       atom_frac         0.71941079        0.59063047        0.64624168  H
       atom_frac         0.15279391        0.69935859        0.98192397  H
       atom_frac         0.35109966        0.94867003        0.49527071  H
       atom_frac         0.85930667        0.80299495        0.50984730  H
       atom_frac         0.64854172        0.54000505        0.97967246  H
       atom_frac         0.02417316        0.63888300        0.81775328  H
       atom_frac         0.46508770        0.90186869        0.66231576  H
       atom_frac         0.96101748        0.85590909        0.66884233  H
       atom_frac         0.53964807        0.61947222        0.82741161  H

 
  Finished reading input file 'geometry.in'.
 

 
  Consistency checks for stacksize environment parameter are next.
 
  | Maximum stacksize for task 0: unlimited
  | Maximum stacksize for task 1: unlimited
  | Maximum stacksize for task 2: unlimited
  | Maximum stacksize for task 3: unlimited
  | Maximum stacksize for task 4: unlimited
  | Maximum stacksize for task 5: unlimited
  | Maximum stacksize for task 6: unlimited
  | Maximum stacksize for task 7: unlimited
  | Maximum stacksize for task 8: unlimited
  | Maximum stacksize for task 9: unlimited
  | Maximum stacksize for task 10: unlimited
  | Maximum stacksize for task 11: unlimited
  | Maximum stacksize for task 12: unlimited
  | Maximum stacksize for task 13: unlimited
  | Maximum stacksize for task 14: unlimited
  | Maximum stacksize for task 15: unlimited
  | Maximum stacksize for task 16: unlimited
  | Maximum stacksize for task 17: unlimited
  | Current stacksize for task 0: unlimited
  | Current stacksize for task 1: unlimited
  | Current stacksize for task 2: unlimited
  | Current stacksize for task 3: unlimited
  | Current stacksize for task 4: unlimited
  | Current stacksize for task 5: unlimited
  | Current stacksize for task 6: unlimited
  | Current stacksize for task 7: unlimited
  | Current stacksize for task 8: unlimited
  | Current stacksize for task 9: unlimited
  | Current stacksize for task 10: unlimited
  | Current stacksize for task 11: unlimited
  | Current stacksize for task 12: unlimited
  | Current stacksize for task 13: unlimited
  | Current stacksize for task 14: unlimited
  | Current stacksize for task 15: unlimited
  | Current stacksize for task 16: unlimited
  | Current stacksize for task 17: unlimited
 
  Consistency checks for the contents of control.in are next.
 
  MPI_IN_PLACE appears to work with this MPI implementation.
  | Keeping use_mpi_in_place .true. (see manual).
  Explicit treatment of the Coulomb operator is needed, but the RI method is not specified.
  Coulomb operator: Defaulting to 'LVL fast' resolution of identity - RI_type = LVL_fast
  Species H: Using default value for prodbas_acc =   1.000000E-06.
  Species H: Using default value max_l_prodbas =     6.
  Species C: Using default value for prodbas_acc =   1.000000E-06.
  Species C: Using default value max_l_prodbas =     6.
  Target number of points in a grid batch is not set.  Since GPU acceleration is enabled, defaulting to  200
  Method for grid partitioning is not set. Defaulting to parallel hash+maxmin partitioning.
  Batch size limit is not set. Defaulting to    200
  By default, will store active basis functions for each batch.
  If in need of memory, prune_basis_once .false. can be used to disable this option.
  communication_type for Hartree potential was not specified.
  Defaulting to calc_hartree .
  Defaulting to Pulay charge density mixer.
  Pulay mixer: Number of relevant iterations not set.
  Defaulting to    8 iterations.
  Pulay mixer: Number of initial linear mixing iterations not set.
  Defaulting to    0 iterations.
  Work space size for distributed Hartree potential not set.
  Defaulting to   0.200000E+03 MB.
  Algorithm-dependent basis array size parameters:
  | n_max_pulay                         :        8
  Maximum number of self-consistency iterations not provided.
  Presetting  1000 iterations.
  Presetting      1001 iterations before the initial mixing cycle
  is restarted anyway using the sc_init_iter criterion / keyword.
  Presetting a factor      1.000 between actual scf density residual
  and density convergence criterion sc_accuracy_rho below which sc_init_iter
  takes no effect.
 * No s.c.f. convergence criteria (sc_accuracy_*) were provided in control.in.
 * The run will proceed with a reasonable default guess, but please check whether.
 * the s.c.f. cycles seem to take too much or too little time.
  Geometry relaxation not requested: no relaxation will be performed.
 * Notice: The s.c.f. convergence criterion sc_accuracy_rho was not provided.
 * We used to stop in this case, and ask the user to provide reasonable
 * scf convergence criteria. However, this led some users to employ criteria
 * that led to extremely long run times, e.g., for simple relaxation.
 * We now preset a default value for sc_accuracy_rho if it is not set.
 * You may still wish to check if this setting is too tight or too loose for your needs.
 * Based on n_atoms and forces and force-correction status, FHI-aims chose sc_accuracy_rho =  0.391918E-04 .
  No accuracy limit for integral partition fn. given. Defaulting to  0.1000E-14.
  No threshold value for u(r) in integrations given. Defaulting to  0.1000E-05.
  No occupation type (smearing scheme) given. Defaulting to Gaussian broadening, width =  0.1000E-01 eV.
  The width will be adjusted in iteration number     2 of the first full s.c.f. cycle only.
  S.C.F. convergence parameters will be adjusted in iteration number     2 of the first full s.c.f. cycle only.
  No accuracy for occupation numbers given. Defaulting to  0.1000E-12.
  No threshold value for occupation numbers given. Defaulting to  0.0000E+00.
  No accuracy for fermi level given. Defaulting to  0.1000E-19.
  Maximum # of iterations to find E_F not set. Defaulting to  200.
  Preferred method for the eigenvalue solver ('KS_method') not specified in 'control.in'.
  Calling BLACS routine to test compilation state
  Since ScaLAPACK support is enabled, defaulting to ELPA (via ELSI).
  Will not use alltoall communication since running on < 1024 CPUs.
  Threshold for basis singularities not set.
  Default threshold for basis singularities:  0.1000E-04
  partition_type (choice of integration weights) for integrals was not specified.
  | Using a version of the partition function of Stratmann and coworkers ('stratmann_sparse').
  | At each grid point, the set of atoms used to build the partition table is smoothly restricted to
  | only those atoms whose free-atom density would be non-zero at that grid point.
  Partitioning for Hartree potential was not defined. Using partition_type for integrals.
  | Adjusted default value of keyword multip_moments_threshold to:       0.10000000E-11
  | This value may affect high angular momentum components of the Hartree potential in periodic systems.
  Angular momentum expansion for Kerker preconditioner not set explicitly.
  | Using default value of   0
  No explicit requirement for turning off preconditioner.
  | By default, it will be turned off when the charge convergence reaches
  | sc_accuracy_rho  =   0.391918E-04
  No special mixing parameter while Kerker preconditioner is on.
  Using default: charge_mix_param =     0.7500.
  Threshold for auxiliary basis singularities not set.
  Default threshold for auxiliary basis singularities:  0.1000E-04
  No q(lm)/r^(l+1) cutoff set for long-range Hartree potential.
  | Using default value of  0.100000E-09 .
  | Verify using the multipole_threshold keyword.
  Defaulting to new monopole extrapolation.
  Density update method: automatic selection selected.
  Using density matrix based charge density update.
  Using density matrix based charge density update.
  Using packed matrix style: index .
  Defaulting to use time-reversal symmetry for k-point grid.
  Charge integration errors on the 3D integration grid will be compensated
  by explicit normalization and distribution of residual charges.
  Use the "compensate_multipole_errors" flag to change this behaviour.
  Default to 1D ("use_logsbt") integrations for auxiliary 2-center integrals.
  Default onset of logarithmic r-grid for SBT is -38.000000000000
  Default onset of logarithmic k-grid for SBT is -25.000000000000
  Default range of logarithmic r- and k-grid for SBT is  45.000000000000
  Default number of logarithmic r- and k-grid for SBT is   4096
  Default of use_2d_corr is to use the efficient 2D distribution where possible
 
  Consistency checks for the contents of geometry.in are next.
 

  Range separation radius for Ewald summation (hartree_convergence_parameter):      2.91768261 bohr.
  Number of empty states per atom not set in control.in .
  | Since you are using a method that relies on the unoccupied spectrum
  | (MP2,GW,RPA et al.), will use the full Hamiltonian size (see below)
  | as the max. possible number of states (occupied plus empty).

  Structure-dependent array size parameters: 
  | Maximum number of distinct radial functions  :        9
  | Maximum number of basis functions            :     1440
  | Number of Kohn-Sham states (occupied + empty):     1440
------------------------------------------------------------
CUDA runtime version: 11060
CUDA driver version: 11060
  Initializing GPUs...

  Number of GPUs available to MPI task         0 :   1
  Number of GPUs available to MPI task         1 :   1
  Number of GPUs available to MPI task         2 :   1
  Number of GPUs available to MPI task         3 :   1
  Number of GPUs available to MPI task         4 :   1
  Number of GPUs available to MPI task         5 :   1
  Number of GPUs available to MPI task         6 :   1
  Number of GPUs available to MPI task         7 :   1
  Number of GPUs available to MPI task         8 :   1
  Number of GPUs available to MPI task         9 :   1
  Number of GPUs available to MPI task        10 :   1
  Number of GPUs available to MPI task        11 :   1
  Number of GPUs available to MPI task        12 :   1
  Number of GPUs available to MPI task        13 :   1
  Number of GPUs available to MPI task        14 :   1
  Number of GPUs available to MPI task        15 :   1
  Number of GPUs available to MPI task        16 :   1
  Number of GPUs available to MPI task        17 :   1

  | MPI task         0, GPU activated = T, Device Name = NVIDIA A100-SXM4-80GB
  | MPI task         1, GPU activated = T, Device Name = NVIDIA A100-SXM4-80GB
  | MPI task         2, GPU activated = T, Device Name = NVIDIA A100-SXM4-80GB
  | MPI task         3, GPU activated = T, Device Name = NVIDIA A100-SXM4-80GB
  | MPI task         4, GPU activated = T, Device Name = NVIDIA A100-SXM4-80GB
  | MPI task         5, GPU activated = T, Device Name = NVIDIA A100-SXM4-80GB
  | MPI task         6, GPU activated = T, Device Name = NVIDIA A100-SXM4-80GB
  | MPI task         7, GPU activated = T, Device Name = NVIDIA A100-SXM4-80GB
  | MPI task         8, GPU activated = T, Device Name = NVIDIA A100-SXM4-80GB
  | MPI task         9, GPU activated = T, Device Name = NVIDIA A100-SXM4-80GB
  | MPI task        10, GPU activated = T, Device Name = NVIDIA A100-SXM4-80GB
  | MPI task        11, GPU activated = T, Device Name = NVIDIA A100-SXM4-80GB
  | MPI task        12, GPU activated = T, Device Name = NVIDIA A100-SXM4-80GB
  | MPI task        13, GPU activated = T, Device Name = NVIDIA A100-SXM4-80GB
  | MPI task        14, GPU activated = T, Device Name = NVIDIA A100-SXM4-80GB
  | MPI task        15, GPU activated = T, Device Name = NVIDIA A100-SXM4-80GB
  | MPI task        16, GPU activated = T, Device Name = NVIDIA A100-SXM4-80GB
  | MPI task        17, GPU activated = T, Device Name = NVIDIA A100-SXM4-80GB

------------------------------------------------------------
          Preparing all fixed parts of the calculation.
------------------------------------------------------------
  Determining machine precision:
    2.225073858507201E-308
  Setting up grids for atomic and cluster calculations.

  Creating wave function, potential, and density for free atoms.
  Runtime choices for atomic solver:
  | atomic solver xc        : PW-LDA
  | compute density gradient: 0
  | compute kinetic density : F

  Species: H

  List of occupied orbitals and eigenvalues:
    n    l              occ      energy [Ha]    energy [eV]
    1    0           1.0000        -0.232375        -6.3233


  Species: C

  List of occupied orbitals and eigenvalues:
    n    l              occ      energy [Ha]    energy [eV]
    1    0           2.0000        -9.944615      -270.6068
    2    0           2.0000        -0.498807       -13.5732
    2    1           2.0000        -0.196968        -5.3598


  Adding cutoff potential to free-atom effective potential.
  Creating fixed part of basis set: Ionic, confined, hydrogenic.
 
  H                    hydrogenic:
 
  List of hydrogenic basis orbitals: 
    n    l      effective z      eigenvalue [eV]  inner max. [A]     outer max. [A]     outer radius [A]   
    2    0         2.100000       -14.9728           0.193243           1.317208           4.583499
    2    1         3.500000       -41.6669           0.602369           0.602369           3.723403
 
 
  C                    hydrogenic:
 
  List of hydrogenic basis orbitals: 
    n    l      effective z      eigenvalue [eV]  inner max. [A]     outer max. [A]     outer radius [A]   
    2    1         1.700000        -9.7616           1.230570           1.230570           4.607917
    3    2         6.000000       -54.4224           0.792453           0.792453           3.883070
    2    0         4.900000       -81.6679           0.082559           0.562749           3.078220
 
  Creating atomic-like basis functions for current effective potential.

  Species H                   :

  List of atomic basis orbitals and eigenvalues:
    n    l      energy [Ha]    energy [eV]    outer radius [A]
    1    0        -0.232375        -6.3233       4.527807


  Species C                   :

  List of atomic basis orbitals and eigenvalues:
    n    l      energy [Ha]    energy [eV]    outer radius [A]
    1    0        -9.944615      -270.6068       1.934409
    2    0        -0.498807       -13.5732       4.496620
    2    1        -0.196968        -5.3598       4.551928

  Assembling full basis from fixed parts.
  | Species H :   atomic orbital   1 s accepted.
  | Species H :    hydro orbital   2 s accepted.
  | Species H :    hydro orbital   2 p accepted.
  | Species C :   atomic orbital   1 s accepted.
  | Species C :    hydro orbital   2 s accepted.
  | Species C :   atomic orbital   2 s accepted.
  | Species C :   atomic orbital   2 p accepted.
  | Species C :    hydro orbital   2 p accepted.
  | Species C :    hydro orbital   3 d accepted.
 
  Basis size parameters after reduction:
  | Total number of radial functions:        9
  | Total number of basis functions :     1440
 
  Per-task memory consumption for arrays in subroutine allocate_ext:
  |           2.242384MB.
  Testing on-site integration grid accuracy.
  |  Species  Function  <phi|h_atom|phi> (log., in eV)  <phi|h_atom|phi> (rad., in eV)
           1        1                 -6.3245358373                 -6.3232436907
           1        2                 14.1326137532                 14.1384481100
           1        3                 25.3627025200                 25.3628451197
           2        4               -270.6067544938               -270.6067222788
           2        5                -10.5634280949                -10.5635685736
           2        6                 16.2089822398                 16.2052121796
           2        7                 -5.3613872565                 -5.3627872378
           2        8                  8.5292058327                  8.5051734780
           2        9                 27.4884461005                 27.4884542459

  Preparing densities etc. for the partition functions (integrals / Hartree potential).

  Preparations completed.
  max(cpu_time)          :      0.072 s.
  Wall clock time (cpu1) :      0.070 s.
------------------------------------------------------------

  Initializing index lists of integration centers etc. from given atomic structure:
  Mapping all atomic coordinates to central unit cell.

  Initializing the k-points
  Using symmetry for reducing the k-points
  | k-points reduced from:        2 to        2
  | Number of k-points                             :         2
  | Consuming          0 KiB for k_phase_exx.
  The eigenvectors in the calculations are REAL.
  | Number of basis functions in the Hamiltonian integrals :      8063
  | Number of basis functions in a single unit cell        :      1440
  | Number of centers in hartree potential         :      3313
  | Number of centers in hartree multipole         :      2536
  | Number of centers in electron density summation:      1983
  | Number of centers in basis integrals           :      2112
  | Number of centers in integrals                 :       966
  | Number of centers in hamiltonian               :      1992
  | Consuming          1 KiB for k_phase.
  | Number of super-cells (origin) [n_cells]                     :         175
  | Number of super-cells (after PM_index) [n_cells]             :          36
  | Number of super-cells in hamiltonian [n_cells_in_hamiltonian]:          36
  | Size of matrix packed + index [n_hamiltonian_matrix_size] :     1930490
  | Size of matrix packed + index (no_symmetry):     3858163

------------------------------------------------------------
          Begin self-consistency loop: Initialization.

          Date     :  20230119, Time     :  194741.639
------------------------------------------------------------
  | Estimated reciprocal-space cutoff momentum G_max:         3.24344278 bohr^-1 .
  | Reciprocal lattice points for long-range Hartree potential:    5310
  Using simple linear distribution as default method for k-point parallelism.
  * Using 18 tasks for Scalapack Eigenvalue solver.
  Detailed listing of tasks and assigned k-points:
   Task     0 k-point     1 on adag012
   Task     1 k-point     1 on adag012
   Task     2 k-point     1 on adag012
   Task     3 k-point     1 on adag012
   Task     4 k-point     1 on adag012
   Task     5 k-point     1 on adag012
   Task     6 k-point     1 on adag012
   Task     7 k-point     1 on adag012
   Task     8 k-point     1 on adag012
   Task     9 k-point     2 on adag012
   Task    10 k-point     2 on adag012
   Task    11 k-point     2 on adag012
   Task    12 k-point     2 on adag012
   Task    13 k-point     2 on adag012
   Task    14 k-point     2 on adag012
   Task    15 k-point     2 on adag012
   Task    16 k-point     2 on adag012
   Task    17 k-point     2 on adag012
  K-point:     1 Tasks:     9 split into      3 X      3 BLACS grid
  Calculating block size based on n_basis =         1440  max_nprow =            3  max_npcol =            3
  ScaLAPACK block size set to:           16
  Allocating        1.758 MB for ovlp
  Allocating        1.758 MB for ham
  Allocating        1.758 MB for eigenvec
  Required Scalapack workspace - INTEGER:            1  REAL:             1
  Partitioning the integration grid into batches with parallel hashing+maxmin method.
  | Number of batches:     5632
  | Maximal batch size:     193
  | Minimal batch size:     100
  | Average batch size:     135.625
  | Standard deviation of batch sizes:      30.459

  Integration load balanced across    18 MPI tasks.
  Work distribution over tasks is as follows:
  Task     0 has      42439 integration points.
  Task     1 has      42441 integration points.
  Task     2 has      42421 integration points.
  Task     3 has      42424 integration points.
  Task     4 has      42434 integration points.
  Task     5 has      42434 integration points.
  Task     6 has      42458 integration points.
  Task     7 has      42408 integration points.
  Task     8 has      42379 integration points.
  Task     9 has      42453 integration points.
  Task    10 has      42445 integration points.
  Task    11 has      42459 integration points.
  Task    12 has      42404 integration points.
  Task    13 has      42453 integration points.
  Task    14 has      42429 integration points.
  Task    15 has      42483 integration points.
  Task    16 has      42430 integration points.
  Task    17 has      42446 integration points.
  Initializing partition tables, free-atom densities, potentials, etc. across the integration grid (initialize_grid_storage).
  | initialize_grid_storage: Actual outermost partition radius vs. multipole_radius_free
  | (-- VB: in principle, multipole_radius_free should be larger, hence this output)
  | Species        1: Confinement radius =              4.999999999999999 AA, multipole_radius_free =              5.054417573612229 AA.
  | Species        1: outer_partition_radius set to              5.054417573612229 AA .
  | Species        2: Confinement radius =              4.999999999999999 AA, multipole_radius_free =              5.019602836301480 AA.
  | Species        2: outer_partition_radius set to              5.019602836301480 AA .
  | The sparse table of interatomic distances needs       7599.82 kbyte instead of     35684.35 kbyte of memory.
  | Net number of integration points:   763840
  | of which are non-zero points    :   605361
  | Numerical average free-atom electrostatic potential    :     -8.61468894 eV
  Renormalizing the initial density to the exact electron count on the 3D integration grid.
  | Initial density: Formal number of electrons (from input files) :     544.0000000000
  | Integrated number of electrons on 3D grid     :     543.9970020260
  | Charge integration error                      :      -0.0029979740
  | Normalization factor for density and gradient :       1.0000055110
  Renormalizing the free-atom superposition density to the exact electron count on the 3D integration grid.
  | Formal number of electrons (from input files) :     544.0000000000
  | Integrated number of electrons on 3D grid     :     543.9970020260
  | Charge integration error                      :      -0.0029979740
  | Normalization factor for density and gradient :       1.0000055110
  Obtaining max. number of non-zero basis functions in each batch (get_n_compute_maxes).
  | Maximal number of non-zero basis functions:      531 in task     0
  | Maximal number of non-zero basis functions:      535 in task     1
  | Maximal number of non-zero basis functions:      543 in task     2
  | Maximal number of non-zero basis functions:      544 in task     3
  | Maximal number of non-zero basis functions:      542 in task     4
  | Maximal number of non-zero basis functions:      534 in task     5
  | Maximal number of non-zero basis functions:      535 in task     6
  | Maximal number of non-zero basis functions:      526 in task     7
  | Maximal number of non-zero basis functions:      538 in task     8
  | Maximal number of non-zero basis functions:      551 in task     9
  | Maximal number of non-zero basis functions:      538 in task    10
  | Maximal number of non-zero basis functions:      533 in task    11
  | Maximal number of non-zero basis functions:      537 in task    12
  | Maximal number of non-zero basis functions:      530 in task    13
  | Maximal number of non-zero basis functions:      531 in task    14
  | Maximal number of non-zero basis functions:      539 in task    15
  | Maximal number of non-zero basis functions:      528 in task    16
  | Maximal number of non-zero basis functions:      535 in task    17
  Integrating Hamiltonian matrix: batch-based integration.
  GPU acceleration will be used when integrating the Hamiltonian matrix.
  Reporting GPU memory usage by myid 0.  Note that it is likely not the only MPI task binding to its GPU!
  Allocating        2.256 MB on GPU for hamiltonian_shell
  Allocating        0.820 MB on GPU for wave
  Allocating        0.002 MB on GPU for partition
  Allocating        0.820 MB on GPU for h_times_psi
  Time summed over all CPUs for integration: real work       24.904 s, elapsed       25.743 s
  Deallocating memory used on GPU for Hamiltonian integration.
  Integrating overlap matrix.
  Time summed over all CPUs for integration: real work       21.896 s, elapsed       22.242 s
  Deallocating overlap matrix.

  Updating Kohn-Sham eigenvalues and eigenvectors using ELSI and the ELPA eigensolver.
  Singularity check in k-point 1 (analysis for other k-points may follow below):
  Overlap matrix is not singular
  | Lowest and highest eigenvalues :  0.7734E-03,  0.8265E+01
  Finished singularity check of overlap matrix
  | Time :     0.105 s
  Starting ELPA eigensolver
  Finished Cholesky decomposition
  | Time :     0.018 s
  Finished transformation to standard eigenproblem
  | Time :     0.025 s
  Finished solving standard eigenproblem
  | Time :     0.230 s
  Finished back-transformation of eigenvectors
  | Time :     0.017 s

  Obtaining occupation numbers and electronic chemical potential using ELSI.
  | Note that, for insulating systems, the printed 'chemical potential' value is not uniquely defined.
  | It can be anywhere in the energy gap, as long as it correctly separates occupied and unoccupied states.
  | In systems with a gap, the physically relevant chemical potential is the VBM or HOMO.

  | Chemical potential (Fermi level):    -8.16308718 eV
  Writing Kohn-Sham eigenvalues.
  K-point:       1 at    0.000000    0.000000    0.000000 (in units of recip. lattice)

  State    Occupation    Eigenvalue [Ha]    Eigenvalue [eV]
      1       2.00000         -10.071960         -274.07199
      2       2.00000         -10.070090         -274.02109
      3       2.00000         -10.069983         -274.01819
      4       2.00000         -10.068408         -273.97533
      5       2.00000         -10.068372         -273.97434
      6       2.00000         -10.068325         -273.97306
      7       2.00000         -10.068033         -273.96511
      8       2.00000         -10.067919         -273.96200
      9       2.00000         -10.067779         -273.95819
     10       2.00000         -10.067744         -273.95724
     11       2.00000         -10.067426         -273.94859
     12       2.00000         -10.067293         -273.94499
     13       2.00000         -10.067088         -273.93941
     14       2.00000         -10.066881         -273.93378
     15       2.00000         -10.066819         -273.93209
     16       2.00000         -10.066634         -273.92705
     17       2.00000         -10.066555         -273.92491
     18       2.00000         -10.066186         -273.91487
     19       2.00000         -10.066150         -273.91387
     20       2.00000         -10.066114         -273.91290
     21       2.00000         -10.065804         -273.90446
     22       2.00000         -10.065701         -273.90166
     23       2.00000         -10.065613         -273.89926
     24       2.00000         -10.065609         -273.89914
     25       2.00000         -10.065523         -273.89683
     26       2.00000         -10.065426         -273.89418
     27       2.00000         -10.065142         -273.88644
     28       2.00000         -10.065060         -273.88423
     29       2.00000         -10.064980         -273.88204
     30       2.00000         -10.064463         -273.86798
     31       2.00000         -10.064290         -273.86327
     32       2.00000         -10.064279         -273.86295
     33       2.00000         -10.064006         -273.85554
     34       2.00000         -10.063886         -273.85227
     35       2.00000         -10.063855         -273.85142
     36       2.00000         -10.063788         -273.84962
     37       2.00000         -10.063677         -273.84660
     38       2.00000         -10.063655         -273.84598
     39       2.00000         -10.063161         -273.83254
     40       2.00000         -10.063058         -273.82975
     41       2.00000         -10.062998         -273.82810
     42       2.00000         -10.062990         -273.82788
     43       2.00000         -10.062987         -273.82780
     44       2.00000         -10.062819         -273.82324
     45       2.00000         -10.062619         -273.81779
     46       2.00000         -10.062545         -273.81578
     47       2.00000         -10.062438         -273.81288
     48       2.00000         -10.062153         -273.80511
     49       2.00000         -10.062069         -273.80282
     50       2.00000         -10.061828         -273.79628
     51       2.00000         -10.061797         -273.79543
     52       2.00000         -10.061700         -273.79279
     53       2.00000         -10.061561         -273.78900
     54       2.00000         -10.060836         -273.76927
     55       2.00000         -10.060741         -273.76668
     56       2.00000         -10.060672         -273.76481
     57       2.00000         -10.060597         -273.76279
     58       2.00000         -10.060283         -273.75423
     59       2.00000         -10.060015         -273.74693
     60       2.00000         -10.059935         -273.74475
     61       2.00000         -10.059792         -273.74088
     62       2.00000         -10.059790         -273.74080
     63       2.00000         -10.059335         -273.72842
     64       2.00000         -10.059049         -273.72066
     65       2.00000         -10.059038         -273.72036
     66       2.00000         -10.058963         -273.71830
     67       2.00000         -10.058095         -273.69469
     68       2.00000         -10.057959         -273.69099
     69       2.00000         -10.057448         -273.67709
     70       2.00000         -10.056824         -273.66010
     71       2.00000         -10.056725         -273.65742
     72       2.00000         -10.056549         -273.65261
     73       2.00000         -10.056255         -273.64463
[...]
  |    H      2     3.678162 A  1.011968E+04 A            0.556529 a.u.
  |    H      1     3.958095 A  1.721251E+06 A            0.841931 a.u.
  |    H      0     4.527807 A  3.866455E+12 A            0.581436 a.u.
  |    C      0     2.562483 A      2.562483 A        6.563029E-17 a.u.
  |    C      0     2.967371 A      2.967371 A        1.352164E-16 a.u.
  |    C      0     3.003870 A      3.003870 A        2.312640E-17 a.u.
  |    C      1     3.272245 A      3.272245 A       -3.835259E-17 a.u.
  |    C      0     3.312494 A      3.312494 A       -2.710381E-16 a.u.
  |    C      3     4.077671 A      4.077671 A       -1.683752E-15 a.u.
  |    C      3     4.077671 A      4.077671 A        1.412852E-15 a.u.
  |    C      1     4.496620 A      4.496620 A       -3.011059E-16 a.u.
  |    C      0     4.496620 A      4.551928 A        2.873903E-17 a.u.
  |    C      2     4.551928 A      4.551928 A       -4.610785E-16 a.u.
  |    C      2     4.551928 A      4.551928 A        7.440584E-16 a.u.
  |    C      2     4.551928 A      4.551928 A       -7.110458E-16 a.u.
  |    C      2     4.551928 A      4.551928 A       -1.935424E-16 a.u.
  |    C      0     4.551928 A      4.607917 A        2.067142E-16 a.u.
  |    C      0     4.551928 A      4.607917 A       -1.109786E-16 a.u.
  |    C      1     4.551928 A      4.607917 A       -9.951742E-17 a.u.
  |    C      1     4.551928 A      4.607917 A        1.937809E-16 a.u.
  |    C      1     4.607917 A      4.607917 A       -2.813308E-16 a.u.
  |    C      1     4.607917 A      4.607917 A       -7.330363E-17 a.u.
  |    C      2     4.607917 A      4.607917 A        1.318462E-15 a.u.
  |    C      2     4.607917 A      4.607917 A       -1.318397E-15 a.u.
  |    C      0     4.607917 A      4.664595 A        3.157826E-16 a.u.
  |    C      1     4.607917 A      4.664595 A        7.356967E-16 a.u.
  |    C      4     3.835889 A  2.962973E+02 A            4.379483 a.u.
  |    C      3     4.127827 A  1.725964E+03 A            9.005588 a.u.
  |    C      2     4.607917 A  2.608475E+04 A            9.531178 a.u.
  |    C      1     4.607917 A  2.736013E+06 A            2.127278 a.u.
  |    C      0     4.607917 A  4.399765E+12 A            0.661635 a.u.

  | Shrink_full_auxil_basis : there are       36  radial auxiliary wave functions
                            accepted and       7 rejected.
  | Shrink_full_auxil_basis : there are totally                8992 partial auxiliary wave functions.
 
  | Maximal number of product basis functions per thread :   512   512
 
  | Minimal total memory requirement for three-center overlap :      72.476 Gbs
  | Number of local auxiliary basis functions on task:      0   512
  | Number of local auxiliary basis functions on task:      1   512
  | Number of local auxiliary basis functions on task:      2   512
  | Number of local auxiliary basis functions on task:      3   512
  | Number of local auxiliary basis functions on task:      4   496
  | Number of local auxiliary basis functions on task:      5   496
  | Number of local auxiliary basis functions on task:      6   496
  | Number of local auxiliary basis functions on task:      7   496
  | Number of local auxiliary basis functions on task:      8   496
  | Number of local auxiliary basis functions on task:      9   496
  | Number of local auxiliary basis functions on task:     10   496
  | Number of local auxiliary basis functions on task:     11   496
  | Number of local auxiliary basis functions on task:     12   496
  | Number of local auxiliary basis functions on task:     13   496
  | Number of local auxiliary basis functions on task:     14   496
  | Number of local auxiliary basis functions on task:     15   496
  | Number of local auxiliary basis functions on task:     16   496
  | Number of local auxiliary basis functions on task:     17   496
  | 2D aux task distribution:      3 X      6
  | 2D block size (nb_aux_2d):     64
 
  Basis pair condensation :   1037520  -->     542299
 
 --------------------------------------------
  Constructing auxiliary basis (full product) ...
 
  Product basis:
  | charge radius: extent of product basis function
  | field radius: extent of its Coulomb potential
  | Species   l  charge radius    field radius  multipol momen
  |    H      1     3.910002 A      3.910002 A       -2.487223E-16 a.u.
  |    H      1     3.958095 A      3.958095 A       -2.441841E-16 a.u.
  |    H      0     4.527807 A      4.527807 A        1.268855E-16 a.u.
  |    H      0     4.527807 A      4.583499 A       -4.900954E-17 a.u.
  |    H      0     4.527807 A      4.583499 A        4.713786E-16 a.u.
  |    H      2     3.678162 A  1.011968E+04 A            0.556529 a.u.
  |    H      1     3.958095 A  1.721251E+06 A            0.841931 a.u.
  |    H      0     4.527807 A  3.866455E+12 A            0.581436 a.u.
  |    C      0     2.562483 A      2.562483 A        6.563029E-17 a.u.
  |    C      0     2.967371 A      2.967371 A        1.352164E-16 a.u.
  |    C      0     3.003870 A      3.003870 A        2.312640E-17 a.u.
  |    C      1     3.272245 A      3.272245 A       -3.835259E-17 a.u.
  |    C      0     3.312494 A      3.312494 A       -2.710381E-16 a.u.
  |    C      3     4.077671 A      4.077671 A       -1.683752E-15 a.u.
  |    C      3     4.077671 A      4.077671 A        1.412852E-15 a.u.
  |    C      1     4.496620 A      4.496620 A       -3.011059E-16 a.u.
  |    C      0     4.496620 A      4.551928 A        2.873903E-17 a.u.
  |    C      2     4.551928 A      4.551928 A       -4.610785E-16 a.u.
  |    C      2     4.551928 A      4.551928 A        7.440584E-16 a.u.
  |    C      2     4.551928 A      4.551928 A       -7.110458E-16 a.u.
  |    C      2     4.551928 A      4.551928 A       -1.935424E-16 a.u.
  |    C      0     4.551928 A      4.607917 A        2.067142E-16 a.u.
  |    C      0     4.551928 A      4.607917 A       -1.109786E-16 a.u.
  |    C      1     4.551928 A      4.607917 A       -9.951742E-17 a.u.
  |    C      1     4.551928 A      4.607917 A        1.937809E-16 a.u.
  |    C      1     4.607917 A      4.607917 A       -2.813308E-16 a.u.
  |    C      1     4.607917 A      4.607917 A       -7.330363E-17 a.u.
  |    C      2     4.607917 A      4.607917 A        1.318462E-15 a.u.
  |    C      2     4.607917 A      4.607917 A       -1.318397E-15 a.u.
  |    C      0     4.607917 A      4.664595 A        3.157826E-16 a.u.
  |    C      1     4.607917 A      4.664595 A        7.356967E-16 a.u.
  |    C      4     3.835889 A  2.962973E+02 A            4.379483 a.u.
  |    C      3     4.127827 A  1.725964E+03 A            9.005588 a.u.
  |    C      2     4.607917 A  2.608475E+04 A            9.531178 a.u.
  |    C      1     4.607917 A  2.736013E+06 A            2.127278 a.u.
  |    C      0     4.607917 A  4.399765E+12 A            0.661635 a.u.

  | Shrink_full_auxil_basis : there are       36  radial auxiliary wave functions
                            accepted and       7 rejected.
  | Shrink_full_auxil_basis : there are totally                8992 partial auxiliary wave functions.
 
  | Maximal number of product basis functions per thread :   512   512
 
  | Minimal total memory requirement for three-center overlap :      72.476 Gbs
  | Number of local auxiliary basis functions on task:      0   512
  | Number of local auxiliary basis functions on task:      1   512
  | Number of local auxiliary basis functions on task:      2   512
  | Number of local auxiliary basis functions on task:      3   512
  | Number of local auxiliary basis functions on task:      4   496
  | Number of local auxiliary basis functions on task:      5   496
  | Number of local auxiliary basis functions on task:      6   496
  | Number of local auxiliary basis functions on task:      7   496
  | Number of local auxiliary basis functions on task:      8   496
  | Number of local auxiliary basis functions on task:      9   496
  | Number of local auxiliary basis functions on task:     10   496
  | Number of local auxiliary basis functions on task:     11   496
  | Number of local auxiliary basis functions on task:     12   496
  | Number of local auxiliary basis functions on task:     13   496
  | Number of local auxiliary basis functions on task:     14   496
  | Number of local auxiliary basis functions on task:     15   496
  | Number of local auxiliary basis functions on task:     16   496
  | Number of local auxiliary basis functions on task:     17   496
  | 2D aux task distribution:      3 X      6
  | 2D block size (nb_aux_2d):     64
 
  Basis pair condensation :   1037520  -->     542299
  Allocating        0.069 MB for t_coeff
  Allocating        0.034 MB for basbas_idx
  Allocating        0.069 MB for wave
  Allocating        0.069 MB for total_wave
  Allocating        0.206 MB for wave_gradient
  Allocating        0.206 MB for total_wave_grad
 HERE1
 HERE2
  Deallocating        0.069 MB for t_coeff
  Deallocating        0.034 MB for basbas_idx
  Deallocating        0.069 MB for wave
  Deallocating        0.206 MB for wave_gradient
  Deallocating        0.206 MB for total_wave_grad
dP_dE (Bohr^3) at every cycle:--->
 (1015.01506394205,0.000000000000000E+000) (-8.14944183601797,0.000000000000000E+000) (-474.967384324809,0.000000000000000E+000)
 (-8.27918782479660,0.000000000000000E+000) (1367.48731736369,0.000000000000000E+000) (-9.80859748994939,0.000000000000000E+000)
 (-475.109183549872,0.000000000000000E+000) (-9.78351468850670,0.000000000000000E+000) (1673.63925895973,0.000000000000000E+000)
DFPT polarizability (Bohr^3)        xx        yy        zz        xy        xz        yz
  | Polarizability:--->                      1015.015063942                 1367.487317364                 1673.639258960                   -8.149441836                 -474.967384325                   -9.808597490

DFPT for dielectric_constant:--->  # PARSE DFPT_dielectric_tensor
               2.377353791057921            -0.011058618740348            -0.644520609268508
              -0.011234681279583             2.855651120565094            -0.013310057572224
              -0.644713027792279            -0.013276020745693             3.271092774957259

                                               :  max(cpu_time)    wall_clock(cpu1)
  | Time for  dielectric calculation            :        0.000 s           0.000 s
===========================================================================

------------------------------------------------------------------------------
  Final output of selected total energy values:

  The following output summarizes some interesting total energy values
  at the end of a run (AFTER all relaxation, molecular dynamics, etc.).

  | Total energy of the DFT / Hartree-Fock s.c.f. calculation      :         -83267.434080022 eV
  | Final zero-broadening corrected energy (caution - metals only) :         -83267.434080022 eV
  | For reference only, the value of 1 Hartree used in FHI-aims is :             27.211384500 eV
  | For reference only, the overall average (free atom contribution
  | + realspace contribution) of the electrostatic potential after
  | s.c.f. convergence is                                          :             -7.707734396 eV

  Before relying on these values, please be sure to understand exactly which
  total energy value is referred to by a given number. Different objects may
  all carry the same name 'total energy'. Definitions:

  Total energy of the DFT / Hartree-Fock s.c.f. calculation:
  | Note that this energy does not include ANY quantities calculated after the
  | s.c.f. cycle, in particular not ANY RPA, MP2, etc. many-body perturbation terms.

  Final zero-broadening corrected energy:
  | For metallic systems only, a broadening of the occupation numbers at the Fermi
  | level can be extrapolated back to zero broadening by an electron-gas inspired
  | formula. For all systems that are not real metals, this value can be
  | meaningless and should be avoided.

------------------------------------------------------------------------------
  Methods described in the following list of references were used in this FHI-aims run.
  If you publish the results, please make sure to cite these reference if they apply.
  FHI-aims is an academic code, and for our developers (often, Ph.D. students
  and postdocs), scientific credit in the community is essential.
  Thank you for helping us!

  For any use of FHI-aims, please cite:

    Volker Blum, Ralf Gehrke, Felix Hanke, Paula Havu, Ville Havu,
    Xinguo Ren, Karsten Reuter, and Matthias Scheffler
    'Ab initio molecular simulations with numeric atom-centered orbitals'
    Computer Physics Communications 180, 2175-2196 (2009)
    http://doi.org/10.1016/j.cpc.2009.06.022


  For Hartree-Fock, hybrid functionals, or many-body perturbation theory used in your run, please cite:

    Xinguo Ren, Patrick Rinke, Volker Blum, Juergen Wieferink, Alex Tkatchenko,
    Andrea Sanfilippo, Karsten Reuter, and Matthias Scheffler,
    'Resolution-of-identity approach to Hartree-Fock, hybrid density functionals,
    RPA, MP2, and GW with numeric atom-centered orbital basis functions'
    New Journal of Physics 14, 053020 (2012).
    http://doi.org/10.1088/1367-2630/14/5/053020


  The provided symmetry information was generated with SPGlib:

    Atsushi Togo, Yusuke Seto, Dimitar Pashov
    SPGlib 1.7.3 obtained from http://spglib.sourceforge.net
    Copyright (C) 2008 Atsushi Togo


  The DFPT (perturbation by an electric field) part of the code was used.
  Here is the corresponding reference:

    Honghui Shang, Nathaniel Raimbault, Mariana Rossi,
    Christian Carbogno, Patrick Rinke and Matthias Scheffler,
    'All-Electron, Real-Space Perturbation Theory for Homogeneous
    Electric Fields: Theory, Implementation, and Application within dft'
    New Journal of Physics, 20(7):073040, 2018


  The ELSI infrastructure was used in your run to solve the Kohn-Sham electronic structure.
  Please check out http://elsi-interchange.org to learn more.
  If scalability is important for your project, please acknowledge ELSI by citing:

    V. W-z. Yu, F. Corsetti, A. Garcia, W. P. Huhn, M. Jacquelin, W. Jia,
    B. Lange, L. Lin, J. Lu, W. Mi, A. Seifitokaldani, A. Vazquez-Mayagoitia,
    C. Yang, H. Yang, and V. Blum
    'ELSI: A unified software interface for Kohn-Sham electronic structure solvers'
    Computer Physics Communications 222, 267-285 (2018).
    http://doi.org/10.1016/j.cpc.2017.09.007


  For the real-space grid partitioning and parallelization used in this calculation, please cite:

    Ville Havu, Volker Blum, Paula Havu, and Matthias Scheffler,
    'Efficient O(N) integration for all-electron electronic structure calculation'
    'using numerically tabulated basis functions'
    Journal of Computational Physics 228, 8367-8379 (2009).
    http://doi.org/10.1016/j.jcp.2009.08.008


  The high-level electronic structure method used in your calculation
  employed our efficient localized resolution of identity for the Coulomb operator.
  Some calculations, especially large-scale hybrid density functional theory,
  are only possible thanks to this development. For this feature, please cite:

    Arvid Ihrig, Juergen Wieferink, Igor Ying Zhang, Matti Ropo, Xinguo Ren,
    Patrick Rinke, Matthias Scheffler, and Volker Blum,
    'Accurate localized resolution of identity approach for linear-scaling
    hybrid density functionals and for many-body perturbation theory'
    New Journal of Physics 117, 093020 (2015).
    http://doi.org/10.1088/1367-2630/17/9/093020

  Of course, there are many other important community references, e.g., those cited in the
  above references. Our list is limited to references that describe implementations in the
  FHI-aims code. The reason is purely practical (length of this list) - please credit others as well.

------------------------------------------------------------
          Leaving FHI-aims.
          Date     :  20230119, Time     :  201317.024

          Computational steps:
          | Number of self-consistency cycles          :           46
          | Number of SCF (re)initializations          :            1
          | Number of coupled perturbed self-consistency cycles          :            0
          | Number of CPSCF (re)initializations          :            0

          Detailed time accounting                     :  max(cpu_time)    wall_clock(cpu1)
          | Total time                                  :     1537.563 s        1547.224 s
          | GPU initialization                          :        1.827 s          10.682 s
          | Preparation time                            :        0.072 s           0.070 s
          | Boundary condition initalization            :        0.966 s           0.966 s
          | Grid partitioning                           :        1.286 s           1.286 s
          | Preloading free-atom quantities on grid     :        4.154 s           4.155 s
          | Free-atom superposition energy              :        0.638 s           0.638 s
          | Total time for integrations                 :       17.942 s          18.038 s
          | Product basis setup: Total time             :        0.000 s           0.000 s
          | Product basis: | 2-center integrations     :(       0.000 s)  (       0.000 s)
          | Product basis: | LVL 3-center & coefficient:(       0.000 s)  (       0.000 s)
          | Total time for solution of K.-S. equations  :        3.472 s           3.474 s
          | Total time for density update               :       13.746 s          13.895 s
          | Total time for mixing & preconditioning     :       11.691 s          11.693 s
          | Total time for Hartree multipole update     :        0.088 s           0.089 s
          | Total time for Hartree multipole sum        :       43.399 s          43.411 s
          | Total time for total energy evaluation      :        0.006 s           0.003 s
          | Total time first_order_DM                   :        1.868 s           1.867 s
          | Total time first_order_density              :      300.655 s         300.681 s
          | Total time first_order_potential            :      120.506 s         120.544 s
          | Total time first_order_H                    :      582.215 s         582.384 s
          | Total time solving of Sternheimer equations :        1.817 s           1.815 s
          | Total time for dielectric constant          :        0.000 s           0.000 s
          | Total time momentum matrix                  :        0.000 s           0.000 s

          GPU acceleration has been used for charge density update.
          GPU acceleration has been used for real-space Hamiltonian integration.
          Due to GPU usage, wall_clock(cpu1) will give a more reliable estimate for timings.

          Partial memory accounting:
          | Residual value for overall tracked memory usage across tasks:     1.234863 MB (should be 0.000000 MB)
          |
          | Largest tracked array allocation:
          |   Minimum:      103.099 MB (DFPT_pulay_mixing::initialize_pulay_mixing::X_in_diffs on task  0)
          |   Maximum:      103.099 MB (DFPT_pulay_mixing::initialize_pulay_mixing::X_in_diffs on task  0)
          |   Average:      103.099 MB
          |
          | Because the residual tracked memory usage was not zero, the peak value for overall
          | tracked memory usage was not output, as it is probably incorrect.  This is likely due
          | to a missing aims_deallocate statement in the source code, which should be otherwise
          | harmless.
          |
          Note:  These values currently only include a subset of arrays which are explicitly tracked.
          The "true" memory usage will be greater.

          Have a nice day.
------------------------------------------------------------
