------------------------------------------------------------
          Invoking FHI-aims ...

          When using FHI-aims, please cite the following reference:

            Volker Blum, Ralf Gehrke, Felix Hanke, Paula Havu,
            Ville Havu, Xinguo Ren, Karsten Reuter, and Matthias Scheffler,
            'Ab Initio Molecular Simulations with Numeric Atom-Centered Orbitals',
            Computer Physics Communications 180, 2175-2196 (2009)

          In addition, many other developments in FHI-aims are likely important for
          your particular application. A partial list of references is given at the end of
          this file. Thank you for giving credit to the authors of these developments.

          For any questions about FHI-aims, please visit our slack channel at

            https://fhi-aims.slack.com

          and our main development and support site at

            https://aims-git.rz-berlin.mpg.de .

          The latter site, in particular, has a wiki to collect information, as well
          as an issue tracker to log discussions, suggest improvements, and report issues
          or bugs. https://aims-git.rz-berlin.mpg.de is also the main development site
          of the project and all new and updated code versions can be obtained there.
          Please send an email to aims-coordinators@fhi-berlin.mpg.de and we will add
          you to these sites. They are for you and everyone is welcome there.

------------------------------------------------------------



  Date     :  20230119, Time     :  205319.788
  Time zero on CPU 1             :   0.390118000000000E+00  s.
  Internal wall clock time zero  :           443393599.788  s.

  FHI-aims created a unique identifier for this run for later identification
  aims_uuid : 142B4347-51E1-448D-A527-0C68B4D15ECF

  Build configuration of the current instance of FHI-aims
  -------------------------------------------------------
  FHI-aims version      : 220829
  Commit number         : 9895fc21d
  CMake host system     : Linux-5.3.18-150300.59.68-default
  CMake version         : 3.17.0
  Fortran compiler      : /mpcdf/soft/SLE_15/packages/x86_64/intel_oneapi/2021.3/mpi/2021.3.0/bin/mpiifort (Intel) version 20.2.3.20210609
  Fortran compiler flags: -O3 -ip -fp-model precise
  C compiler            : /mpcdf/soft/SLE_15/packages/x86_64/intel/2021.3.0/bin/icc (Intel) version 20.2.3.20210609
  C compiler flags      : -O3 -ip -fp-model precise -std=gnu99
  CUDA compiler         : /mpcdf/soft/SLE_15/packages/x86_64/cuda/11.6.2/bin/nvcc
  CUDA compiler flags   : -O3 -DAdd_ -lcublas
  ELPA2 kernel          : AVX512
  Using MPI
  Using ScaLAPACK
  Using LibXC
  Using CUDA
  Using i-PI
  Using RLSY
  Linking against: /mpcdf/soft/SLE_15/packages/x86_64/cuda/11.6.2/lib64/libcublas.so
                   /mpcdf/soft/SLE_15/packages/x86_64/cuda/11.6.2/lib64/libcudart.so
                   /mpcdf/soft/SLE_15/packages/x86_64/intel_oneapi/2021.3/mkl/latest/lib/intel64/libmkl_intel_lp64.so
                   /mpcdf/soft/SLE_15/packages/x86_64/intel_oneapi/2021.3/mkl/latest/lib/intel64/libmkl_sequential.so
                   /mpcdf/soft/SLE_15/packages/x86_64/intel_oneapi/2021.3/mkl/latest/lib/intel64/libmkl_core.so
                   /mpcdf/soft/SLE_15/packages/x86_64/intel_oneapi/2021.3/mkl/latest/lib/intel64/libmkl_blacs_intelmpi_lp64.so
                   /mpcdf/soft/SLE_15/packages/x86_64/intel_oneapi/2021.3/mkl/latest/lib/intel64/libmkl_scalapack_lp64.so

  Using       18 parallel tasks.
  Task        0 on host adag015 reporting.
  Task        1 on host adag015 reporting.
  Task        2 on host adag015 reporting.
  Task        3 on host adag015 reporting.
  Task        4 on host adag015 reporting.
  Task        5 on host adag015 reporting.
  Task        6 on host adag015 reporting.
  Task        7 on host adag015 reporting.
  Task        8 on host adag015 reporting.
  Task        9 on host adag015 reporting.
  Task       10 on host adag015 reporting.
  Task       11 on host adag015 reporting.
  Task       12 on host adag015 reporting.
  Task       13 on host adag015 reporting.
  Task       14 on host adag015 reporting.
  Task       15 on host adag015 reporting.
  Task       16 on host adag015 reporting.
  Task       17 on host adag015 reporting.

  Performing system and environment tests:
  | Environment variable OMP_NUM_THREADS correctly set to 1.
  | Checking for ScaLAPACK...
  | Testing pdtran()...
  | All pdtran() tests passed.

  Obtaining array dimensions for all initial allocations:
  
  -----------------------------------------------------------------------
  Parsing control.in (first pass over file, find array dimensions only).
  The contents of control.in will be repeated verbatim below
  unless switched off by setting 'verbatim_writeout .false.' .
  in the first line of control.in .
  -----------------------------------------------------------------------
  
  #
  # Input for polarizability replays on generic oligoacene molecular crystals (light settings,  LDA+MBD).
  #
  #########################################################################################
  #
  #  Physical model
  #
    xc                 pw-lda
    spin               none
    relativistic       none
    charge             0.0
    k_grid 	     2 1 1
    DFPT dielectric
  #
  #  GPU acceleration
  #
  # Turns on GPU acceleration everywhere
    use_gpu
  
  # Turns OFF GPU acceleration of ELPA - may be necessary if GPU ELPA is slow
    elsi_elpa_gpu 0
  #
  #  Relaxation
  #
  #  relax_geometry trm 1E-3
  #  relax_unit_cell fixed_angles
  #
  #  SCF convergence        #
    charge_mix_param   0.75
    #sc_accuracy_rho 1E-4
  #
  # i-PI communication
  #
  compute_forces .false.
  # use_pimd_wrapper 130.183.223.27 26118
  #communicate_pimd_wrapper polarizability
  #output_level MD_light
  #
  # Output SALTED info
    ri_density_restart write
    ri_rho1 write
    ri_full_output .true.
  #  sc_accuracy_rho    1d-6
    default_prodbas_acc 1e-6
    default_max_l_prodbas 6
  #
  #
  ################################################################################
  #
  #  FHI-aims code project
  #  VB, Fritz-Haber Institut, 2009
  #
  #  Suggested "light" defaults for H atom (to be pasted into control.in file)
  #  Be sure to double-check any results obtained with these settings for post-processing,
  #  e.g., with the "tight" defaults and larger basis sets.
  #
  ################################################################################
    species        H
  #     global species definitions
      nucleus             1
      mass                1.00794
  #
      l_hartree           4
  #
      cut_pot             3.5  1.5  1.0
      basis_dep_cutoff    1e-4
  #
      radial_base         24 5.0
      radial_multiplier   1
      angular_grids       specified
        division   0.2421   50
        division   0.3822  110
        division   0.4799  194
        division   0.5341  302
  #      division   0.5626  434
  #      division   0.5922  590
  #      division   0.6542  770
  #      division   0.6868 1202
  #      outer_grid  770
        outer_grid  302
  ################################################################################
  #
  #  Definition of "minimal" basis
  #
  ################################################################################
  #     valence basis states
      valence      1  s   1.
  #     ion occupancy
      ion_occ      1  s   0.5
  ################################################################################
  #
  #  Suggested additional basis functions. For production calculations,
  #  uncomment them one after another (the most important basis functions are
  #  listed first).
  #
  #  Basis constructed for dimers: 0.5 A, 0.7 A, 1.0 A, 1.5 A, 2.5 A
  #
  ################################################################################
  #  "First tier" - improvements: -1014.90 meV to -62.69 meV
       hydro 2 s 2.1
       hydro 2 p 3.5
  #  "Second tier" - improvements: -12.89 meV to -1.83 meV
  #     hydro 1 s 0.85
  #     hydro 2 p 3.7
  #     hydro 2 s 1.2
  #     hydro 3 d 7
  #  "Third tier" - improvements: -0.25 meV to -0.12 meV
  #     hydro 4 f 11.2
  #     hydro 3 p 4.8
  #     hydro 4 d 9
  #     hydro 3 s 3.2
  ################################################################################
  ################################################################################
  #
  #  FHI-aims code project
  #  VB, Fritz-Haber Institut, 2009
  #
  #  Suggested "light" defaults for C atom (to be pasted into control.in file)
  #  Be sure to double-check any results obtained with these settings for post-processing,
  #  e.g., with the "tight" defaults and larger basis sets.
  #
  ################################################################################
    species        C
  #     global species definitions
      nucleus             6
      mass                12.0107
  #
      l_hartree           4
  #
      cut_pot             3.5  1.5  1.0
      basis_dep_cutoff    1e-4
  #
      radial_base         34 5.0
      radial_multiplier   1
      angular_grids specified
        division   0.3326   50
        division   0.5710  110
        division   0.7727  194
        division   0.8772  302
  #      division   0.9334  434
  #      division   0.9625  590
  #      division   0.9924  770
  #      division   1.0230  974
  #      division   1.4589 1202
  #     outer_grid  974
       outer_grid 302
  ################################################################################
  #
  #  Definition of "minimal" basis
  #
  ################################################################################
  #     valence basis states
      valence      2  s   2.
      valence      2  p   2.
  #     ion occupancy
      ion_occ      2  s   1.
      ion_occ      2  p   1.
  ################################################################################
  #
  #  Suggested additional basis functions. For production calculations,
  #  uncomment them one after another (the most important basis functions are
  #  listed first).
  #
  #  Constructed for dimers: 1.0 A, 1.25 A, 1.5 A, 2.0 A, 3.0 A
  #
  ################################################################################
  #  "First tier" - improvements: -1214.57 meV to -155.61 meV
       hydro 2 p 1.7
       hydro 3 d 6
       hydro 2 s 4.9
  #  "Second tier" - improvements: -67.75 meV to -5.23 meV
  #     hydro 4 f 9.8
  #     hydro 3 p 5.2
  #     hydro 3 s 4.3
  #     hydro 5 g 14.4
  #     hydro 3 d 6.2
  #  "Third tier" - improvements: -2.43 meV to -0.60 meV
  #     hydro 2 p 5.6
  #     hydro 2 s 1.4
  #     hydro 3 d 4.9
  #     hydro 4 f 11.2
  #  "Fourth tier" - improvements: -0.39 meV to -0.18 meV
  #     hydro 2 p 2.1
  #     hydro 5 g 16.4
  #     hydro 4 d 13.2
  #     hydro 3 s 13.6
  #     hydro 4 f 17.6
  #  Further basis functions - improvements: -0.08 meV and below
  #     hydro 3 s 2
  #     hydro 3 p 6
  #     hydro 4 d 20
  
  -----------------------------------------------------------------------
  Completed first pass over input file control.in .
  -----------------------------------------------------------------------
  
  
  -----------------------------------------------------------------------
  Parsing geometry.in (first pass over file, find array dimensions only).
  The contents of geometry.in will be repeated verbatim below
  unless switched off by setting 'verbatim_writeout .false.' .
  in the first line of geometry.in .
  -----------------------------------------------------------------------
  
  #=======================================================
  # FHI-aims file: /ada/ptmp/mpsd/alewis/naphthalene/qmdata/data/geoms/136.in
  # Created using the Atomic Simulation Environment (ASE)
  # Thu Jan 19 15:19:17 2023
  #=======================================================
  lattice_vector 8.1020000000000003 0.0000000000000000 0.0000000000000000
  lattice_vector 0.0000000000000000 11.8800000000000008 0.0000000000000000
  lattice_vector -9.7850918486534706 0.0000000000000000 14.2571119625755713
  atom -0.5427210000000000 0.0984493000000000 2.5196200000000002 C
  atom 0.3258980000000000 3.2165800000000000 4.8601500000000000 C
  atom 4.0994799999999998 5.7170500000000004 4.8492300000000004 C
  atom 3.3208799999999998 2.8488400000000000 2.4250699999999998 C
  atom 0.1750200000000000 0.9261130000000000 1.6750200000000000 C
  atom -0.3926150000000000 4.0443499999999997 5.6760299999999999 C
  atom 3.3642099999999999 4.8649100000000001 5.6629500000000004 C
  atom 4.0834799999999998 1.9746100000000000 1.6923600000000001 C
  atom 0.4128140000000000 0.5705220000000000 0.3172680000000000 C
  atom -0.8731350000000000 3.6165900000000000 6.9304600000000001 C
  atom 3.0271800000000000 5.2436400000000001 6.9939499999999999 C
  atom 4.4780199999999999 2.2948400000000002 0.3933250000000000 C
  atom -3.9253100000000001 1.5293300000000001 6.7356999999999996 C
  atom 3.1740200000000001 4.3794899999999997 0.5818330000000000 C
  atom 7.2953599999999996 4.5088200000000001 0.6059740000000000 C
  atom 0.2626860000000000 1.4515600000000000 6.5760199999999998 C
  atom -3.4173200000000001 1.2107600000000001 5.5087099999999998 C
  atom 2.7940299999999998 4.0217200000000002 1.8539600000000001 C
  atom 6.9087199999999998 4.9332399999999996 1.8675100000000000 C
  atom 0.6675170000000000 1.8995599999999999 5.3197099999999997 C
  atom -0.7451320000000000 0.4062910000000000 3.5147499999999998 H
  atom 0.7048510000000000 3.5243600000000002 3.8588000000000000 H
  atom 4.3842800000000004 5.3448399999999996 3.8380700000000001 H
  atom 3.0732900000000001 2.5934699999999999 3.4323500000000000 H
  atom 0.6153450000000000 1.8896200000000001 1.9990100000000000 H
  atom -0.6750910000000000 5.0860700000000003 5.3800499999999998 H
  atom 2.9478200000000001 3.9240900000000001 5.2573699999999999 H
  atom 4.4477500000000001 1.0719099999999999 2.1683800000000000 H
  atom -3.6866599999999998 2.4736199999999999 7.2217900000000004 H
  atom 2.8765800000000001 5.3231299999999999 0.1113630000000000 H
  atom 6.9874900000000002 3.4859499999999999 0.2583540000000000 H
  atom 0.5158450000000000 0.4341830000000000 6.9328399999999997 H
  atom -2.8091400000000002 1.9112600000000000 4.9928100000000004 H
  atom 2.1283599999999998 4.6453600000000002 2.4479099999999998 H
  atom 6.1901299999999999 4.2947600000000001 2.4163700000000001 H
  atom 1.2328100000000000 1.2165900000000001 4.6736800000000001 H
  atom -6.0792200000000003 -0.0283020000000000 9.4022299999999994 C
  atom -4.6029400000000003 2.9692400000000001 12.0242000000000004 C
  atom -0.6129310000000000 5.9337299999999997 11.9457000000000004 C
  atom -1.6984800000000000 2.8055400000000001 9.5023599999999995 C
  atom -5.2576299999999998 0.8930340000000000 8.7874099999999995 C
  atom -5.4150400000000003 3.8312400000000002 12.7596000000000007 C
  atom -1.3925799999999999 5.0640299999999998 12.6743000000000006 C
  atom -0.8715730000000000 1.9847100000000000 8.7311599999999991 C
  atom -4.7452399999999999 0.6149550000000000 7.4630299999999998 C
  atom -5.7572000000000001 3.5402300000000002 14.0965000000000007 C
  atom -1.7362599999999999 5.3672899999999997 14.0244000000000000 C
  atom -0.4948060000000000 2.3230200000000001 7.4150600000000004 C
  atom -8.6773799999999994 1.4246399999999999 13.6470000000000002 C
  atom -1.6805800000000000 4.4249000000000001 7.7415200000000004 C
  atom 2.2283700000000000 4.4309099999999999 7.8145100000000003 C
  atom -4.5109899999999996 1.4338200000000001 13.8986999999999998 C
  atom -8.5105900000000005 1.0417900000000000 12.3152000000000008 C
  atom -2.1024600000000002 4.0260499999999997 8.9999199999999995 C
  atom 1.9004799999999999 4.8825000000000003 9.1006699999999991 C
  atom -4.1816399999999998 1.7446600000000001 12.5873000000000008 C
  atom -6.4510500000000004 0.2510530000000000 10.4170999999999996 H
  atom -4.3628999999999998 3.2634500000000002 10.9819999999999993 H
  atom -0.2241230000000000 5.6352099999999998 10.9518000000000004 H
  atom -2.0287899999999999 2.5127999999999999 10.5021000000000004 H
  atom -4.9783499999999998 1.7750200000000000 9.3518600000000003 H
  atom -5.7034799999999999 4.7877599999999996 12.3428000000000004 H
  atom -1.6960400000000000 4.1166299999999998 12.2100000000000009 H
  atom -0.5343250000000000 1.0295799999999999 9.1784300000000005 H
  atom -8.2524700000000006 2.3574299999999999 13.9892000000000003 H
  atom -2.0131800000000002 5.3800299999999996 7.3317699999999997 H
  atom 1.8652000000000000 3.4542799999999998 7.5042499999999999 H
  atom -4.1259199999999998 0.5251870000000000 14.3877000000000006 H
  atom -7.9862099999999998 1.6668300000000000 11.6043000000000003 H
  atom -2.7382900000000001 4.7015900000000004 9.5900400000000001 H
  atom 1.3206400000000000 4.2135499999999997 9.7383900000000008 H
  atom -3.5930100000000000 1.0198400000000001 12.0383999999999993 H
  atom -0.7769100000000000 6.1873699999999996 2.4211800000000001 C
  atom 0.1943100000000000 9.0566399999999998 4.8263199999999999 C
  atom 4.3232699999999999 11.8512000000000004 4.9160500000000003 C
  atom 3.4602700000000000 8.9234799999999996 2.4284699999999999 C
  atom 0.0167725000000000 7.0092999999999996 1.6624399999999999 C
  atom -0.6531850000000000 9.8877400000000009 5.5585199999999997 C
  atom 3.5532499999999998 10.9312000000000005 5.5877800000000004 C
  atom 4.0622800000000003 7.9875800000000003 1.6175100000000000 C
  atom 0.3633370000000000 6.6366899999999998 0.3257200000000000 C
  atom -1.0260800000000001 9.5188100000000002 6.8865200000000000 C
  atom 3.0142699999999998 11.2243999999999993 6.8716200000000001 C
  atom 4.3866699999999996 8.3443199999999997 0.2684070000000000 C
  atom -3.9440100000000000 7.4170299999999996 6.6043300000000000 C
  atom 3.2357200000000002 10.5273000000000003 0.6078430000000000 C
  atom 7.2332999999999998 10.3847000000000005 0.6790940000000000 C
  atom 0.2600600000000000 7.4462099999999998 6.6640499999999996 C
  atom -3.5744699999999998 6.9889200000000002 5.3395700000000001 C
  atom 2.9992500000000000 10.1500000000000004 1.9239500000000000 C
  atom 7.0799099999999999 10.7568000000000001 2.0034200000000002 C
  atom 0.6423900000000000 7.8486300000000000 5.3945499999999997 C
  atom -1.1542699999999999 6.4979899999999997 3.3762400000000001 H
  atom 0.4909720000000000 9.2777799999999999 3.7897799999999999 H
  atom 4.8201799999999997 11.5870999999999995 3.9655499999999999 H
  atom 3.1743199999999998 8.6841299999999997 3.4659300000000002 H
  atom 0.3665000000000000 7.9883899999999999 2.0347100000000000 H
  atom -1.0554399999999999 10.8315999999999999 5.1955600000000004 H
  atom 3.4102399999999999 9.9467599999999994 5.1380999999999997 H
  atom 4.3760899999999996 7.0451199999999998 2.0535399999999999 H
  atom -3.7094399999999998 8.4316200000000006 6.9226599999999996 H
  atom 2.9874299999999998 11.5343999999999998 0.2753920000000000 H
  atom 6.8668800000000001 9.4380500000000005 0.2947270000000000 H
  atom 0.5028790000000000 6.4614599999999998 7.0234300000000003 H
  atom -2.9158900000000001 7.6846800000000002 4.7851499999999998 H
  atom 2.5213800000000002 10.8742000000000001 2.5455000000000001 H
  atom 6.5685500000000001 10.0300999999999991 2.6486900000000002 H
  atom 1.2624700000000000 7.2187500000000000 4.7433199999999998 H
  atom -5.7428600000000003 6.1335199999999999 9.5787300000000002 C
  atom -4.7621599999999997 9.0236999999999998 11.9056999999999995 C
  atom -0.9278960000000001 11.6684000000000001 11.8455999999999992 C
  atom -1.8261400000000001 8.7720800000000008 9.4779800000000005 C
  atom -4.9760000000000000 6.9413200000000002 8.7832100000000004 C
  atom -5.5231700000000004 9.8926700000000007 12.6651000000000007 C
  atom -1.6542600000000001 10.8473000000000006 12.6951000000000001 C
  atom -0.9830179999999999 7.9182100000000002 8.7443399999999993 C
  atom -4.6453499999999996 6.5187099999999996 7.4720399999999998 C
  atom -5.8649600000000000 9.5999400000000001 14.0289999999999999 C
  atom -1.7901800000000001 11.2416000000000000 14.0525000000000002 C
  atom -0.5652870000000000 8.2871500000000005 7.4463600000000003 C
  atom -8.6722400000000004 7.5413100000000002 13.7568000000000001 C
  atom -1.8667600000000000 10.3612000000000002 7.6940999999999997 C
  atom 2.2242500000000001 10.2693999999999992 7.5765300000000000 C
  atom -4.6481599999999998 7.4524800000000004 13.7212999999999994 C
  atom -8.3348399999999998 7.1987800000000002 12.4654000000000007 C
  atom -2.2291099999999999 10.0276999999999994 8.9756900000000002 C
  atom 1.7311099999999999 10.6210000000000004 8.8477599999999992 C
  atom -4.3053400000000002 7.8038400000000001 12.4290000000000003 C
  atom -6.0774200000000000 6.4498400000000000 10.5840999999999994 H
  atom -4.5549999999999997 9.2691199999999991 10.8632000000000009 H
  atom -0.7627429999999999 11.4080999999999992 10.8047000000000004 H
  atom -2.1414599999999999 8.4361800000000002 10.4702000000000002 H
  atom -4.6811600000000002 7.9459299999999997 9.1587599999999991 H
  atom -5.8514200000000001 10.8507999999999996 12.2166999999999994 H
  atom -2.1307499999999999 9.9083500000000004 12.3389000000000006 H
  atom -0.6217170000000000 6.9936600000000002 9.1971900000000009 H
  atom -8.3169599999999999 8.4916599999999995 14.1797000000000004 H
  atom -2.2241599999999999 11.3231000000000002 7.2966600000000001 H
  atom 1.9693900000000000 9.3180300000000003 7.1344500000000002 H
  atom -4.3919300000000003 6.4679399999999996 14.0839999999999996 H
  atom -7.7499200000000004 7.8997400000000004 11.8720999999999997 H
  atom -2.8714400000000002 10.6184999999999992 9.5955800000000000 H
  atom 1.0700700000000001 9.9398599999999995 9.3886599999999998 H
  atom -3.7264100000000000 7.0853299999999999 11.8419000000000008 H
  
  -----------------------------------------------------------------------
  Completed first pass over input file geometry.in .
  -----------------------------------------------------------------------
  

  Basic array size parameters:
  | Number of species                 :        2
  | Number of atoms                   :      144
  | Number of lattice vectors         :        3
  | Max. basis fn. angular momentum   :        2
  | Max. atomic/ionic basis occupied n:        2
  | Max. number of basis fn. types    :        2
  | Max. radial fns per species/type  :        3
  | Max. logarithmic grid size        :     1277
  | Max. radial integration grid size :       34
  | Max. angular integration grid size:      302
  | Max. angular grid division number :        8
  | Radial grid for Hartree potential :     1277
  | Number of spin channels           :        1

------------------------------------------------------------
          Reading file control.in.
------------------------------------------------------------
  XC: Using Perdew-Wang parametrisation of Ceperley-Alder LDA.
  Spin treatment: No spin polarisation.
  Non-relativistic treatment of kinetic energy.
  Charge =   0.000000E+00: Neutral system requested explicitly.
  Found k-point grid:         2         1         1
  DFPT calculation will begin after the DFT/HF calculation.
  Charge density mixing - mixing parameter:     0.7500
  Forces will not be computed.
 
  Reading configuration options for species H                   .
  | Found nuclear charge :   1.0000
  | Found atomic mass :    1.00794000000000      amu
  | Found l_max for Hartree potential  :   4
  | Found cutoff potl. onset [A], width [A], scale factor :    3.50000    1.50000    1.00000
  | Threshold for basis-dependent cutoff potential is   0.100000E-03
  | Found data for basic radial integration grid :    24 points, outermost radius =    5.000 A
  | Found multiplier for basic radial grid :   1
  | Found angular grid specification: user-specified.
  | Specified grid contains     5 separate shells.
  | Check grid settings after all constraints further below.
  | Found free-atom valence shell :  1 s   1.000
  | No ionic wave fns used. Skipping ion_occ.
  | Found hydrogenic basis function :  2 s   2.100
  | Found hydrogenic basis function :  2 p   3.500
  Species H                   : Missing cutoff potential type.
  Defaulting to exp(1/x)/(1-x)^2 type cutoff potential.
  Species H : No 'logarithmic' tag. Using default grid for free atom:
  | Default logarithmic grid data [bohr] : 0.1000E-03 0.1000E+03 0.1012E+01
  Species H : On-site basis accuracy parameter (for Gram-Schmidt orthonormalisation) not specified.
  Using default value basis_acc =  0.1000000E-03.
  Species H                   : Using default innermost maximum threshold i_radial=  2 for radial functions.
  Species H                   : Default cutoff onset for free atom density etc. : 0.35000000E+01 AA.
  Species H                   : Basic radial grid will be enhanced according to radial_multiplier =   1, to contain    24 grid points.
 
  Reading configuration options for species C                   .
  | Found nuclear charge :   6.0000
  | Found atomic mass :    12.0107000000000      amu
  | Found l_max for Hartree potential  :   4
  | Found cutoff potl. onset [A], width [A], scale factor :    3.50000    1.50000    1.00000
  | Threshold for basis-dependent cutoff potential is   0.100000E-03
  | Found data for basic radial integration grid :    34 points, outermost radius =    5.000 A
  | Found multiplier for basic radial grid :   1
  | Found angular grid specification: user-specified.
  | Specified grid contains     5 separate shells.
  | Check grid settings after all constraints further below.
  | Found free-atom valence shell :  2 s   2.000
  | Found free-atom valence shell :  2 p   2.000
  | No ionic wave fns used. Skipping ion_occ.
  | No ionic wave fns used. Skipping ion_occ.
  | Found hydrogenic basis function :  2 p   1.700
  | Found hydrogenic basis function :  3 d   6.000
  | Found hydrogenic basis function :  2 s   4.900
  Species C                   : Missing cutoff potential type.
  Defaulting to exp(1/x)/(1-x)^2 type cutoff potential.
  Species C : No 'logarithmic' tag. Using default grid for free atom:
  | Default logarithmic grid data [bohr] : 0.1000E-03 0.1000E+03 0.1012E+01
  Species C : On-site basis accuracy parameter (for Gram-Schmidt orthonormalisation) not specified.
  Using default value basis_acc =  0.1000000E-03.
  Species C                   : Using default innermost maximum threshold i_radial=  2 for radial functions.
  Species C                   : Default cutoff onset for free atom density etc. : 0.35000000E+01 AA.
  Species C                   : Basic radial grid will be enhanced according to radial_multiplier =   1, to contain    34 grid points.
 
  Finished reading input file 'control.in'.
 
------------------------------------------------------------


------------------------------------------------------------
          Reading geometry description geometry.in.
------------------------------------------------------------
  | The smallest distance between any two atoms is         1.06114110 AA.
  | The first atom of this pair is atom number                      1 .
  | The second atom of this pair is atom number                    21 .
  | Wigner-Seitz cell of the first atom image           0     0     0 .
  | (The Wigner-Seitz cell of the second atom is 0 0 0  by definition.)

  Symmetry information by spglib:
  | Precision set to  0.1E-04
  | Number of Operations  : 1
  | Space group           : 1
  | International         : P1 7
  | Schoenflies           : C1^1
  Input structure read successfully.
  The structure contains      144 atoms,  and a total of        544.000 electrons.

  Input geometry:
  | Unit cell:
  |        8.10200000        0.00000000        0.00000000
  |        0.00000000       11.88000000        0.00000000
  |       -9.78509185        0.00000000       14.25711196
  | Atomic structure:
  |       Atom                x [A]            y [A]            z [A]
  |    1: Species C            -0.54272100        0.09844930        2.51962000
  |    2: Species C             0.32589800        3.21658000        4.86015000
  |    3: Species C             4.09948000        5.71705000        4.84923000
  |    4: Species C             3.32088000        2.84884000        2.42507000
  |    5: Species C             0.17502000        0.92611300        1.67502000
  |    6: Species C            -0.39261500        4.04435000        5.67603000
  |    7: Species C             3.36421000        4.86491000        5.66295000
  |    8: Species C             4.08348000        1.97461000        1.69236000
  |    9: Species C             0.41281400        0.57052200        0.31726800
  |   10: Species C            -0.87313500        3.61659000        6.93046000
  |   11: Species C             3.02718000        5.24364000        6.99395000
  |   12: Species C             4.47802000        2.29484000        0.39332500
  |   13: Species C            -3.92531000        1.52933000        6.73570000
  |   14: Species C             3.17402000        4.37949000        0.58183300
  |   15: Species C             7.29536000        4.50882000        0.60597400
  |   16: Species C             0.26268600        1.45156000        6.57602000
  |   17: Species C            -3.41732000        1.21076000        5.50871000
  |   18: Species C             2.79403000        4.02172000        1.85396000
  |   19: Species C             6.90872000        4.93324000        1.86751000
  |   20: Species C             0.66751700        1.89956000        5.31971000
  |   21: Species H            -0.74513200        0.40629100        3.51475000
  |   22: Species H             0.70485100        3.52436000        3.85880000
  |   23: Species H             4.38428000        5.34484000        3.83807000
  |   24: Species H             3.07329000        2.59347000        3.43235000
  |   25: Species H             0.61534500        1.88962000        1.99901000
  |   26: Species H            -0.67509100        5.08607000        5.38005000
  |   27: Species H             2.94782000        3.92409000        5.25737000
  |   28: Species H             4.44775000        1.07191000        2.16838000
  |   29: Species H            -3.68666000        2.47362000        7.22179000
  |   30: Species H             2.87658000        5.32313000        0.11136300
  |   31: Species H             6.98749000        3.48595000        0.25835400
  |   32: Species H             0.51584500        0.43418300        6.93284000
  |   33: Species H            -2.80914000        1.91126000        4.99281000
  |   34: Species H             2.12836000        4.64536000        2.44791000
  |   35: Species H             6.19013000        4.29476000        2.41637000
  |   36: Species H             1.23281000        1.21659000        4.67368000
  |   37: Species C            -6.07922000       -0.02830200        9.40223000
  |   38: Species C            -4.60294000        2.96924000       12.02420000
  |   39: Species C            -0.61293100        5.93373000       11.94570000
  |   40: Species C            -1.69848000        2.80554000        9.50236000
  |   41: Species C            -5.25763000        0.89303400        8.78741000
  |   42: Species C            -5.41504000        3.83124000       12.75960000
  |   43: Species C            -1.39258000        5.06403000       12.67430000
  |   44: Species C            -0.87157300        1.98471000        8.73116000
  |   45: Species C            -4.74524000        0.61495500        7.46303000
  |   46: Species C            -5.75720000        3.54023000       14.09650000
  |   47: Species C            -1.73626000        5.36729000       14.02440000
  |   48: Species C            -0.49480600        2.32302000        7.41506000
  |   49: Species C            -8.67738000        1.42464000       13.64700000
  |   50: Species C            -1.68058000        4.42490000        7.74152000
  |   51: Species C             2.22837000        4.43091000        7.81451000
  |   52: Species C            -4.51099000        1.43382000       13.89870000
  |   53: Species C            -8.51059000        1.04179000       12.31520000
  |   54: Species C            -2.10246000        4.02605000        8.99992000
  |   55: Species C             1.90048000        4.88250000        9.10067000
  |   56: Species C            -4.18164000        1.74466000       12.58730000
  |   57: Species H            -6.45105000        0.25105300       10.41710000
  |   58: Species H            -4.36290000        3.26345000       10.98200000
  |   59: Species H            -0.22412300        5.63521000       10.95180000
  |   60: Species H            -2.02879000        2.51280000       10.50210000
  |   61: Species H            -4.97835000        1.77502000        9.35186000
  |   62: Species H            -5.70348000        4.78776000       12.34280000
  |   63: Species H            -1.69604000        4.11663000       12.21000000
  |   64: Species H            -0.53432500        1.02958000        9.17843000
  |   65: Species H            -8.25247000        2.35743000       13.98920000
  |   66: Species H            -2.01318000        5.38003000        7.33177000
  |   67: Species H             1.86520000        3.45428000        7.50425000
  |   68: Species H            -4.12592000        0.52518700       14.38770000
  |   69: Species H            -7.98621000        1.66683000       11.60430000
  |   70: Species H            -2.73829000        4.70159000        9.59004000
  |   71: Species H             1.32064000        4.21355000        9.73839000
  |   72: Species H            -3.59301000        1.01984000       12.03840000
  |   73: Species C            -0.77691000        6.18737000        2.42118000
  |   74: Species C             0.19431000        9.05664000        4.82632000
  |   75: Species C             4.32327000       11.85120000        4.91605000
  |   76: Species C             3.46027000        8.92348000        2.42847000
  |   77: Species C             0.01677250        7.00930000        1.66244000
  |   78: Species C            -0.65318500        9.88774000        5.55852000
  |   79: Species C             3.55325000       10.93120000        5.58778000
  |   80: Species C             4.06228000        7.98758000        1.61751000
  |   81: Species C             0.36333700        6.63669000        0.32572000
  |   82: Species C            -1.02608000        9.51881000        6.88652000
  |   83: Species C             3.01427000       11.22440000        6.87162000
  |   84: Species C             4.38667000        8.34432000        0.26840700
  |   85: Species C            -3.94401000        7.41703000        6.60433000
  |   86: Species C             3.23572000       10.52730000        0.60784300
  |   87: Species C             7.23330000       10.38470000        0.67909400
  |   88: Species C             0.26006000        7.44621000        6.66405000
  |   89: Species C            -3.57447000        6.98892000        5.33957000
  |   90: Species C             2.99925000       10.15000000        1.92395000
  |   91: Species C             7.07991000       10.75680000        2.00342000
  |   92: Species C             0.64239000        7.84863000        5.39455000
  |   93: Species H            -1.15427000        6.49799000        3.37624000
  |   94: Species H             0.49097200        9.27778000        3.78978000
  |   95: Species H             4.82018000       11.58710000        3.96555000
  |   96: Species H             3.17432000        8.68413000        3.46593000
  |   97: Species H             0.36650000        7.98839000        2.03471000
  |   98: Species H            -1.05544000       10.83160000        5.19556000
  |   99: Species H             3.41024000        9.94676000        5.13810000
  |  100: Species H             4.37609000        7.04512000        2.05354000
  |  101: Species H            -3.70944000        8.43162000        6.92266000
  |  102: Species H             2.98743000       11.53440000        0.27539200
  |  103: Species H             6.86688000        9.43805000        0.29472700
  |  104: Species H             0.50287900        6.46146000        7.02343000
  |  105: Species H            -2.91589000        7.68468000        4.78515000
  |  106: Species H             2.52138000       10.87420000        2.54550000
  |  107: Species H             6.56855000       10.03010000        2.64869000
  |  108: Species H             1.26247000        7.21875000        4.74332000
  |  109: Species C            -5.74286000        6.13352000        9.57873000
  |  110: Species C            -4.76216000        9.02370000       11.90570000
  |  111: Species C            -0.92789600       11.66840000       11.84560000
  |  112: Species C            -1.82614000        8.77208000        9.47798000
  |  113: Species C            -4.97600000        6.94132000        8.78321000
  |  114: Species C            -5.52317000        9.89267000       12.66510000
  |  115: Species C            -1.65426000       10.84730000       12.69510000
  |  116: Species C            -0.98301800        7.91821000        8.74434000
  |  117: Species C            -4.64535000        6.51871000        7.47204000
  |  118: Species C            -5.86496000        9.59994000       14.02900000
  |  119: Species C            -1.79018000       11.24160000       14.05250000
  |  120: Species C            -0.56528700        8.28715000        7.44636000
  |  121: Species C            -8.67224000        7.54131000       13.75680000
  |  122: Species C            -1.86676000       10.36120000        7.69410000
  |  123: Species C             2.22425000       10.26940000        7.57653000
  |  124: Species C            -4.64816000        7.45248000       13.72130000
  |  125: Species C            -8.33484000        7.19878000       12.46540000
  |  126: Species C            -2.22911000       10.02770000        8.97569000
  |  127: Species C             1.73111000       10.62100000        8.84776000
  |  128: Species C            -4.30534000        7.80384000       12.42900000
  |  129: Species H            -6.07742000        6.44984000       10.58410000
  |  130: Species H            -4.55500000        9.26912000       10.86320000
  |  131: Species H            -0.76274300       11.40810000       10.80470000
  |  132: Species H            -2.14146000        8.43618000       10.47020000
  |  133: Species H            -4.68116000        7.94593000        9.15876000
  |  134: Species H            -5.85142000       10.85080000       12.21670000
  |  135: Species H            -2.13075000        9.90835000       12.33890000
  |  136: Species H            -0.62171700        6.99366000        9.19719000
  |  137: Species H            -8.31696000        8.49166000       14.17970000
  |  138: Species H            -2.22416000       11.32310000        7.29666000
  |  139: Species H             1.96939000        9.31803000        7.13445000
  |  140: Species H            -4.39193000        6.46794000       14.08400000
  |  141: Species H            -7.74992000        7.89974000       11.87210000
  |  142: Species H            -2.87144000       10.61850000        9.59558000
  |  143: Species H             1.07007000        9.93986000        9.38866000
  |  144: Species H            -3.72641000        7.08533000       11.84190000

  Lattice parameters for 3D lattice (in Angstroms) :     8.102000   11.880000   17.292000
  Angle(s) between unit vectors (in degrees)       :    90.000000  124.463000   90.000000


  Quantities derived from the lattice vectors (in Angstrom^-1):
  | Reciprocal lattice vector 1:  0.775510  0.000000  0.532257
  | Reciprocal lattice vector 2:  0.000000  0.528888  0.000000
  | Reciprocal lattice vector 3: -0.000000  0.000000  0.440705
  | Unit cell volume                               :   0.137227E+04  Angstrom^3

  Fractional coordinates:
                         L1                L2                L3
       atom_frac         0.14645412        0.00828698        0.17672724  C
       atom_frac         0.45193379        0.27075589        0.34089302  C
       atom_frac         0.91676806        0.48123316        0.34012709  C
       atom_frac         0.61531470        0.23980135        0.17009546  C
       atom_frac         0.16349512        0.07795564        0.11748663  C
       atom_frac         0.43236459        0.34043350        0.39811920  C
       atom_frac         0.89494763        0.40950421        0.39720176  C
       atom_frac         0.64737082        0.16621296        0.11870286  C
       atom_frac         0.07782828        0.04802374        0.02225331  C
       atom_frac         0.47932012        0.30442677        0.48610546  C
       atom_frac         0.96609994        0.44138384        0.49055868  C
       atom_frac         0.58602456        0.19316835        0.02758799  C
       atom_frac         0.08610304        0.12873148        0.47244491  C
       atom_frac         0.44104539        0.36864394        0.04081002  C
       atom_frac         0.95177221        0.37953030        0.04250328  C
       atom_frac         0.58948526        0.12218519        0.46124489  C
       atom_frac         0.04486252        0.10191582        0.38638330  C
       atom_frac         0.50190810        0.33852862        0.13003756  C
       atom_frac         1.01091696        0.41525589        0.13098796  C
       atom_frac         0.53302846        0.15989562        0.37312676  C
       atom_frac         0.20576998        0.03419958        0.24652609  H
       atom_frac         0.41388095        0.29666330        0.27065790  H
       atom_frac         0.86626324        0.44990236        0.26920389  H
       atom_frac         0.67008353        0.21830556        0.24074651  H
       atom_frac         0.24528841        0.15905892        0.14021143  H
       atom_frac         0.37242678        0.42812037        0.37735903  H
       atom_frac         0.80919696        0.33031061        0.36875421  H
       atom_frac         0.73265558        0.09022811        0.15209111  H
       atom_frac         0.15673603        0.20821717        0.50653947  H
       atom_frac         0.36447937        0.44807492        0.00781105  H
       atom_frac         0.88432563        0.29343013        0.01812106  H
       atom_frac         0.65095841        0.03654739        0.48627240  H
       atom_frac         0.07622540        0.16088047        0.35019785  H
       atom_frac         0.47006115        0.39102357        0.17169747  H
       atom_frac         0.96871866        0.36151178        0.16948524  H
       atom_frac         0.54807449        0.10240657        0.32781394  H
       atom_frac         0.04613897       -0.00238232        0.65947648  C
       atom_frac         0.45046113        0.24993603        0.84338259  C
       atom_frac         0.93628341        0.49947222        0.83787657  C
       atom_frac         0.59531970        0.23615657        0.66649964  C
       atom_frac         0.09546262        0.07517121        0.61635274  C
       atom_frac         0.41252328        0.32249495        0.89496386  C
       atom_frac         0.90177482        0.42626515        0.88898088  C
       atom_frac         0.63205246        0.16706313        0.61240734  C
       atom_frac         0.04651514        0.05176389        0.52346015  C
       atom_frac         0.48354221        0.29799916        0.98873461  C
       atom_frac         0.97372433        0.45179209        0.98367748  C
       atom_frac         0.56706695        0.19554040        0.52009552  C
       atom_frac         0.08503744        0.11991919        0.95720648  C
       atom_frac         0.44836607        0.37246633        0.54299356  C
       atom_frac         0.93701643        0.37297222        0.54811311  C
       atom_frac         0.62060143        0.12069192        0.97486083  C
       atom_frac        -0.00719473        0.08769276        0.86379345  C
       atom_frac         0.50289561        0.33889310        0.63125828  C
       atom_frac         1.00549840        0.41098485        0.63832493  C
       atom_frac         0.55016155        0.14685690        0.88287867  C
       atom_frac         0.08621627        0.02113241        0.73065990  H
       atom_frac         0.39180232        0.27470118        0.77028223  H
       atom_frac         0.90007803        0.47434428        0.76816399  H
       atom_frac         0.63923998        0.21151515        0.73662184  H
       atom_frac         0.17774839        0.14941246        0.65594351  H
       atom_frac         0.34161454        0.40301010        0.86572933  H
       atom_frac         0.82498844        0.34651768        0.85641468  H
       atom_frac         0.71156654        0.08666498        0.64377905  H
       atom_frac         0.16647071        0.19843687        0.98120854  H
       atom_frac         0.37260404        0.45286448        0.51425352  H
       atom_frac         0.86590918        0.29076431        0.52635134  H
       atom_frac         0.70955300        0.04420766        1.00915950  H
       atom_frac        -0.00269367        0.14030556        0.81393062  H
       atom_frac         0.47440727        0.39575673        0.67264955  H
       atom_frac         0.98795295        0.35467593        0.68305489  H
       atom_frac         0.57631597        0.08584512        0.84437858  H
       atom_frac         0.10921005        0.52082239        0.16982261  C
       atom_frac         0.43282658        0.76234343        0.33852017  C
       atom_frac         0.95005004        0.99757576        0.34481387  C
       atom_frac         0.63280711        0.75113468        0.17033394  C
       atom_frac         0.14289754        0.59000842        0.11660426  C
       atom_frac         0.39024898        0.83230135        0.38987700  C
       atom_frac         0.91191240        0.92013468        0.39192931  C
       atom_frac         0.63841355        0.67235522        0.11345285  C
       atom_frac         0.07243750        0.55864394        0.02284614  C
       atom_frac         0.45672047        0.80124663        0.48302349  C
       atom_frac         0.95414378        0.94481481        0.48197840  C
       atom_frac         0.56416760        0.70238384        0.01882618  C
       atom_frac         0.07266645        0.62432912        0.46323056  C
       atom_frac         0.45086414        0.88613636        0.04263437  C
       atom_frac         0.95030646        0.87413300        0.04763195  C
       atom_frac         0.59661828        0.62678535        0.46741935  C
       atom_frac         0.01113801        0.58829293        0.37451975  C
       atom_frac         0.53316659        0.85437710        0.13494669  C
       atom_frac         1.04355942        0.90545455        0.14052075  C
       atom_frac         0.53626692        0.66065909        0.37837607  C
       atom_frac         0.14353823        0.54696886        0.23681093  H
       atom_frac         0.38163588        0.78095791        0.26581681  H
       atom_frac         0.93086376        0.97534512        0.27814539  H
       atom_frac         0.68539789        0.73098737        0.24310183  H
       atom_frac         0.21759858        0.67242340        0.14271544  H
       atom_frac         0.30985333        0.91175084        0.36441883  H
       atom_frac         0.85616825        0.83726936        0.36038856  H
       atom_frac         0.71408261        0.59302357        0.14403618  H
       atom_frac         0.12858470        0.70973232        0.48555837  H
       atom_frac         0.39205628        0.97090909        0.01931611  H
       atom_frac         0.87252038        0.79444865        0.02067228  H
       atom_frac         0.65703206        0.54389394        0.49262642  H
       atom_frac         0.04545850        0.64685859        0.33563249  H
       atom_frac         0.52683714        0.91533670        0.17854247  H
       atom_frac         1.03510577        0.84428451        0.18578026  H
       atom_frac         0.55763460        0.60763889        0.33269852  H
       atom_frac         0.10260618        0.51628956        0.67185627  C
       atom_frac         0.42077091        0.75957071        0.83507095  C
       atom_frac         0.88892884        0.98218855        0.83085551  C
       atom_frac         0.57749784        0.73839057        0.66478962  C
       atom_frac         0.12986739        0.58428620        0.61605815  C
       atom_frac         0.39117198        0.83271633        0.88833559  C
       atom_frac         0.87123862        0.91307239        0.89043981  C
       atom_frac         0.61941371        0.66651599        0.61333179  C
       atom_frac         0.05960744        0.54871296        0.52409212  C
       atom_frac         0.46452378        0.80807576        0.98400013  C
       atom_frac         0.96944957        0.94626263        0.98564843  C
       atom_frac         0.56101920        0.69757155        0.52229091  C
       atom_frac         0.09497315        0.63479040        0.96490790  C
       atom_frac         0.42136955        0.87215488        0.53966750  C
       atom_frac         0.91634833        0.86442761        0.53142109  C
       atom_frac         0.58864326        0.62731313        0.96241792  C
       atom_frac         0.02722107        0.60595791        0.87432855  C
       atom_frac         0.48521112        0.84408249        0.62955878  C
       atom_frac         0.96316937        0.89402357        0.62058571  C
       atom_frac         0.52148392        0.65688889        0.87177544  C
       atom_frac         0.14647882        0.54291582        0.74237335  H
       atom_frac         0.35802843        0.78022896        0.76194955  H
       atom_frac         0.82113712        0.96027778        0.75784633  H
       atom_frac         0.62263125        0.71011616        0.73438436  H
       atom_frac         0.19807171        0.66884933        0.64239939  H
       atom_frac         0.31267276        0.91336700        0.85688462  H
       atom_frac         0.78225306        0.83403620        0.86545578  H
       atom_frac         0.70236925        0.58869192        0.64509488  H
       atom_frac         0.17464844        0.71478620        0.99457029  H
       atom_frac         0.34358934        0.95312290        0.51179089  H
       atom_frac         0.84744275        0.78434596        0.50041341  H
       atom_frac         0.65099356        0.54443939        0.98785785  H
       atom_frac         0.04915641        0.66496128        0.83271423  H
       atom_frac         0.45844235        0.89381313        0.67303813  H
       atom_frac         0.92739995        0.83668855        0.65852467  H
       atom_frac         0.54320514        0.59640825        0.83059599  H

 
  Finished reading input file 'geometry.in'.
 

 
  Consistency checks for stacksize environment parameter are next.
 
  | Maximum stacksize for task 0: unlimited
  | Maximum stacksize for task 1: unlimited
  | Maximum stacksize for task 2: unlimited
  | Maximum stacksize for task 3: unlimited
  | Maximum stacksize for task 4: unlimited
  | Maximum stacksize for task 5: unlimited
  | Maximum stacksize for task 6: unlimited
  | Maximum stacksize for task 7: unlimited
  | Maximum stacksize for task 8: unlimited
  | Maximum stacksize for task 9: unlimited
  | Maximum stacksize for task 10: unlimited
  | Maximum stacksize for task 11: unlimited
  | Maximum stacksize for task 12: unlimited
  | Maximum stacksize for task 13: unlimited
  | Maximum stacksize for task 14: unlimited
  | Maximum stacksize for task 15: unlimited
  | Maximum stacksize for task 16: unlimited
  | Maximum stacksize for task 17: unlimited
  | Current stacksize for task 0: unlimited
  | Current stacksize for task 1: unlimited
  | Current stacksize for task 2: unlimited
  | Current stacksize for task 3: unlimited
  | Current stacksize for task 4: unlimited
  | Current stacksize for task 5: unlimited
  | Current stacksize for task 6: unlimited
  | Current stacksize for task 7: unlimited
  | Current stacksize for task 8: unlimited
  | Current stacksize for task 9: unlimited
  | Current stacksize for task 10: unlimited
  | Current stacksize for task 11: unlimited
  | Current stacksize for task 12: unlimited
  | Current stacksize for task 13: unlimited
  | Current stacksize for task 14: unlimited
  | Current stacksize for task 15: unlimited
  | Current stacksize for task 16: unlimited
  | Current stacksize for task 17: unlimited
 
  Consistency checks for the contents of control.in are next.
 
  MPI_IN_PLACE appears to work with this MPI implementation.
  | Keeping use_mpi_in_place .true. (see manual).
  Explicit treatment of the Coulomb operator is needed, but the RI method is not specified.
  Coulomb operator: Defaulting to 'LVL fast' resolution of identity - RI_type = LVL_fast
  Species H: Using default value for prodbas_acc =   1.000000E-06.
  Species H: Using default value max_l_prodbas =     6.
  Species C: Using default value for prodbas_acc =   1.000000E-06.
  Species C: Using default value max_l_prodbas =     6.
  Target number of points in a grid batch is not set.  Since GPU acceleration is enabled, defaulting to  200
  Method for grid partitioning is not set. Defaulting to parallel hash+maxmin partitioning.
  Batch size limit is not set. Defaulting to    200
  By default, will store active basis functions for each batch.
  If in need of memory, prune_basis_once .false. can be used to disable this option.
  communication_type for Hartree potential was not specified.
  Defaulting to calc_hartree .
  Defaulting to Pulay charge density mixer.
  Pulay mixer: Number of relevant iterations not set.
  Defaulting to    8 iterations.
  Pulay mixer: Number of initial linear mixing iterations not set.
  Defaulting to    0 iterations.
  Work space size for distributed Hartree potential not set.
  Defaulting to   0.200000E+03 MB.
  Algorithm-dependent basis array size parameters:
  | n_max_pulay                         :        8
  Maximum number of self-consistency iterations not provided.
  Presetting  1000 iterations.
  Presetting      1001 iterations before the initial mixing cycle
  is restarted anyway using the sc_init_iter criterion / keyword.
  Presetting a factor      1.000 between actual scf density residual
  and density convergence criterion sc_accuracy_rho below which sc_init_iter
  takes no effect.
 * No s.c.f. convergence criteria (sc_accuracy_*) were provided in control.in.
 * The run will proceed with a reasonable default guess, but please check whether.
 * the s.c.f. cycles seem to take too much or too little time.
  Geometry relaxation not requested: no relaxation will be performed.
 * Notice: The s.c.f. convergence criterion sc_accuracy_rho was not provided.
 * We used to stop in this case, and ask the user to provide reasonable
 * scf convergence criteria. However, this led some users to employ criteria
 * that led to extremely long run times, e.g., for simple relaxation.
 * We now preset a default value for sc_accuracy_rho if it is not set.
 * You may still wish to check if this setting is too tight or too loose for your needs.
 * Based on n_atoms and forces and force-correction status, FHI-aims chose sc_accuracy_rho =  0.391918E-04 .
  No accuracy limit for integral partition fn. given. Defaulting to  0.1000E-14.
  No threshold value for u(r) in integrations given. Defaulting to  0.1000E-05.
  No occupation type (smearing scheme) given. Defaulting to Gaussian broadening, width =  0.1000E-01 eV.
  The width will be adjusted in iteration number     2 of the first full s.c.f. cycle only.
  S.C.F. convergence parameters will be adjusted in iteration number     2 of the first full s.c.f. cycle only.
  No accuracy for occupation numbers given. Defaulting to  0.1000E-12.
  No threshold value for occupation numbers given. Defaulting to  0.0000E+00.
  No accuracy for fermi level given. Defaulting to  0.1000E-19.
  Maximum # of iterations to find E_F not set. Defaulting to  200.
  Preferred method for the eigenvalue solver ('KS_method') not specified in 'control.in'.
  Calling BLACS routine to test compilation state
  Since ScaLAPACK support is enabled, defaulting to ELPA (via ELSI).
  Will not use alltoall communication since running on < 1024 CPUs.
  Threshold for basis singularities not set.
  Default threshold for basis singularities:  0.1000E-04
  partition_type (choice of integration weights) for integrals was not specified.
  | Using a version of the partition function of Stratmann and coworkers ('stratmann_sparse').
  | At each grid point, the set of atoms used to build the partition table is smoothly restricted to
  | only those atoms whose free-atom density would be non-zero at that grid point.
  Partitioning for Hartree potential was not defined. Using partition_type for integrals.
  | Adjusted default value of keyword multip_moments_threshold to:       0.10000000E-11
  | This value may affect high angular momentum components of the Hartree potential in periodic systems.
  Angular momentum expansion for Kerker preconditioner not set explicitly.
  | Using default value of   0
  No explicit requirement for turning off preconditioner.
  | By default, it will be turned off when the charge convergence reaches
  | sc_accuracy_rho  =   0.391918E-04
  No special mixing parameter while Kerker preconditioner is on.
  Using default: charge_mix_param =     0.7500.
  Threshold for auxiliary basis singularities not set.
  Default threshold for auxiliary basis singularities:  0.1000E-04
  No q(lm)/r^(l+1) cutoff set for long-range Hartree potential.
  | Using default value of  0.100000E-09 .
  | Verify using the multipole_threshold keyword.
  Defaulting to new monopole extrapolation.
  Density update method: automatic selection selected.
  Using density matrix based charge density update.
  Using density matrix based charge density update.
  Using packed matrix style: index .
  Defaulting to use time-reversal symmetry for k-point grid.
  Charge integration errors on the 3D integration grid will be compensated
  by explicit normalization and distribution of residual charges.
  Use the "compensate_multipole_errors" flag to change this behaviour.
  Default to 1D ("use_logsbt") integrations for auxiliary 2-center integrals.
  Default onset of logarithmic r-grid for SBT is -38.000000000000
  Default onset of logarithmic k-grid for SBT is -25.000000000000
  Default range of logarithmic r- and k-grid for SBT is  45.000000000000
  Default number of logarithmic r- and k-grid for SBT is   4096
  Default of use_2d_corr is to use the efficient 2D distribution where possible
 
  Consistency checks for the contents of geometry.in are next.
 

  Range separation radius for Ewald summation (hartree_convergence_parameter):      2.91768261 bohr.
  Number of empty states per atom not set in control.in .
  | Since you are using a method that relies on the unoccupied spectrum
  | (MP2,GW,RPA et al.), will use the full Hamiltonian size (see below)
  | as the max. possible number of states (occupied plus empty).

  Structure-dependent array size parameters: 
  | Maximum number of distinct radial functions  :        9
  | Maximum number of basis functions            :     1440
  | Number of Kohn-Sham states (occupied + empty):     1440
------------------------------------------------------------
CUDA runtime version: 11060
CUDA driver version: 11060
  Initializing GPUs...

  Number of GPUs available to MPI task         0 :   1
  Number of GPUs available to MPI task         1 :   1
  Number of GPUs available to MPI task         2 :   1
  Number of GPUs available to MPI task         3 :   1
  Number of GPUs available to MPI task         4 :   1
  Number of GPUs available to MPI task         5 :   1
  Number of GPUs available to MPI task         6 :   1
  Number of GPUs available to MPI task         7 :   1
  Number of GPUs available to MPI task         8 :   1
  Number of GPUs available to MPI task         9 :   1
  Number of GPUs available to MPI task        10 :   1
  Number of GPUs available to MPI task        11 :   1
  Number of GPUs available to MPI task        12 :   1
  Number of GPUs available to MPI task        13 :   1
  Number of GPUs available to MPI task        14 :   1
  Number of GPUs available to MPI task        15 :   1
  Number of GPUs available to MPI task        16 :   1
  Number of GPUs available to MPI task        17 :   1

  | MPI task         0, GPU activated = T, Device Name = NVIDIA A100-SXM4-80GB
  | MPI task         1, GPU activated = T, Device Name = NVIDIA A100-SXM4-80GB
  | MPI task         2, GPU activated = T, Device Name = NVIDIA A100-SXM4-80GB
  | MPI task         3, GPU activated = T, Device Name = NVIDIA A100-SXM4-80GB
  | MPI task         4, GPU activated = T, Device Name = NVIDIA A100-SXM4-80GB
  | MPI task         5, GPU activated = T, Device Name = NVIDIA A100-SXM4-80GB
  | MPI task         6, GPU activated = T, Device Name = NVIDIA A100-SXM4-80GB
  | MPI task         7, GPU activated = T, Device Name = NVIDIA A100-SXM4-80GB
  | MPI task         8, GPU activated = T, Device Name = NVIDIA A100-SXM4-80GB
  | MPI task         9, GPU activated = T, Device Name = NVIDIA A100-SXM4-80GB
  | MPI task        10, GPU activated = T, Device Name = NVIDIA A100-SXM4-80GB
  | MPI task        11, GPU activated = T, Device Name = NVIDIA A100-SXM4-80GB
  | MPI task        12, GPU activated = T, Device Name = NVIDIA A100-SXM4-80GB
  | MPI task        13, GPU activated = T, Device Name = NVIDIA A100-SXM4-80GB
  | MPI task        14, GPU activated = T, Device Name = NVIDIA A100-SXM4-80GB
  | MPI task        15, GPU activated = T, Device Name = NVIDIA A100-SXM4-80GB
  | MPI task        16, GPU activated = T, Device Name = NVIDIA A100-SXM4-80GB
  | MPI task        17, GPU activated = T, Device Name = NVIDIA A100-SXM4-80GB

------------------------------------------------------------
          Preparing all fixed parts of the calculation.
------------------------------------------------------------
  Determining machine precision:
    2.225073858507201E-308
  Setting up grids for atomic and cluster calculations.

  Creating wave function, potential, and density for free atoms.
  Runtime choices for atomic solver:
  | atomic solver xc        : PW-LDA
  | compute density gradient: 0
  | compute kinetic density : F

  Species: H

  List of occupied orbitals and eigenvalues:
    n    l              occ      energy [Ha]    energy [eV]
    1    0           1.0000        -0.232375        -6.3233


  Species: C

  List of occupied orbitals and eigenvalues:
    n    l              occ      energy [Ha]    energy [eV]
    1    0           2.0000        -9.944615      -270.6068
    2    0           2.0000        -0.498807       -13.5732
    2    1           2.0000        -0.196968        -5.3598


  Adding cutoff potential to free-atom effective potential.
  Creating fixed part of basis set: Ionic, confined, hydrogenic.
 
  H                    hydrogenic:
 
  List of hydrogenic basis orbitals: 
    n    l      effective z      eigenvalue [eV]  inner max. [A]     outer max. [A]     outer radius [A]   
    2    0         2.100000       -14.9728           0.193243           1.317208           4.583499
    2    1         3.500000       -41.6669           0.602369           0.602369           3.723403
 
 
  C                    hydrogenic:
 
  List of hydrogenic basis orbitals: 
    n    l      effective z      eigenvalue [eV]  inner max. [A]     outer max. [A]     outer radius [A]   
    2    1         1.700000        -9.7616           1.230570           1.230570           4.607917
    3    2         6.000000       -54.4224           0.792453           0.792453           3.883070
    2    0         4.900000       -81.6679           0.082559           0.562749           3.078220
 
  Creating atomic-like basis functions for current effective potential.

  Species H                   :

  List of atomic basis orbitals and eigenvalues:
    n    l      energy [Ha]    energy [eV]    outer radius [A]
    1    0        -0.232375        -6.3233       4.527807


  Species C                   :

  List of atomic basis orbitals and eigenvalues:
    n    l      energy [Ha]    energy [eV]    outer radius [A]
    1    0        -9.944615      -270.6068       1.934409
    2    0        -0.498807       -13.5732       4.496620
    2    1        -0.196968        -5.3598       4.551928

  Assembling full basis from fixed parts.
  | Species H :   atomic orbital   1 s accepted.
  | Species H :    hydro orbital   2 s accepted.
  | Species H :    hydro orbital   2 p accepted.
  | Species C :   atomic orbital   1 s accepted.
  | Species C :    hydro orbital   2 s accepted.
  | Species C :   atomic orbital   2 s accepted.
  | Species C :   atomic orbital   2 p accepted.
  | Species C :    hydro orbital   2 p accepted.
  | Species C :    hydro orbital   3 d accepted.
 
  Basis size parameters after reduction:
  | Total number of radial functions:        9
  | Total number of basis functions :     1440
 
  Per-task memory consumption for arrays in subroutine allocate_ext:
  |           2.242384MB.
  Testing on-site integration grid accuracy.
  |  Species  Function  <phi|h_atom|phi> (log., in eV)  <phi|h_atom|phi> (rad., in eV)
           1        1                 -6.3245358373                 -6.3232436907
           1        2                 14.1326137532                 14.1384481100
           1        3                 25.3627025200                 25.3628451197
           2        4               -270.6067544938               -270.6067222788
           2        5                -10.5634280949                -10.5635685736
           2        6                 16.2089822398                 16.2052121796
           2        7                 -5.3613872565                 -5.3627872378
           2        8                  8.5292058327                  8.5051734780
           2        9                 27.4884461005                 27.4884542459

  Preparing densities etc. for the partition functions (integrals / Hartree potential).

  Preparations completed.
  max(cpu_time)          :      0.077 s.
  Wall clock time (cpu1) :      0.071 s.
------------------------------------------------------------

  Initializing index lists of integration centers etc. from given atomic structure:
  Mapping all atomic coordinates to central unit cell.

  Initializing the k-points
  Using symmetry for reducing the k-points
  | k-points reduced from:        2 to        2
  | Number of k-points                             :         2
  | Consuming          0 KiB for k_phase_exx.
  The eigenvectors in the calculations are REAL.
  | Number of basis functions in the Hamiltonian integrals :      8076
  | Number of basis functions in a single unit cell        :      1440
  | Number of centers in hartree potential         :      3332
  | Number of centers in hartree multipole         :      2552
  | Number of centers in electron density summation:      1996
  | Number of centers in basis integrals           :      2117
  | Number of centers in integrals                 :       967
  | Number of centers in hamiltonian               :      2004
  | Consuming          1 KiB for k_phase.
  | Number of super-cells (origin) [n_cells]                     :         175
  | Number of super-cells (after PM_index) [n_cells]             :          40
  | Number of super-cells in hamiltonian [n_cells_in_hamiltonian]:          40
  | Size of matrix packed + index [n_hamiltonian_matrix_size] :     1931170
  | Size of matrix packed + index (no_symmetry):     3859523

------------------------------------------------------------
          Begin self-consistency loop: Initialization.

          Date     :  20230119, Time     :  205333.191
------------------------------------------------------------
  | Estimated reciprocal-space cutoff momentum G_max:         3.24344278 bohr^-1 .
  | Reciprocal lattice points for long-range Hartree potential:    5310
  Using simple linear distribution as default method for k-point parallelism.
  * Using 18 tasks for Scalapack Eigenvalue solver.
  Detailed listing of tasks and assigned k-points:
   Task     0 k-point     1 on adag015
   Task     1 k-point     1 on adag015
   Task     2 k-point     1 on adag015
   Task     3 k-point     1 on adag015
   Task     4 k-point     1 on adag015
   Task     5 k-point     1 on adag015
   Task     6 k-point     1 on adag015
   Task     7 k-point     1 on adag015
   Task     8 k-point     1 on adag015
   Task     9 k-point     2 on adag015
   Task    10 k-point     2 on adag015
   Task    11 k-point     2 on adag015
   Task    12 k-point     2 on adag015
   Task    13 k-point     2 on adag015
   Task    14 k-point     2 on adag015
   Task    15 k-point     2 on adag015
   Task    16 k-point     2 on adag015
   Task    17 k-point     2 on adag015
  K-point:     1 Tasks:     9 split into      3 X      3 BLACS grid
  Calculating block size based on n_basis =         1440  max_nprow =            3  max_npcol =            3
  ScaLAPACK block size set to:           16
  Allocating        1.758 MB for ovlp
  Allocating        1.758 MB for ham
  Allocating        1.758 MB for eigenvec
  Required Scalapack workspace - INTEGER:            1  REAL:             1
  Partitioning the integration grid into batches with parallel hashing+maxmin method.
  | Number of batches:     5499
  | Maximal batch size:     200
  | Minimal batch size:      99
  | Average batch size:     138.905
  | Standard deviation of batch sizes:      29.814

  Integration load balanced across    18 MPI tasks.
  Work distribution over tasks is as follows:
  Task     0 has      42453 integration points.
  Task     1 has      42447 integration points.
  Task     2 has      42359 integration points.
  Task     3 has      42439 integration points.
  Task     4 has      42447 integration points.
  Task     5 has      42429 integration points.
  Task     6 has      42507 integration points.
  Task     7 has      42526 integration points.
  Task     8 has      42378 integration points.
  Task     9 has      42424 integration points.
  Task    10 has      42438 integration points.
  Task    11 has      42442 integration points.
  Task    12 has      42456 integration points.
  Task    13 has      42375 integration points.
  Task    14 has      42422 integration points.
  Task    15 has      42407 integration points.
  Task    16 has      42541 integration points.
  Task    17 has      42350 integration points.
  Initializing partition tables, free-atom densities, potentials, etc. across the integration grid (initialize_grid_storage).
  | initialize_grid_storage: Actual outermost partition radius vs. multipole_radius_free
  | (-- VB: in principle, multipole_radius_free should be larger, hence this output)
  | Species        1: Confinement radius =              4.999999999999999 AA, multipole_radius_free =              5.054417573612229 AA.
  | Species        1: outer_partition_radius set to              5.054417573612229 AA .
  | Species        2: Confinement radius =              4.999999999999999 AA, multipole_radius_free =              5.019602836301480 AA.
  | Species        2: outer_partition_radius set to              5.019602836301480 AA .
  | The sparse table of interatomic distances needs       7602.72 kbyte instead of     35853.51 kbyte of memory.
  | Net number of integration points:   763840
  | of which are non-zero points    :   605349
  | Numerical average free-atom electrostatic potential    :     -8.61472538 eV
  Renormalizing the initial density to the exact electron count on the 3D integration grid.
  | Initial density: Formal number of electrons (from input files) :     544.0000000000
  | Integrated number of electrons on 3D grid     :     543.9997964592
  | Charge integration error                      :      -0.0002035408
  | Normalization factor for density and gradient :       1.0000003742
  Renormalizing the free-atom superposition density to the exact electron count on the 3D integration grid.
  | Formal number of electrons (from input files) :     544.0000000000
  | Integrated number of electrons on 3D grid     :     543.9997964592
  | Charge integration error                      :      -0.0002035408
  | Normalization factor for density and gradient :       1.0000003742
  Obtaining max. number of non-zero basis functions in each batch (get_n_compute_maxes).
  | Maximal number of non-zero basis functions:      531 in task     0
  | Maximal number of non-zero basis functions:      532 in task     1
  | Maximal number of non-zero basis functions:      540 in task     2
  | Maximal number of non-zero basis functions:      541 in task     3
  | Maximal number of non-zero basis functions:      540 in task     4
  | Maximal number of non-zero basis functions:      538 in task     5
  | Maximal number of non-zero basis functions:      539 in task     6
  | Maximal number of non-zero basis functions:      542 in task     7
  | Maximal number of non-zero basis functions:      563 in task     8
  | Maximal number of non-zero basis functions:      552 in task     9
  | Maximal number of non-zero basis functions:      539 in task    10
  | Maximal number of non-zero basis functions:      538 in task    11
  | Maximal number of non-zero basis functions:      540 in task    12
  | Maximal number of non-zero basis functions:      535 in task    13
  | Maximal number of non-zero basis functions:      543 in task    14
  | Maximal number of non-zero basis functions:      539 in task    15
  | Maximal number of non-zero basis functions:      530 in task    16
  | Maximal number of non-zero basis functions:      547 in task    17
  Integrating Hamiltonian matrix: batch-based integration.
  GPU acceleration will be used when integrating the Hamiltonian matrix.
  Reporting GPU memory usage by myid 0.  Note that it is likely not the only MPI task binding to its GPU!
  Allocating        2.256 MB on GPU for hamiltonian_shell
  Allocating        0.850 MB on GPU for wave
  Allocating        0.002 MB on GPU for partition
  Allocating        0.850 MB on GPU for h_times_psi
  Time summed over all CPUs for integration: real work       26.941 s, elapsed       27.658 s
  Deallocating memory used on GPU for Hamiltonian integration.
  Integrating overlap matrix.
  Time summed over all CPUs for integration: real work       22.701 s, elapsed       23.096 s
  Deallocating overlap matrix.

  Updating Kohn-Sham eigenvalues and eigenvectors using ELSI and the ELPA eigensolver.
  Singularity check in k-point 1 (analysis for other k-points may follow below):
  Overlap matrix is not singular
  | Lowest and highest eigenvalues :  0.7852E-03,  0.8245E+01
  Finished singularity check of overlap matrix
  | Time :     0.106 s
  Starting ELPA eigensolver
  Finished Cholesky decomposition
  | Time :     0.018 s
  Finished transformation to standard eigenproblem
  | Time :     0.024 s
  Finished solving standard eigenproblem
  | Time :     0.226 s
  Finished back-transformation of eigenvectors
  | Time :     0.018 s

  Obtaining occupation numbers and electronic chemical potential using ELSI.
  | Note that, for insulating systems, the printed 'chemical potential' value is not uniquely defined.
  | It can be anywhere in the energy gap, as long as it correctly separates occupied and unoccupied states.
  | In systems with a gap, the physically relevant chemical potential is the VBM or HOMO.

  | Chemical potential (Fermi level):    -7.96012457 eV
  Writing Kohn-Sham eigenvalues.
  K-point:       1 at    0.000000    0.000000    0.000000 (in units of recip. lattice)

  State    Occupation    Eigenvalue [Ha]    Eigenvalue [eV]
      1       2.00000         -10.070733         -274.03859
      2       2.00000         -10.070350         -274.02815
      3       2.00000         -10.070026         -274.01936
      4       2.00000         -10.069037         -273.99244
      5       2.00000         -10.068640         -273.98164
      6       2.00000         -10.068169         -273.96883
      7       2.00000         -10.067991         -273.96396
      8       2.00000         -10.067044         -273.93822
      9       2.00000         -10.066947         -273.93558
     10       2.00000         -10.066890         -273.93403
     11       2.00000         -10.066004         -273.90991
     12       2.00000         -10.065887         -273.90671
     13       2.00000         -10.065860         -273.90599
     14       2.00000         -10.065743         -273.90281
     15       2.00000         -10.065734         -273.90256
     16       2.00000         -10.065701         -273.90165
     17       2.00000         -10.065675         -273.90097
     18       2.00000         -10.065578         -273.89832
     19       2.00000         -10.065325         -273.89143
     20       2.00000         -10.065292         -273.89053
     21       2.00000         -10.065127         -273.88604
     22       2.00000         -10.064834         -273.87807
     23       2.00000         -10.064639         -273.87277
     24       2.00000         -10.064504         -273.86909
     25       2.00000         -10.064481         -273.86846
     26       2.00000         -10.064255         -273.86232
     27       2.00000         -10.064179         -273.86025
     28       2.00000         -10.064014         -273.85574
     29       2.00000         -10.063959         -273.85427
     30       2.00000         -10.063832         -273.85081
     31       2.00000         -10.063327         -273.83707
     32       2.00000         -10.063286         -273.83595
     33       2.00000         -10.063262         -273.83528
     34       2.00000         -10.063037         -273.82916
     35       2.00000         -10.062609         -273.81751
     36       2.00000         -10.062099         -273.80365
     37       2.00000         -10.062038         -273.80199
     38       2.00000         -10.061971         -273.80017
     39       2.00000         -10.061952         -273.79964
     40       2.00000         -10.061739         -273.79386
     41       2.00000         -10.061719         -273.79329
     42       2.00000         -10.061425         -273.78530
     43       2.00000         -10.061391         -273.78437
     44       2.00000         -10.061334         -273.78284
     45       2.00000         -10.061280         -273.78136
     46       2.00000         -10.061081         -273.77595
     47       2.00000         -10.060925         -273.77170
     48       2.00000         -10.060803         -273.76838
     49       2.00000         -10.060677         -273.76495
     50       2.00000         -10.060673         -273.76484
     51       2.00000         -10.060583         -273.76240
     52       2.00000         -10.060577         -273.76223
     53       2.00000         -10.060567         -273.76196
     54       2.00000         -10.060496         -273.76003
     55       2.00000         -10.060362         -273.75639
     56       2.00000         -10.060252         -273.75339
     57       2.00000         -10.060201         -273.75199
     58       2.00000         -10.059975         -273.74586
     59       2.00000         -10.059927         -273.74455
     60       2.00000         -10.059879         -273.74324
     61       2.00000         -10.059602         -273.73570
     62       2.00000         -10.059550         -273.73429
     63       2.00000         -10.059378         -273.72960
     64       2.00000         -10.059358         -273.72905
     65       2.00000         -10.059129         -273.72282
     66       2.00000         -10.058877         -273.71596
     67       2.00000         -10.058866         -273.71568
     68       2.00000         -10.058338         -273.70130
     69       2.00000         -10.057891         -273.68913
     70       2.00000         -10.057688         -273.68363
     71       2.00000         -10.056801         -273.65949
     72       2.00000         -10.056735         -273.65769
     73       2.00000         -10.056489         -273.65098
[...]
  |    H      2     3.678162 A  1.011968E+04 A            0.556529 a.u.
  |    H      1     3.958095 A  1.721251E+06 A            0.841931 a.u.
  |    H      0     4.527807 A  3.866455E+12 A            0.581436 a.u.
  |    C      0     2.562483 A      2.562483 A        6.563029E-17 a.u.
  |    C      0     2.967371 A      2.967371 A        1.352164E-16 a.u.
  |    C      0     3.003870 A      3.003870 A        2.312640E-17 a.u.
  |    C      1     3.272245 A      3.272245 A       -3.835259E-17 a.u.
  |    C      0     3.312494 A      3.312494 A       -2.710381E-16 a.u.
  |    C      3     4.077671 A      4.077671 A       -1.683752E-15 a.u.
  |    C      3     4.077671 A      4.077671 A        1.412852E-15 a.u.
  |    C      1     4.496620 A      4.496620 A       -3.011059E-16 a.u.
  |    C      0     4.496620 A      4.551928 A        2.873903E-17 a.u.
  |    C      2     4.551928 A      4.551928 A       -4.610785E-16 a.u.
  |    C      2     4.551928 A      4.551928 A        7.440584E-16 a.u.
  |    C      2     4.551928 A      4.551928 A       -7.110458E-16 a.u.
  |    C      2     4.551928 A      4.551928 A       -1.935424E-16 a.u.
  |    C      0     4.551928 A      4.607917 A        2.067142E-16 a.u.
  |    C      0     4.551928 A      4.607917 A       -1.109786E-16 a.u.
  |    C      1     4.551928 A      4.607917 A       -9.951742E-17 a.u.
  |    C      1     4.551928 A      4.607917 A        1.937809E-16 a.u.
  |    C      1     4.607917 A      4.607917 A       -2.813308E-16 a.u.
  |    C      1     4.607917 A      4.607917 A       -7.330363E-17 a.u.
  |    C      2     4.607917 A      4.607917 A        1.318462E-15 a.u.
  |    C      2     4.607917 A      4.607917 A       -1.318397E-15 a.u.
  |    C      0     4.607917 A      4.664595 A        3.157826E-16 a.u.
  |    C      1     4.607917 A      4.664595 A        7.356967E-16 a.u.
  |    C      4     3.835889 A  2.962973E+02 A            4.379483 a.u.
  |    C      3     4.127827 A  1.725964E+03 A            9.005588 a.u.
  |    C      2     4.607917 A  2.608475E+04 A            9.531178 a.u.
  |    C      1     4.607917 A  2.736013E+06 A            2.127278 a.u.
  |    C      0     4.607917 A  4.399765E+12 A            0.661635 a.u.

  | Shrink_full_auxil_basis : there are       36  radial auxiliary wave functions
                            accepted and       7 rejected.
  | Shrink_full_auxil_basis : there are totally                8992 partial auxiliary wave functions.
 
  | Maximal number of product basis functions per thread :   512   512
 
  | Minimal total memory requirement for three-center overlap :      72.476 Gbs
  | Number of local auxiliary basis functions on task:      0   512
  | Number of local auxiliary basis functions on task:      1   512
  | Number of local auxiliary basis functions on task:      2   512
  | Number of local auxiliary basis functions on task:      3   512
  | Number of local auxiliary basis functions on task:      4   496
  | Number of local auxiliary basis functions on task:      5   496
  | Number of local auxiliary basis functions on task:      6   496
  | Number of local auxiliary basis functions on task:      7   496
  | Number of local auxiliary basis functions on task:      8   496
  | Number of local auxiliary basis functions on task:      9   496
  | Number of local auxiliary basis functions on task:     10   496
  | Number of local auxiliary basis functions on task:     11   496
  | Number of local auxiliary basis functions on task:     12   496
  | Number of local auxiliary basis functions on task:     13   496
  | Number of local auxiliary basis functions on task:     14   496
  | Number of local auxiliary basis functions on task:     15   496
  | Number of local auxiliary basis functions on task:     16   496
  | Number of local auxiliary basis functions on task:     17   496
  | 2D aux task distribution:      3 X      6
  | 2D block size (nb_aux_2d):     64
 
  Basis pair condensation :   1037520  -->     544310
 
 --------------------------------------------
  Constructing auxiliary basis (full product) ...
 
  Product basis:
  | charge radius: extent of product basis function
  | field radius: extent of its Coulomb potential
  | Species   l  charge radius    field radius  multipol momen
  |    H      1     3.910002 A      3.910002 A       -2.487223E-16 a.u.
  |    H      1     3.958095 A      3.958095 A       -2.441841E-16 a.u.
  |    H      0     4.527807 A      4.527807 A        1.268855E-16 a.u.
  |    H      0     4.527807 A      4.583499 A       -4.900954E-17 a.u.
  |    H      0     4.527807 A      4.583499 A        4.713786E-16 a.u.
  |    H      2     3.678162 A  1.011968E+04 A            0.556529 a.u.
  |    H      1     3.958095 A  1.721251E+06 A            0.841931 a.u.
  |    H      0     4.527807 A  3.866455E+12 A            0.581436 a.u.
  |    C      0     2.562483 A      2.562483 A        6.563029E-17 a.u.
  |    C      0     2.967371 A      2.967371 A        1.352164E-16 a.u.
  |    C      0     3.003870 A      3.003870 A        2.312640E-17 a.u.
  |    C      1     3.272245 A      3.272245 A       -3.835259E-17 a.u.
  |    C      0     3.312494 A      3.312494 A       -2.710381E-16 a.u.
  |    C      3     4.077671 A      4.077671 A       -1.683752E-15 a.u.
  |    C      3     4.077671 A      4.077671 A        1.412852E-15 a.u.
  |    C      1     4.496620 A      4.496620 A       -3.011059E-16 a.u.
  |    C      0     4.496620 A      4.551928 A        2.873903E-17 a.u.
  |    C      2     4.551928 A      4.551928 A       -4.610785E-16 a.u.
  |    C      2     4.551928 A      4.551928 A        7.440584E-16 a.u.
  |    C      2     4.551928 A      4.551928 A       -7.110458E-16 a.u.
  |    C      2     4.551928 A      4.551928 A       -1.935424E-16 a.u.
  |    C      0     4.551928 A      4.607917 A        2.067142E-16 a.u.
  |    C      0     4.551928 A      4.607917 A       -1.109786E-16 a.u.
  |    C      1     4.551928 A      4.607917 A       -9.951742E-17 a.u.
  |    C      1     4.551928 A      4.607917 A        1.937809E-16 a.u.
  |    C      1     4.607917 A      4.607917 A       -2.813308E-16 a.u.
  |    C      1     4.607917 A      4.607917 A       -7.330363E-17 a.u.
  |    C      2     4.607917 A      4.607917 A        1.318462E-15 a.u.
  |    C      2     4.607917 A      4.607917 A       -1.318397E-15 a.u.
  |    C      0     4.607917 A      4.664595 A        3.157826E-16 a.u.
  |    C      1     4.607917 A      4.664595 A        7.356967E-16 a.u.
  |    C      4     3.835889 A  2.962973E+02 A            4.379483 a.u.
  |    C      3     4.127827 A  1.725964E+03 A            9.005588 a.u.
  |    C      2     4.607917 A  2.608475E+04 A            9.531178 a.u.
  |    C      1     4.607917 A  2.736013E+06 A            2.127278 a.u.
  |    C      0     4.607917 A  4.399765E+12 A            0.661635 a.u.

  | Shrink_full_auxil_basis : there are       36  radial auxiliary wave functions
                            accepted and       7 rejected.
  | Shrink_full_auxil_basis : there are totally                8992 partial auxiliary wave functions.
 
  | Maximal number of product basis functions per thread :   512   512
 
  | Minimal total memory requirement for three-center overlap :      72.476 Gbs
  | Number of local auxiliary basis functions on task:      0   512
  | Number of local auxiliary basis functions on task:      1   512
  | Number of local auxiliary basis functions on task:      2   512
  | Number of local auxiliary basis functions on task:      3   512
  | Number of local auxiliary basis functions on task:      4   496
  | Number of local auxiliary basis functions on task:      5   496
  | Number of local auxiliary basis functions on task:      6   496
  | Number of local auxiliary basis functions on task:      7   496
  | Number of local auxiliary basis functions on task:      8   496
  | Number of local auxiliary basis functions on task:      9   496
  | Number of local auxiliary basis functions on task:     10   496
  | Number of local auxiliary basis functions on task:     11   496
  | Number of local auxiliary basis functions on task:     12   496
  | Number of local auxiliary basis functions on task:     13   496
  | Number of local auxiliary basis functions on task:     14   496
  | Number of local auxiliary basis functions on task:     15   496
  | Number of local auxiliary basis functions on task:     16   496
  | Number of local auxiliary basis functions on task:     17   496
  | 2D aux task distribution:      3 X      6
  | 2D block size (nb_aux_2d):     64
 
  Basis pair condensation :   1037520  -->     544310
  Allocating        0.069 MB for t_coeff
  Allocating        0.034 MB for basbas_idx
  Allocating        0.069 MB for wave
  Allocating        0.069 MB for total_wave
  Allocating        0.206 MB for wave_gradient
  Allocating        0.206 MB for total_wave_grad
 HERE1
 HERE2
  Deallocating        0.069 MB for t_coeff
  Deallocating        0.034 MB for basbas_idx
  Deallocating        0.069 MB for wave
  Deallocating        0.206 MB for wave_gradient
  Deallocating        0.206 MB for total_wave_grad
dP_dE (Bohr^3) at every cycle:--->
 (1003.67439984069,0.000000000000000E+000) (-1.15641093823829,0.000000000000000E+000) (-453.303749024735,0.000000000000000E+000)
 (-1.17152961051205,0.000000000000000E+000) (1370.01390687961,0.000000000000000E+000) (-4.446289981029028E-002,0.000000000000000E+000)
 (-453.492349136506,0.000000000000000E+000) (-4.833742080485037E-002,0.000000000000000E+000) (1693.24380821194,0.000000000000000E+000)
DFPT polarizability (Bohr^3)        xx        yy        zz        xy        xz        yz
  | Polarizability:--->                      1003.674399841                 1370.013906880                 1693.243808212                   -1.156410938                 -453.303749025                   -0.044462900

DFPT for dielectric_constant:--->  # PARSE DFPT_dielectric_tensor
               2.361964751773669            -0.001569224976443            -0.615123518261042
              -0.001589740692230             2.859079648644943            -0.000060335206630
              -0.615379444589793            -0.000065592848974             3.297695730118968

                                               :  max(cpu_time)    wall_clock(cpu1)
  | Time for  dielectric calculation            :        0.000 s           0.001 s
===========================================================================

------------------------------------------------------------------------------
  Final output of selected total energy values:

  The following output summarizes some interesting total energy values
  at the end of a run (AFTER all relaxation, molecular dynamics, etc.).

  | Total energy of the DFT / Hartree-Fock s.c.f. calculation      :         -83267.437004766 eV
  | Final zero-broadening corrected energy (caution - metals only) :         -83267.437004766 eV
  | For reference only, the value of 1 Hartree used in FHI-aims is :             27.211384500 eV
  | For reference only, the overall average (free atom contribution
  | + realspace contribution) of the electrostatic potential after
  | s.c.f. convergence is                                          :             -7.704548292 eV

  Before relying on these values, please be sure to understand exactly which
  total energy value is referred to by a given number. Different objects may
  all carry the same name 'total energy'. Definitions:

  Total energy of the DFT / Hartree-Fock s.c.f. calculation:
  | Note that this energy does not include ANY quantities calculated after the
  | s.c.f. cycle, in particular not ANY RPA, MP2, etc. many-body perturbation terms.

  Final zero-broadening corrected energy:
  | For metallic systems only, a broadening of the occupation numbers at the Fermi
  | level can be extrapolated back to zero broadening by an electron-gas inspired
  | formula. For all systems that are not real metals, this value can be
  | meaningless and should be avoided.

------------------------------------------------------------------------------
  Methods described in the following list of references were used in this FHI-aims run.
  If you publish the results, please make sure to cite these reference if they apply.
  FHI-aims is an academic code, and for our developers (often, Ph.D. students
  and postdocs), scientific credit in the community is essential.
  Thank you for helping us!

  For any use of FHI-aims, please cite:

    Volker Blum, Ralf Gehrke, Felix Hanke, Paula Havu, Ville Havu,
    Xinguo Ren, Karsten Reuter, and Matthias Scheffler
    'Ab initio molecular simulations with numeric atom-centered orbitals'
    Computer Physics Communications 180, 2175-2196 (2009)
    http://doi.org/10.1016/j.cpc.2009.06.022


  For Hartree-Fock, hybrid functionals, or many-body perturbation theory used in your run, please cite:

    Xinguo Ren, Patrick Rinke, Volker Blum, Juergen Wieferink, Alex Tkatchenko,
    Andrea Sanfilippo, Karsten Reuter, and Matthias Scheffler,
    'Resolution-of-identity approach to Hartree-Fock, hybrid density functionals,
    RPA, MP2, and GW with numeric atom-centered orbital basis functions'
    New Journal of Physics 14, 053020 (2012).
    http://doi.org/10.1088/1367-2630/14/5/053020


  The provided symmetry information was generated with SPGlib:

    Atsushi Togo, Yusuke Seto, Dimitar Pashov
    SPGlib 1.7.3 obtained from http://spglib.sourceforge.net
    Copyright (C) 2008 Atsushi Togo


  The DFPT (perturbation by an electric field) part of the code was used.
  Here is the corresponding reference:

    Honghui Shang, Nathaniel Raimbault, Mariana Rossi,
    Christian Carbogno, Patrick Rinke and Matthias Scheffler,
    'All-Electron, Real-Space Perturbation Theory for Homogeneous
    Electric Fields: Theory, Implementation, and Application within dft'
    New Journal of Physics, 20(7):073040, 2018


  The ELSI infrastructure was used in your run to solve the Kohn-Sham electronic structure.
  Please check out http://elsi-interchange.org to learn more.
  If scalability is important for your project, please acknowledge ELSI by citing:

    V. W-z. Yu, F. Corsetti, A. Garcia, W. P. Huhn, M. Jacquelin, W. Jia,
    B. Lange, L. Lin, J. Lu, W. Mi, A. Seifitokaldani, A. Vazquez-Mayagoitia,
    C. Yang, H. Yang, and V. Blum
    'ELSI: A unified software interface for Kohn-Sham electronic structure solvers'
    Computer Physics Communications 222, 267-285 (2018).
    http://doi.org/10.1016/j.cpc.2017.09.007


  For the real-space grid partitioning and parallelization used in this calculation, please cite:

    Ville Havu, Volker Blum, Paula Havu, and Matthias Scheffler,
    'Efficient O(N) integration for all-electron electronic structure calculation'
    'using numerically tabulated basis functions'
    Journal of Computational Physics 228, 8367-8379 (2009).
    http://doi.org/10.1016/j.jcp.2009.08.008


  The high-level electronic structure method used in your calculation
  employed our efficient localized resolution of identity for the Coulomb operator.
  Some calculations, especially large-scale hybrid density functional theory,
  are only possible thanks to this development. For this feature, please cite:

    Arvid Ihrig, Juergen Wieferink, Igor Ying Zhang, Matti Ropo, Xinguo Ren,
    Patrick Rinke, Matthias Scheffler, and Volker Blum,
    'Accurate localized resolution of identity approach for linear-scaling
    hybrid density functionals and for many-body perturbation theory'
    New Journal of Physics 117, 093020 (2015).
    http://doi.org/10.1088/1367-2630/17/9/093020

  Of course, there are many other important community references, e.g., those cited in the
  above references. Our list is limited to references that describe implementations in the
  FHI-aims code. The reason is purely practical (length of this list) - please credit others as well.

------------------------------------------------------------
          Leaving FHI-aims.
          Date     :  20230119, Time     :  211822.182

          Computational steps:
          | Number of self-consistency cycles          :           47
          | Number of SCF (re)initializations          :            1
          | Number of coupled perturbed self-consistency cycles          :            0
          | Number of CPSCF (re)initializations          :            0

          Detailed time accounting                     :  max(cpu_time)    wall_clock(cpu1)
          | Total time                                  :     1491.387 s        1502.394 s
          | GPU initialization                          :        2.036 s          12.208 s
          | Preparation time                            :        0.077 s           0.071 s
          | Boundary condition initalization            :        1.002 s           1.002 s
          | Grid partitioning                           :        1.252 s           1.252 s
          | Preloading free-atom quantities on grid     :        4.066 s           4.067 s
          | Free-atom superposition energy              :        0.517 s           0.516 s
          | Total time for integrations                 :       22.824 s          22.966 s
          | Product basis setup: Total time             :        0.000 s           0.000 s
          | Product basis: | 2-center integrations     :(       0.000 s)  (       0.000 s)
          | Product basis: | LVL 3-center & coefficient:(       0.000 s)  (       0.000 s)
          | Total time for solution of K.-S. equations  :        3.799 s           3.800 s
          | Total time for density update               :       16.054 s          16.199 s
          | Total time for mixing & preconditioning     :       12.549 s          12.555 s
          | Total time for Hartree multipole update     :        0.092 s           0.090 s
          | Total time for Hartree multipole sum        :       45.710 s          45.727 s
          | Total time for total energy evaluation      :        0.007 s           0.005 s
          | Total time first_order_DM                   :        1.942 s           1.940 s
          | Total time first_order_density              :      313.301 s         313.338 s
          | Total time first_order_potential            :      124.320 s         124.359 s
          | Total time first_order_H                    :      605.974 s         606.146 s
          | Total time solving of Sternheimer equations :        1.898 s           1.901 s
          | Total time for dielectric constant          :        0.000 s           0.001 s
          | Total time momentum matrix                  :        0.000 s           0.000 s

          GPU acceleration has been used for charge density update.
          GPU acceleration has been used for real-space Hamiltonian integration.
          Due to GPU usage, wall_clock(cpu1) will give a more reliable estimate for timings.

          Partial memory accounting:
          | Residual value for overall tracked memory usage across tasks:     1.234863 MB (should be 0.000000 MB)
          |
          | Largest tracked array allocation:
          |   Minimum:      103.136 MB (DFPT_pulay_mixing::initialize_pulay_mixing::X_in_diffs on task  0)
          |   Maximum:      103.136 MB (DFPT_pulay_mixing::initialize_pulay_mixing::X_in_diffs on task  0)
          |   Average:      103.136 MB
          |
          | Because the residual tracked memory usage was not zero, the peak value for overall
          | tracked memory usage was not output, as it is probably incorrect.  This is likely due
          | to a missing aims_deallocate statement in the source code, which should be otherwise
          | harmless.
          |
          Note:  These values currently only include a subset of arrays which are explicitly tracked.
          The "true" memory usage will be greater.

          Have a nice day.
------------------------------------------------------------
