------------------------------------------------------------
          Invoking FHI-aims ...

          When using FHI-aims, please cite the following reference:

            Volker Blum, Ralf Gehrke, Felix Hanke, Paula Havu,
            Ville Havu, Xinguo Ren, Karsten Reuter, and Matthias Scheffler,
            'Ab Initio Molecular Simulations with Numeric Atom-Centered Orbitals',
            Computer Physics Communications 180, 2175-2196 (2009)

          In addition, many other developments in FHI-aims are likely important for
          your particular application. A partial list of references is given at the end of
          this file. Thank you for giving credit to the authors of these developments.

          For any questions about FHI-aims, please visit our slack channel at

            https://fhi-aims.slack.com

          and our main development and support site at

            https://aims-git.rz-berlin.mpg.de .

          The latter site, in particular, has a wiki to collect information, as well
          as an issue tracker to log discussions, suggest improvements, and report issues
          or bugs. https://aims-git.rz-berlin.mpg.de is also the main development site
          of the project and all new and updated code versions can be obtained there.
          Please send an email to aims-coordinators@fhi-berlin.mpg.de and we will add
          you to these sites. They are for you and everyone is welcome there.

------------------------------------------------------------



  Date     :  20230119, Time     :  215041.204
  Time zero on CPU 1             :   0.381295000000000E+00  s.
  Internal wall clock time zero  :           443397041.204  s.

  FHI-aims created a unique identifier for this run for later identification
  aims_uuid : FD97DA4F-6484-40EA-A0C7-5FC45CAA71D8

  Build configuration of the current instance of FHI-aims
  -------------------------------------------------------
  FHI-aims version      : 220829
  Commit number         : 9895fc21d
  CMake host system     : Linux-5.3.18-150300.59.68-default
  CMake version         : 3.17.0
  Fortran compiler      : /mpcdf/soft/SLE_15/packages/x86_64/intel_oneapi/2021.3/mpi/2021.3.0/bin/mpiifort (Intel) version 20.2.3.20210609
  Fortran compiler flags: -O3 -ip -fp-model precise
  C compiler            : /mpcdf/soft/SLE_15/packages/x86_64/intel/2021.3.0/bin/icc (Intel) version 20.2.3.20210609
  C compiler flags      : -O3 -ip -fp-model precise -std=gnu99
  CUDA compiler         : /mpcdf/soft/SLE_15/packages/x86_64/cuda/11.6.2/bin/nvcc
  CUDA compiler flags   : -O3 -DAdd_ -lcublas
  ELPA2 kernel          : AVX512
  Using MPI
  Using ScaLAPACK
  Using LibXC
  Using CUDA
  Using i-PI
  Using RLSY
  Linking against: /mpcdf/soft/SLE_15/packages/x86_64/cuda/11.6.2/lib64/libcublas.so
                   /mpcdf/soft/SLE_15/packages/x86_64/cuda/11.6.2/lib64/libcudart.so
                   /mpcdf/soft/SLE_15/packages/x86_64/intel_oneapi/2021.3/mkl/latest/lib/intel64/libmkl_intel_lp64.so
                   /mpcdf/soft/SLE_15/packages/x86_64/intel_oneapi/2021.3/mkl/latest/lib/intel64/libmkl_sequential.so
                   /mpcdf/soft/SLE_15/packages/x86_64/intel_oneapi/2021.3/mkl/latest/lib/intel64/libmkl_core.so
                   /mpcdf/soft/SLE_15/packages/x86_64/intel_oneapi/2021.3/mkl/latest/lib/intel64/libmkl_blacs_intelmpi_lp64.so
                   /mpcdf/soft/SLE_15/packages/x86_64/intel_oneapi/2021.3/mkl/latest/lib/intel64/libmkl_scalapack_lp64.so

  Using       18 parallel tasks.
  Task        0 on host adag015 reporting.
  Task        1 on host adag015 reporting.
  Task        2 on host adag015 reporting.
  Task        3 on host adag015 reporting.
  Task        4 on host adag015 reporting.
  Task        5 on host adag015 reporting.
  Task        6 on host adag015 reporting.
  Task        7 on host adag015 reporting.
  Task        8 on host adag015 reporting.
  Task        9 on host adag015 reporting.
  Task       10 on host adag015 reporting.
  Task       11 on host adag015 reporting.
  Task       12 on host adag015 reporting.
  Task       13 on host adag015 reporting.
  Task       14 on host adag015 reporting.
  Task       15 on host adag015 reporting.
  Task       16 on host adag015 reporting.
  Task       17 on host adag015 reporting.

  Performing system and environment tests:
  | Environment variable OMP_NUM_THREADS correctly set to 1.
  | Checking for ScaLAPACK...
  | Testing pdtran()...
  | All pdtran() tests passed.

  Obtaining array dimensions for all initial allocations:
  
  -----------------------------------------------------------------------
  Parsing control.in (first pass over file, find array dimensions only).
  The contents of control.in will be repeated verbatim below
  unless switched off by setting 'verbatim_writeout .false.' .
  in the first line of control.in .
  -----------------------------------------------------------------------
  
  #
  # Input for polarizability replays on generic oligoacene molecular crystals (light settings,  LDA+MBD).
  #
  #########################################################################################
  #
  #  Physical model
  #
    xc                 pw-lda
    spin               none
    relativistic       none
    charge             0.0
    k_grid 	     2 1 1
    DFPT dielectric
  #
  #  GPU acceleration
  #
  # Turns on GPU acceleration everywhere
    use_gpu
  
  # Turns OFF GPU acceleration of ELPA - may be necessary if GPU ELPA is slow
    elsi_elpa_gpu 0
  #
  #  Relaxation
  #
  #  relax_geometry trm 1E-3
  #  relax_unit_cell fixed_angles
  #
  #  SCF convergence        #
    charge_mix_param   0.75
    #sc_accuracy_rho 1E-4
  #
  # i-PI communication
  #
  compute_forces .false.
  # use_pimd_wrapper 130.183.223.27 26118
  #communicate_pimd_wrapper polarizability
  #output_level MD_light
  #
  # Output SALTED info
    ri_density_restart write
    ri_rho1 write
    ri_full_output .true.
  #  sc_accuracy_rho    1d-6
    default_prodbas_acc 1e-6
    default_max_l_prodbas 6
  #
  #
  ################################################################################
  #
  #  FHI-aims code project
  #  VB, Fritz-Haber Institut, 2009
  #
  #  Suggested "light" defaults for H atom (to be pasted into control.in file)
  #  Be sure to double-check any results obtained with these settings for post-processing,
  #  e.g., with the "tight" defaults and larger basis sets.
  #
  ################################################################################
    species        H
  #     global species definitions
      nucleus             1
      mass                1.00794
  #
      l_hartree           4
  #
      cut_pot             3.5  1.5  1.0
      basis_dep_cutoff    1e-4
  #
      radial_base         24 5.0
      radial_multiplier   1
      angular_grids       specified
        division   0.2421   50
        division   0.3822  110
        division   0.4799  194
        division   0.5341  302
  #      division   0.5626  434
  #      division   0.5922  590
  #      division   0.6542  770
  #      division   0.6868 1202
  #      outer_grid  770
        outer_grid  302
  ################################################################################
  #
  #  Definition of "minimal" basis
  #
  ################################################################################
  #     valence basis states
      valence      1  s   1.
  #     ion occupancy
      ion_occ      1  s   0.5
  ################################################################################
  #
  #  Suggested additional basis functions. For production calculations,
  #  uncomment them one after another (the most important basis functions are
  #  listed first).
  #
  #  Basis constructed for dimers: 0.5 A, 0.7 A, 1.0 A, 1.5 A, 2.5 A
  #
  ################################################################################
  #  "First tier" - improvements: -1014.90 meV to -62.69 meV
       hydro 2 s 2.1
       hydro 2 p 3.5
  #  "Second tier" - improvements: -12.89 meV to -1.83 meV
  #     hydro 1 s 0.85
  #     hydro 2 p 3.7
  #     hydro 2 s 1.2
  #     hydro 3 d 7
  #  "Third tier" - improvements: -0.25 meV to -0.12 meV
  #     hydro 4 f 11.2
  #     hydro 3 p 4.8
  #     hydro 4 d 9
  #     hydro 3 s 3.2
  ################################################################################
  ################################################################################
  #
  #  FHI-aims code project
  #  VB, Fritz-Haber Institut, 2009
  #
  #  Suggested "light" defaults for C atom (to be pasted into control.in file)
  #  Be sure to double-check any results obtained with these settings for post-processing,
  #  e.g., with the "tight" defaults and larger basis sets.
  #
  ################################################################################
    species        C
  #     global species definitions
      nucleus             6
      mass                12.0107
  #
      l_hartree           4
  #
      cut_pot             3.5  1.5  1.0
      basis_dep_cutoff    1e-4
  #
      radial_base         34 5.0
      radial_multiplier   1
      angular_grids specified
        division   0.3326   50
        division   0.5710  110
        division   0.7727  194
        division   0.8772  302
  #      division   0.9334  434
  #      division   0.9625  590
  #      division   0.9924  770
  #      division   1.0230  974
  #      division   1.4589 1202
  #     outer_grid  974
       outer_grid 302
  ################################################################################
  #
  #  Definition of "minimal" basis
  #
  ################################################################################
  #     valence basis states
      valence      2  s   2.
      valence      2  p   2.
  #     ion occupancy
      ion_occ      2  s   1.
      ion_occ      2  p   1.
  ################################################################################
  #
  #  Suggested additional basis functions. For production calculations,
  #  uncomment them one after another (the most important basis functions are
  #  listed first).
  #
  #  Constructed for dimers: 1.0 A, 1.25 A, 1.5 A, 2.0 A, 3.0 A
  #
  ################################################################################
  #  "First tier" - improvements: -1214.57 meV to -155.61 meV
       hydro 2 p 1.7
       hydro 3 d 6
       hydro 2 s 4.9
  #  "Second tier" - improvements: -67.75 meV to -5.23 meV
  #     hydro 4 f 9.8
  #     hydro 3 p 5.2
  #     hydro 3 s 4.3
  #     hydro 5 g 14.4
  #     hydro 3 d 6.2
  #  "Third tier" - improvements: -2.43 meV to -0.60 meV
  #     hydro 2 p 5.6
  #     hydro 2 s 1.4
  #     hydro 3 d 4.9
  #     hydro 4 f 11.2
  #  "Fourth tier" - improvements: -0.39 meV to -0.18 meV
  #     hydro 2 p 2.1
  #     hydro 5 g 16.4
  #     hydro 4 d 13.2
  #     hydro 3 s 13.6
  #     hydro 4 f 17.6
  #  Further basis functions - improvements: -0.08 meV and below
  #     hydro 3 s 2
  #     hydro 3 p 6
  #     hydro 4 d 20
  
  -----------------------------------------------------------------------
  Completed first pass over input file control.in .
  -----------------------------------------------------------------------
  
  
  -----------------------------------------------------------------------
  Parsing geometry.in (first pass over file, find array dimensions only).
  The contents of geometry.in will be repeated verbatim below
  unless switched off by setting 'verbatim_writeout .false.' .
  in the first line of geometry.in .
  -----------------------------------------------------------------------
  
  #=======================================================
  # FHI-aims file: /ada/ptmp/mpsd/alewis/naphthalene/qmdata/data/geoms/142.in
  # Created using the Atomic Simulation Environment (ASE)
  # Thu Jan 19 15:19:17 2023
  #=======================================================
  lattice_vector 8.1020000000000003 0.0000000000000000 0.0000000000000000
  lattice_vector 0.0000000000000000 11.8800000000000008 0.0000000000000000
  lattice_vector -9.7850918486534706 0.0000000000000000 14.2571119625755713
  atom -0.7582340000000000 0.1054580000000000 2.4136600000000001 C
  atom 0.3090340000000000 3.3076300000000001 4.7688600000000001 C
  atom 4.1494999999999997 5.7491199999999996 4.8565899999999997 C
  atom 3.2853500000000002 2.8326699999999998 2.5671499999999998 C
  atom -0.0416746000000000 0.9326330000000000 1.5940600000000000 C
  atom -0.4549570000000000 4.1736800000000001 5.5317900000000000 C
  atom 3.4339400000000002 4.9022699999999997 5.6613400000000000 C
  atom 4.0053599999999996 1.9255800000000001 1.8055300000000001 C
  atom 0.3017280000000000 0.5676150000000000 0.2742800000000000 C
  atom -0.8876560000000000 3.7927100000000000 6.8260699999999996 C
  atom 3.0353100000000000 5.3060099999999997 6.9584099999999998 C
  atom 4.3785400000000001 2.2050399999999999 0.4618860000000000 C
  atom -3.7736499999999999 1.5348599999999999 6.6354199999999999 C
  atom 3.0908799999999998 4.3596000000000004 0.6727720000000000 C
  atom 7.1665900000000002 4.4605100000000002 0.6671820000000001 C
  atom 0.2931340000000000 1.6223500000000000 6.5136399999999997 C
  atom -3.3230100000000000 1.1654800000000001 5.4033199999999999 C
  atom 2.7482199999999999 4.0218999999999996 1.9608099999999999 C
  atom 6.7995500000000000 4.8841599999999996 1.9305399999999999 C
  atom 0.6777430000000000 2.0262899999999999 5.2375999999999996 C
  atom -1.0400700000000001 0.4745000000000000 3.3810500000000001 H
  atom 0.6362970000000000 3.6192600000000001 3.7507899999999998 H
  atom 4.4816900000000004 5.3953699999999998 3.8425500000000001 H
  atom 3.1082800000000002 2.6001900000000000 3.5856499999999998 H
  atom 0.2649640000000000 1.9311000000000000 1.9823700000000000 H
  atom -0.7443340000000001 5.1374300000000002 5.0857200000000002 H
  atom 3.0672299999999999 3.9252500000000001 5.2667000000000002 H
  atom 4.3982700000000001 0.9962380000000000 2.2255400000000001 H
  atom -3.5504099999999998 2.5218699999999998 7.0176999999999996 H
  atom 2.8242300000000000 5.3315799999999998 0.2383280000000000 H
  atom 6.9283900000000003 3.4428000000000001 0.3365540000000000 H
  atom 0.5610760000000000 0.6715250000000000 6.9701899999999997 H
  atom -2.6458699999999999 1.8371400000000000 4.8534100000000002 H
  atom 2.2262200000000001 4.7549099999999997 2.5792700000000002 H
  atom 6.1881300000000001 4.1949899999999998 2.4964800000000000 H
  atom 1.2880700000000000 1.3961600000000001 4.6134000000000004 H
  atom -5.8441999999999998 0.2450630000000000 9.4697099999999992 C
  atom -4.7806400000000000 2.8687999999999998 12.0525000000000002 C
  atom -0.7819400000000000 5.6836599999999997 11.9614999999999991 C
  atom -1.5997200000000000 2.9635199999999999 9.4461099999999991 C
  atom -4.9922199999999997 1.0554600000000001 8.7272400000000001 C
  atom -5.5407700000000002 3.7661500000000001 12.7863000000000007 C
  atom -1.5712600000000001 4.9115900000000003 12.7531999999999996 C
  atom -0.8454510000000000 2.1255799999999998 8.6390600000000006 C
  atom -4.5880299999999998 0.6916570000000000 7.4327100000000002 C
  atom -5.9115700000000002 3.4555099999999999 14.1247000000000007 C
  atom -1.8982100000000000 5.3301900000000000 14.0671999999999997 C
  atom -0.4912640000000000 2.4981399999999998 7.3209400000000002 C
  atom -8.6880600000000001 1.4347600000000000 13.7058999999999997 C
  atom -1.6547300000000000 4.6310700000000002 7.6771000000000003 C
  atom 2.3054600000000001 4.4080000000000004 7.7901300000000004 C
  atom -4.6711099999999997 1.3260200000000000 13.9117999999999995 C
  atom -8.3838699999999999 1.1001300000000001 12.4273000000000007 C
  atom -2.0178099999999999 4.2210500000000000 8.9640400000000007 C
  atom 1.9038200000000001 4.7926500000000001 9.0611899999999999 C
  atom -4.3846100000000003 1.6458100000000000 12.5983999999999998 C
  atom -6.1771399999999996 0.5752010000000000 10.4710000000000001 H
  atom -4.5091999999999999 3.0826300000000000 11.0274999999999999 H
  atom -0.4535550000000000 5.3319900000000002 10.9781999999999993 H
  atom -1.8088700000000000 2.6799200000000001 10.4962999999999997 H
  atom -4.6471799999999996 2.0213999999999999 9.1155600000000003 H
  atom -5.7700500000000003 4.7584700000000000 12.4185999999999996 H
  atom -1.8931700000000000 3.9233099999999999 12.3940999999999999 H
  atom -0.5468180000000000 1.1112299999999999 8.9839800000000007 H
  atom -8.2975800000000000 2.3815300000000001 14.0831000000000000 H
  atom -2.0440800000000001 5.5866400000000001 7.3287199999999997 H
  atom 2.0799500000000002 3.4104100000000002 7.4432600000000004 H
  atom -4.2827799999999998 0.3773250000000000 14.2763000000000009 H
  atom -7.7805200000000001 1.7394099999999999 11.8321000000000005 H
  atom -2.6734200000000001 4.8837299999999999 9.5202899999999993 H
  atom 1.2438000000000000 4.1089200000000003 9.6638400000000004 H
  atom -3.8020900000000002 0.9625629999999999 11.9830000000000005 H
  atom -0.8878470000000001 6.1641800000000000 2.4348900000000002 C
  atom 0.3125110000000000 9.0675899999999992 4.9803199999999999 C
  atom 4.4074600000000004 11.7505000000000006 4.8825900000000004 C
  atom 3.3492700000000002 8.8208699999999993 2.3159900000000002 C
  atom -0.1349250000000000 6.9875699999999998 1.6463500000000000 C
  atom -0.4856830000000000 9.9018300000000004 5.7472599999999998 C
  atom 3.6511100000000001 10.9186999999999994 5.6436999999999999 C
  atom 4.0688899999999997 7.9310299999999998 1.5341300000000000 C
  atom 0.2094450000000000 6.6143200000000002 0.3023760000000000 C
  atom -0.9126640000000000 9.5448799999999991 7.0485699999999998 C
  atom 3.1715399999999998 11.2803000000000004 6.9450700000000003 C
  atom 4.3847699999999996 8.2646700000000006 0.1973190000000000 C
  atom -3.9828800000000002 7.4374700000000002 6.6004399999999999 C
  atom 3.2017099999999998 10.4111999999999991 0.4869780000000000 C
  atom 7.2694000000000001 10.3436000000000003 0.6136360000000000 C
  atom 0.3218670000000000 7.4021200000000000 6.7668499999999998 C
  atom -3.5815600000000001 7.0248999999999997 5.3312900000000001 C
  atom 2.8863799999999999 10.0602000000000000 1.8004100000000001 C
  atom 6.9738100000000003 10.7569999999999997 1.8816299999999999 C
  atom 0.6977190000000000 7.7978899999999998 5.5143199999999997 C
  atom -1.3043499999999999 6.5353599999999998 3.3620199999999998 H
  atom 0.5565960000000000 9.3722399999999997 3.9278800000000000 H
  atom 4.8146599999999999 11.4169999999999998 3.9398399999999998 H
  atom 3.1231200000000001 8.5786700000000007 3.3479100000000002 H
  atom 0.2084060000000000 7.9766399999999997 2.0220699999999998 H
  atom -0.8291410000000000 10.8431999999999995 5.3192800000000000 H
  atom 3.3987200000000000 9.8974799999999998 5.3436700000000004 H
  atom 4.4260000000000002 6.9635600000000002 1.9579200000000001 H
  atom -3.6558299999999999 8.4019800000000000 6.9665299999999997 H
  atom 2.9894400000000001 11.3892000000000007 0.0544362000000000 H
  atom 7.0295500000000004 9.3350299999999997 0.2561570000000000 H
  atom 0.6227500000000000 6.4268999999999998 7.1190300000000004 H
  atom -2.9507300000000001 7.7166199999999998 4.7748200000000001 H
  atom 2.2841700000000000 10.7691999999999997 2.4216099999999998 H
  atom 6.3625299999999996 10.0397999999999996 2.4532500000000002 H
  atom 1.2567699999999999 7.1128400000000003 4.8862300000000003 H
  atom -5.7996900000000000 6.0422399999999996 9.5722199999999997 C
  atom -4.7454400000000003 9.0284700000000004 11.8093000000000004 C
  atom -0.7281140000000000 11.7242999999999995 11.9192000000000000 C
  atom -1.7381700000000000 8.7370599999999996 9.5743799999999997 C
  atom -5.0600399999999999 6.9063299999999996 8.7873500000000000 C
  atom -5.4522599999999999 9.8750599999999995 12.6361000000000008 C
  atom -1.4437000000000000 10.8354999999999997 12.6944999999999997 C
  atom -0.9222650000000000 7.9073399999999996 8.8345000000000002 C
  atom -4.6733799999999999 6.5568099999999996 7.4741900000000001 C
  atom -5.7773899999999996 9.5288699999999995 13.9711999999999996 C
  atom -1.7763100000000001 11.1920999999999999 13.9945000000000004 C
  atom -0.4807510000000000 8.2566799999999994 7.5535100000000002 C
  atom -8.8064999999999998 7.4070299999999998 13.6776000000000000 C
  atom -1.7050300000000000 10.4129000000000005 7.8369999999999997 C
  atom 2.3558400000000002 10.4159000000000006 7.7192100000000003 C
  atom -4.6702100000000000 7.3783599999999998 13.5876999999999999 C
  atom -8.4336500000000001 6.9507700000000003 12.4247999999999994 C
  atom -2.1400500000000000 10.0191999999999997 9.0859600000000000 C
  atom 1.8877400000000000 10.8359000000000005 8.9673200000000008 C
  atom -4.3360900000000004 7.7428200000000000 12.3007000000000009 C
  atom -6.1116200000000003 6.3369700000000000 10.5751000000000008 H
  atom -4.5561299999999996 9.3577300000000001 10.7734000000000005 H
  atom -0.5615570000000000 11.4962000000000000 10.8572000000000006 H
  atom -2.0272299999999999 8.3715499999999992 10.5416000000000007 H
  atom -4.8103300000000004 7.9031500000000001 9.2206100000000006 H
  atom -5.7286200000000003 10.8697999999999997 12.2470999999999997 H
  atom -1.8071900000000001 9.9088700000000003 12.2475000000000005 H
  atom -0.5566480000000000 6.9989800000000004 9.2942900000000002 H
  atom -8.4795900000000000 8.3848199999999995 14.0533999999999999 H
  atom -2.0129000000000001 11.3737999999999992 7.4226400000000003 H
  atom 2.0394700000000001 9.4855300000000007 7.2773599999999998 H
  atom -4.3748300000000002 6.4298799999999998 13.9983000000000004 H
  atom -7.7272499999999997 7.5147599999999999 11.8132999999999999 H
  atom -2.8190599999999999 10.5940999999999992 9.7007499999999993 H
  atom 1.1579800000000000 10.1745999999999999 9.5105500000000003 H
  atom -3.8167800000000001 7.0247599999999997 11.6438000000000006 H
  
  -----------------------------------------------------------------------
  Completed first pass over input file geometry.in .
  -----------------------------------------------------------------------
  

  Basic array size parameters:
  | Number of species                 :        2
  | Number of atoms                   :      144
  | Number of lattice vectors         :        3
  | Max. basis fn. angular momentum   :        2
  | Max. atomic/ionic basis occupied n:        2
  | Max. number of basis fn. types    :        2
  | Max. radial fns per species/type  :        3
  | Max. logarithmic grid size        :     1277
  | Max. radial integration grid size :       34
  | Max. angular integration grid size:      302
  | Max. angular grid division number :        8
  | Radial grid for Hartree potential :     1277
  | Number of spin channels           :        1

------------------------------------------------------------
          Reading file control.in.
------------------------------------------------------------
  XC: Using Perdew-Wang parametrisation of Ceperley-Alder LDA.
  Spin treatment: No spin polarisation.
  Non-relativistic treatment of kinetic energy.
  Charge =   0.000000E+00: Neutral system requested explicitly.
  Found k-point grid:         2         1         1
  DFPT calculation will begin after the DFT/HF calculation.
  Charge density mixing - mixing parameter:     0.7500
  Forces will not be computed.
 
  Reading configuration options for species H                   .
  | Found nuclear charge :   1.0000
  | Found atomic mass :    1.00794000000000      amu
  | Found l_max for Hartree potential  :   4
  | Found cutoff potl. onset [A], width [A], scale factor :    3.50000    1.50000    1.00000
  | Threshold for basis-dependent cutoff potential is   0.100000E-03
  | Found data for basic radial integration grid :    24 points, outermost radius =    5.000 A
  | Found multiplier for basic radial grid :   1
  | Found angular grid specification: user-specified.
  | Specified grid contains     5 separate shells.
  | Check grid settings after all constraints further below.
  | Found free-atom valence shell :  1 s   1.000
  | No ionic wave fns used. Skipping ion_occ.
  | Found hydrogenic basis function :  2 s   2.100
  | Found hydrogenic basis function :  2 p   3.500
  Species H                   : Missing cutoff potential type.
  Defaulting to exp(1/x)/(1-x)^2 type cutoff potential.
  Species H : No 'logarithmic' tag. Using default grid for free atom:
  | Default logarithmic grid data [bohr] : 0.1000E-03 0.1000E+03 0.1012E+01
  Species H : On-site basis accuracy parameter (for Gram-Schmidt orthonormalisation) not specified.
  Using default value basis_acc =  0.1000000E-03.
  Species H                   : Using default innermost maximum threshold i_radial=  2 for radial functions.
  Species H                   : Default cutoff onset for free atom density etc. : 0.35000000E+01 AA.
  Species H                   : Basic radial grid will be enhanced according to radial_multiplier =   1, to contain    24 grid points.
 
  Reading configuration options for species C                   .
  | Found nuclear charge :   6.0000
  | Found atomic mass :    12.0107000000000      amu
  | Found l_max for Hartree potential  :   4
  | Found cutoff potl. onset [A], width [A], scale factor :    3.50000    1.50000    1.00000
  | Threshold for basis-dependent cutoff potential is   0.100000E-03
  | Found data for basic radial integration grid :    34 points, outermost radius =    5.000 A
  | Found multiplier for basic radial grid :   1
  | Found angular grid specification: user-specified.
  | Specified grid contains     5 separate shells.
  | Check grid settings after all constraints further below.
  | Found free-atom valence shell :  2 s   2.000
  | Found free-atom valence shell :  2 p   2.000
  | No ionic wave fns used. Skipping ion_occ.
  | No ionic wave fns used. Skipping ion_occ.
  | Found hydrogenic basis function :  2 p   1.700
  | Found hydrogenic basis function :  3 d   6.000
  | Found hydrogenic basis function :  2 s   4.900
  Species C                   : Missing cutoff potential type.
  Defaulting to exp(1/x)/(1-x)^2 type cutoff potential.
  Species C : No 'logarithmic' tag. Using default grid for free atom:
  | Default logarithmic grid data [bohr] : 0.1000E-03 0.1000E+03 0.1012E+01
  Species C : On-site basis accuracy parameter (for Gram-Schmidt orthonormalisation) not specified.
  Using default value basis_acc =  0.1000000E-03.
  Species C                   : Using default innermost maximum threshold i_radial=  2 for radial functions.
  Species C                   : Default cutoff onset for free atom density etc. : 0.35000000E+01 AA.
  Species C                   : Basic radial grid will be enhanced according to radial_multiplier =   1, to contain    34 grid points.
 
  Finished reading input file 'control.in'.
 
------------------------------------------------------------


------------------------------------------------------------
          Reading geometry description geometry.in.
------------------------------------------------------------
  | The smallest distance between any two atoms is         1.05959567 AA.
  | The first atom of this pair is atom number                      4 .
  | The second atom of this pair is atom number                    24 .
  | Wigner-Seitz cell of the first atom image           0     0     0 .
  | (The Wigner-Seitz cell of the second atom is 0 0 0  by definition.)

  Symmetry information by spglib:
  | Precision set to  0.1E-04
  | Number of Operations  : 1
  | Space group           : 1
  | International         : P1
  | Schoenflies           : C1^1
  Input structure read successfully.
  The structure contains      144 atoms,  and a total of        544.000 electrons.

  Input geometry:
  | Unit cell:
  |        8.10200000        0.00000000        0.00000000
  |        0.00000000       11.88000000        0.00000000
  |       -9.78509185        0.00000000       14.25711196
  | Atomic structure:
  |       Atom                x [A]            y [A]            z [A]
  |    1: Species C            -0.75823400        0.10545800        2.41366000
  |    2: Species C             0.30903400        3.30763000        4.76886000
  |    3: Species C             4.14950000        5.74912000        4.85659000
  |    4: Species C             3.28535000        2.83267000        2.56715000
  |    5: Species C            -0.04167460        0.93263300        1.59406000
  |    6: Species C            -0.45495700        4.17368000        5.53179000
  |    7: Species C             3.43394000        4.90227000        5.66134000
  |    8: Species C             4.00536000        1.92558000        1.80553000
  |    9: Species C             0.30172800        0.56761500        0.27428000
  |   10: Species C            -0.88765600        3.79271000        6.82607000
  |   11: Species C             3.03531000        5.30601000        6.95841000
  |   12: Species C             4.37854000        2.20504000        0.46188600
  |   13: Species C            -3.77365000        1.53486000        6.63542000
  |   14: Species C             3.09088000        4.35960000        0.67277200
  |   15: Species C             7.16659000        4.46051000        0.66718200
  |   16: Species C             0.29313400        1.62235000        6.51364000
  |   17: Species C            -3.32301000        1.16548000        5.40332000
  |   18: Species C             2.74822000        4.02190000        1.96081000
  |   19: Species C             6.79955000        4.88416000        1.93054000
  |   20: Species C             0.67774300        2.02629000        5.23760000
  |   21: Species H            -1.04007000        0.47450000        3.38105000
  |   22: Species H             0.63629700        3.61926000        3.75079000
  |   23: Species H             4.48169000        5.39537000        3.84255000
  |   24: Species H             3.10828000        2.60019000        3.58565000
  |   25: Species H             0.26496400        1.93110000        1.98237000
  |   26: Species H            -0.74433400        5.13743000        5.08572000
  |   27: Species H             3.06723000        3.92525000        5.26670000
  |   28: Species H             4.39827000        0.99623800        2.22554000
  |   29: Species H            -3.55041000        2.52187000        7.01770000
  |   30: Species H             2.82423000        5.33158000        0.23832800
  |   31: Species H             6.92839000        3.44280000        0.33655400
  |   32: Species H             0.56107600        0.67152500        6.97019000
  |   33: Species H            -2.64587000        1.83714000        4.85341000
  |   34: Species H             2.22622000        4.75491000        2.57927000
  |   35: Species H             6.18813000        4.19499000        2.49648000
  |   36: Species H             1.28807000        1.39616000        4.61340000
  |   37: Species C            -5.84420000        0.24506300        9.46971000
  |   38: Species C            -4.78064000        2.86880000       12.05250000
  |   39: Species C            -0.78194000        5.68366000       11.96150000
  |   40: Species C            -1.59972000        2.96352000        9.44611000
  |   41: Species C            -4.99222000        1.05546000        8.72724000
  |   42: Species C            -5.54077000        3.76615000       12.78630000
  |   43: Species C            -1.57126000        4.91159000       12.75320000
  |   44: Species C            -0.84545100        2.12558000        8.63906000
  |   45: Species C            -4.58803000        0.69165700        7.43271000
  |   46: Species C            -5.91157000        3.45551000       14.12470000
  |   47: Species C            -1.89821000        5.33019000       14.06720000
  |   48: Species C            -0.49126400        2.49814000        7.32094000
  |   49: Species C            -8.68806000        1.43476000       13.70590000
  |   50: Species C            -1.65473000        4.63107000        7.67710000
  |   51: Species C             2.30546000        4.40800000        7.79013000
  |   52: Species C            -4.67111000        1.32602000       13.91180000
  |   53: Species C            -8.38387000        1.10013000       12.42730000
  |   54: Species C            -2.01781000        4.22105000        8.96404000
  |   55: Species C             1.90382000        4.79265000        9.06119000
  |   56: Species C            -4.38461000        1.64581000       12.59840000
  |   57: Species H            -6.17714000        0.57520100       10.47100000
  |   58: Species H            -4.50920000        3.08263000       11.02750000
  |   59: Species H            -0.45355500        5.33199000       10.97820000
  |   60: Species H            -1.80887000        2.67992000       10.49630000
  |   61: Species H            -4.64718000        2.02140000        9.11556000
  |   62: Species H            -5.77005000        4.75847000       12.41860000
  |   63: Species H            -1.89317000        3.92331000       12.39410000
  |   64: Species H            -0.54681800        1.11123000        8.98398000
  |   65: Species H            -8.29758000        2.38153000       14.08310000
  |   66: Species H            -2.04408000        5.58664000        7.32872000
  |   67: Species H             2.07995000        3.41041000        7.44326000
  |   68: Species H            -4.28278000        0.37732500       14.27630000
  |   69: Species H            -7.78052000        1.73941000       11.83210000
  |   70: Species H            -2.67342000        4.88373000        9.52029000
  |   71: Species H             1.24380000        4.10892000        9.66384000
  |   72: Species H            -3.80209000        0.96256300       11.98300000
  |   73: Species C            -0.88784700        6.16418000        2.43489000
  |   74: Species C             0.31251100        9.06759000        4.98032000
  |   75: Species C             4.40746000       11.75050000        4.88259000
  |   76: Species C             3.34927000        8.82087000        2.31599000
  |   77: Species C            -0.13492500        6.98757000        1.64635000
  |   78: Species C            -0.48568300        9.90183000        5.74726000
  |   79: Species C             3.65111000       10.91870000        5.64370000
  |   80: Species C             4.06889000        7.93103000        1.53413000
  |   81: Species C             0.20944500        6.61432000        0.30237600
  |   82: Species C            -0.91266400        9.54488000        7.04857000
  |   83: Species C             3.17154000       11.28030000        6.94507000
  |   84: Species C             4.38477000        8.26467000        0.19731900
  |   85: Species C            -3.98288000        7.43747000        6.60044000
  |   86: Species C             3.20171000       10.41120000        0.48697800
  |   87: Species C             7.26940000       10.34360000        0.61363600
  |   88: Species C             0.32186700        7.40212000        6.76685000
  |   89: Species C            -3.58156000        7.02490000        5.33129000
  |   90: Species C             2.88638000       10.06020000        1.80041000
  |   91: Species C             6.97381000       10.75700000        1.88163000
  |   92: Species C             0.69771900        7.79789000        5.51432000
  |   93: Species H            -1.30435000        6.53536000        3.36202000
  |   94: Species H             0.55659600        9.37224000        3.92788000
  |   95: Species H             4.81466000       11.41700000        3.93984000
  |   96: Species H             3.12312000        8.57867000        3.34791000
  |   97: Species H             0.20840600        7.97664000        2.02207000
  |   98: Species H            -0.82914100       10.84320000        5.31928000
  |   99: Species H             3.39872000        9.89748000        5.34367000
  |  100: Species H             4.42600000        6.96356000        1.95792000
  |  101: Species H            -3.65583000        8.40198000        6.96653000
  |  102: Species H             2.98944000       11.38920000        0.05443620
  |  103: Species H             7.02955000        9.33503000        0.25615700
  |  104: Species H             0.62275000        6.42690000        7.11903000
  |  105: Species H            -2.95073000        7.71662000        4.77482000
  |  106: Species H             2.28417000       10.76920000        2.42161000
  |  107: Species H             6.36253000       10.03980000        2.45325000
  |  108: Species H             1.25677000        7.11284000        4.88623000
  |  109: Species C            -5.79969000        6.04224000        9.57222000
  |  110: Species C            -4.74544000        9.02847000       11.80930000
  |  111: Species C            -0.72811400       11.72430000       11.91920000
  |  112: Species C            -1.73817000        8.73706000        9.57438000
  |  113: Species C            -5.06004000        6.90633000        8.78735000
  |  114: Species C            -5.45226000        9.87506000       12.63610000
  |  115: Species C            -1.44370000       10.83550000       12.69450000
  |  116: Species C            -0.92226500        7.90734000        8.83450000
  |  117: Species C            -4.67338000        6.55681000        7.47419000
  |  118: Species C            -5.77739000        9.52887000       13.97120000
  |  119: Species C            -1.77631000       11.19210000       13.99450000
  |  120: Species C            -0.48075100        8.25668000        7.55351000
  |  121: Species C            -8.80650000        7.40703000       13.67760000
  |  122: Species C            -1.70503000       10.41290000        7.83700000
  |  123: Species C             2.35584000       10.41590000        7.71921000
  |  124: Species C            -4.67021000        7.37836000       13.58770000
  |  125: Species C            -8.43365000        6.95077000       12.42480000
  |  126: Species C            -2.14005000       10.01920000        9.08596000
  |  127: Species C             1.88774000       10.83590000        8.96732000
  |  128: Species C            -4.33609000        7.74282000       12.30070000
  |  129: Species H            -6.11162000        6.33697000       10.57510000
  |  130: Species H            -4.55613000        9.35773000       10.77340000
  |  131: Species H            -0.56155700       11.49620000       10.85720000
  |  132: Species H            -2.02723000        8.37155000       10.54160000
  |  133: Species H            -4.81033000        7.90315000        9.22061000
  |  134: Species H            -5.72862000       10.86980000       12.24710000
  |  135: Species H            -1.80719000        9.90887000       12.24750000
  |  136: Species H            -0.55664800        6.99898000        9.29429000
  |  137: Species H            -8.47959000        8.38482000       14.05340000
  |  138: Species H            -2.01290000       11.37380000        7.42264000
  |  139: Species H             2.03947000        9.48553000        7.27736000
  |  140: Species H            -4.37483000        6.42988000       13.99830000
  |  141: Species H            -7.72725000        7.51476000       11.81330000
  |  142: Species H            -2.81906000       10.59410000        9.70075000
  |  143: Species H             1.15798000       10.17460000        9.51055000
  |  144: Species H            -3.81678000        7.02476000       11.64380000

  Lattice parameters for 3D lattice (in Angstroms) :     8.102000   11.880000   17.292000
  Angle(s) between unit vectors (in degrees)       :    90.000000  124.463000   90.000000


  Quantities derived from the lattice vectors (in Angstrom^-1):
  | Reciprocal lattice vector 1:  0.775510  0.000000  0.532257
  | Reciprocal lattice vector 2:  0.000000  0.528888  0.000000
  | Reciprocal lattice vector 3: -0.000000  0.000000  0.440705
  | Unit cell volume                               :   0.137227E+04  Angstrom^3

  Fractional coordinates:
                         L1                L2                L3
       atom_frac         0.11087814        0.00887694        0.16929516  C
       atom_frac         0.44211904        0.27842003        0.33448990  C
       atom_frac         0.92356532        0.48393266        0.34064332  C
       atom_frac         0.62296514        0.23844024        0.18006101  C
       atom_frac         0.12989108        0.07850446        0.11180806  C
       atom_frac         0.41245120        0.35131987        0.38800214  C
       atom_frac         0.90341777        0.41264899        0.39708884  C
       atom_frac         0.64731553        0.16208586        0.12664066  C
       atom_frac         0.06047578        0.04777904        0.01923812  C
       atom_frac         0.46868484        0.31925168        0.47878350  C
       atom_frac         0.96409276        0.44663384        0.48806589  C
       atom_frac         0.57955400        0.18560943        0.03239688  C
       atom_frac         0.09632703        0.12919697        0.46541123  C
       atom_frac         0.43848729        0.36696970        0.04718852  C
       atom_frac         0.94106361        0.37546380        0.04679643  C
       atom_frac         0.58795906        0.13656145        0.45686953  C
       atom_frac         0.04757513        0.09810438        0.37899120  C
       atom_frac         0.50530534        0.33854377        0.13753206  C
       atom_frac         1.00278186        0.41112458        0.13540891  C
       atom_frac         0.52733498        0.17056313        0.36736753  C
       atom_frac         0.15804098        0.03994108        0.23714831  H
       atom_frac         0.39626992        0.30465152        0.26308203  H
       atom_frac         0.87866571        0.45415572        0.26951812  H
       atom_frac         0.68738845        0.21887121        0.25149904  H
       atom_frac         0.20063258        0.16255051        0.13904429  H
       atom_frac         0.33894731        0.43244360        0.35671460  H
       atom_frac         0.82472565        0.33040825        0.36940862  H
       atom_frac         0.73139054        0.08385842        0.15610034  H
       atom_frac         0.15626414        0.21227862        0.49222451  H
       atom_frac         0.36877336        0.44878620        0.01671643  H
       atom_frac         0.88365555        0.28979798        0.02360604  H
       atom_frac         0.65970507        0.05652567        0.48889214  H
       atom_frac         0.08456846        0.15464141        0.34042028  H
       atom_frac         0.49326732        0.40024495        0.18091111  H
       atom_frac         0.97525803        0.35311364        0.17510419  H
       atom_frac         0.54978863        0.11752189        0.32358587  H
       atom_frac         0.08086294        0.02062820        0.66420956  C
       atom_frac         0.43092561        0.24148148        0.84536756  C
       atom_frac         0.91676168        0.47842256        0.83898478  C
       atom_frac         0.60274427        0.24945455        0.66255424  C
       atom_frac         0.12312412        0.08884343        0.61213239  C
       atom_frac         0.39926668        0.31701599        0.89683661  C
       atom_frac         0.88640473        0.41343350        0.89451496  C
       atom_frac         0.62747470        0.17892088        0.60594741  C
       atom_frac         0.06335055        0.05822029        0.52133349  C
       atom_frac         0.46687774        0.29086785        0.99071257  C
       atom_frac         0.95736108        0.44866919        0.98667949  C
       atom_frac         0.55953110        0.21028114        0.51349390  C
       atom_frac         0.08870874        0.12077104        0.96133775  C
       atom_frac         0.44609954        0.38982071        0.53847511  C
       atom_frac         0.94446611        0.37104377        0.54640309  C
       atom_frac         0.60194812        0.11161785        0.97577967  C
       atom_frac         0.01794198        0.09260354        0.87165620  C
       atom_frac         0.51030421        0.35530724        0.62874164  C
       atom_frac         1.00256625        0.40342172        0.63555579  C
       atom_frac         0.52605000        0.13853620        0.88365723  C
       atom_frac         0.12458991        0.04841759        0.73444047  H
       atom_frac         0.37759941        0.25948064        0.77347362  H
       atom_frac         0.87399646        0.44882071        0.77001570  H
       atom_frac         0.66589257        0.22558249        0.73621502  H
       atom_frac         0.19860621        0.17015152        0.63936932  H
       atom_frac         0.33981917        0.40054461        0.87104598  H
       atom_frac         0.81625275        0.33024495        0.86932754  H
       atom_frac         0.69355248        0.09353788        0.63014024  H
       atom_frac         0.16885733        0.20046549        0.98779473  H
       atom_frac         0.36853180        0.47025589        0.51403959  H
       atom_frac         0.88724845        0.28707155        0.52207348  H
       atom_frac         0.68075552        0.03176136        1.00134586  H
       atom_frac         0.04199111        0.14641498        0.82990861  H
       atom_frac         0.47650532        0.41108838        0.66775726  H
       atom_frac         0.97215365        0.34586869        0.67782592  H
       atom_frac         0.54581699        0.08102382        0.84049280  H
       atom_frac         0.09667890        0.51887037        0.17078424  C
       atom_frac         0.46046123        0.76326515        0.34932180  C
       atom_frac         0.95760686        0.98909933        0.34246697  C
       atom_frac         0.60957847        0.74249747        0.16244454  C
       atom_frac         0.12281108        0.58817929        0.11547570  C
       atom_frac         0.42691154        0.83348737        0.40311530  C
       atom_frac         0.92872795        0.91908249        0.39585156  C
       atom_frac         0.63216617        0.66759512        0.10760454  C
       atom_frac         0.05146567        0.55676094        0.02120878  C
       atom_frac         0.48444645        0.80344108        0.49438975  C
       atom_frac         0.97977708        0.94952020        0.48713021  C
       atom_frac         0.55791114        0.69567929        0.01384004  C
       atom_frac         0.06753935        0.62604966        0.46295772  C
       atom_frac         0.43642778        0.87636364        0.03415685  C
       atom_frac         0.94921713        0.87067340        0.04304069  C
       atom_frac         0.61295520        0.62307407        0.47462979  C
       atom_frac         0.00956151        0.59132155        0.37393899  C
       atom_frac         0.50877023        0.84681818        0.12628154  C
       atom_frac         1.02014690        0.90547138        0.13197834  C
       atom_frac         0.55324184        0.65638805        0.38677679  C
       atom_frac         0.12380981        0.55011448        0.23581354  H
       atom_frac         0.40143423        0.78890909        0.27550320  H
       atom_frac         0.92800452        0.96102694        0.27634208  H
       atom_frac         0.66908084        0.72211027        0.23482386  H
       atom_frac         0.19701487        0.67143434        0.14182886  H
       atom_frac         0.34826506        0.91272727        0.37309660  H
       atom_frac         0.87216047        0.83312121        0.37480733  H
       atom_frac         0.71214273        0.58615825        0.13732936  H
       atom_frac         0.13891786        0.70723737        0.48863543  H
       atom_frac         0.37358692        0.95868687        0.00381818  H
       atom_frac         0.88933083        0.78577694        0.01796696  H
       atom_frac         0.67992569        0.54098485        0.49933184  H
       atom_frac         0.04028326        0.64954714        0.33490794  H
       atom_frac         0.48706430        0.90649832        0.16985277  H
       atom_frac         0.99312151        0.84510101        0.17207202  H
       atom_frac         0.56903716        0.59872391        0.34272229  H
       atom_frac         0.09504039        0.50860606        0.67139965  C
       atom_frac         0.41466843        0.75997222        0.82830941  C
       atom_frac         0.91982194        0.98689394        0.83601784  C
       atom_frac         0.59652181        0.73544276        0.67155115  C
       atom_frac         0.11984534        0.58134091        0.61634853  C
       atom_frac         0.39746751        0.83123401        0.88630152  C
       atom_frac         0.89717644        0.91207912        0.89039772  C
       atom_frac         0.63454980        0.66560101        0.61965565  C
       atom_frac         0.05632993        0.55192003        0.52424292  C
       atom_frac         0.47043591        0.80209343        0.97994601  C
       atom_frac         0.96624824        0.94209596        0.98158028  C
       atom_frac         0.58052998        0.69500673        0.52980646  C
       atom_frac         0.07169280        0.62348737        0.95935278  C
       atom_frac         0.45343652        0.87650673        0.54969057  C
       atom_frac         0.94467660        0.87675926        0.54142873  C
       atom_frac         0.57460429        0.62107407        0.95304716  C
       atom_frac         0.01158604        0.58508165        0.87148085  C
       atom_frac         0.50554458        0.84336700        0.63729316  C
       atom_frac         0.99262971        0.91211279        0.62897170  C
       atom_frac         0.50682011        0.65175253        0.86277642  C
       atom_frac         0.14149524        0.53341498        0.74174209  H
       atom_frac         0.35028188        0.78768771        0.75565094  H
       atom_frac         0.85041611        0.96769360        0.76152870  H
       atom_frac         0.64277862        0.70467593        0.73939238  H
       atom_frac         0.18736813        0.66524832        0.64673757  H
       atom_frac         0.33040474        0.91496633        0.85901689  H
       atom_frac         0.81444627        0.83407997        0.85904495  H
       atom_frac         0.71862594        0.58913973        0.65190552  H
       atom_frac         0.14387659        0.70579293        0.98571155  H
       atom_frac         0.38033631        0.95739057        0.52062718  H
       atom_frac         0.86819855        0.79844529        0.51043718  H
       atom_frac         0.64584439        0.54123569        0.98184682  H
       atom_frac         0.04697346        0.63255556        0.82858997  H
       atom_frac         0.47381651        0.89175926        0.68041480  H
       atom_frac         0.94857581        0.85644781        0.66707409  H
       atom_frac         0.51526980        0.59130976        0.81670117  H

 
  Finished reading input file 'geometry.in'.
 

 
  Consistency checks for stacksize environment parameter are next.
 
  | Maximum stacksize for task 0: unlimited
  | Maximum stacksize for task 1: unlimited
  | Maximum stacksize for task 2: unlimited
  | Maximum stacksize for task 3: unlimited
  | Maximum stacksize for task 4: unlimited
  | Maximum stacksize for task 5: unlimited
  | Maximum stacksize for task 6: unlimited
  | Maximum stacksize for task 7: unlimited
  | Maximum stacksize for task 8: unlimited
  | Maximum stacksize for task 9: unlimited
  | Maximum stacksize for task 10: unlimited
  | Maximum stacksize for task 11: unlimited
  | Maximum stacksize for task 12: unlimited
  | Maximum stacksize for task 13: unlimited
  | Maximum stacksize for task 14: unlimited
  | Maximum stacksize for task 15: unlimited
  | Maximum stacksize for task 16: unlimited
  | Maximum stacksize for task 17: unlimited
  | Current stacksize for task 0: unlimited
  | Current stacksize for task 1: unlimited
  | Current stacksize for task 2: unlimited
  | Current stacksize for task 3: unlimited
  | Current stacksize for task 4: unlimited
  | Current stacksize for task 5: unlimited
  | Current stacksize for task 6: unlimited
  | Current stacksize for task 7: unlimited
  | Current stacksize for task 8: unlimited
  | Current stacksize for task 9: unlimited
  | Current stacksize for task 10: unlimited
  | Current stacksize for task 11: unlimited
  | Current stacksize for task 12: unlimited
  | Current stacksize for task 13: unlimited
  | Current stacksize for task 14: unlimited
  | Current stacksize for task 15: unlimited
  | Current stacksize for task 16: unlimited
  | Current stacksize for task 17: unlimited
 
  Consistency checks for the contents of control.in are next.
 
  MPI_IN_PLACE appears to work with this MPI implementation.
  | Keeping use_mpi_in_place .true. (see manual).
  Explicit treatment of the Coulomb operator is needed, but the RI method is not specified.
  Coulomb operator: Defaulting to 'LVL fast' resolution of identity - RI_type = LVL_fast
  Species H: Using default value for prodbas_acc =   1.000000E-06.
  Species H: Using default value max_l_prodbas =     6.
  Species C: Using default value for prodbas_acc =   1.000000E-06.
  Species C: Using default value max_l_prodbas =     6.
  Target number of points in a grid batch is not set.  Since GPU acceleration is enabled, defaulting to  200
  Method for grid partitioning is not set. Defaulting to parallel hash+maxmin partitioning.
  Batch size limit is not set. Defaulting to    200
  By default, will store active basis functions for each batch.
  If in need of memory, prune_basis_once .false. can be used to disable this option.
  communication_type for Hartree potential was not specified.
  Defaulting to calc_hartree .
  Defaulting to Pulay charge density mixer.
  Pulay mixer: Number of relevant iterations not set.
  Defaulting to    8 iterations.
  Pulay mixer: Number of initial linear mixing iterations not set.
  Defaulting to    0 iterations.
  Work space size for distributed Hartree potential not set.
  Defaulting to   0.200000E+03 MB.
  Algorithm-dependent basis array size parameters:
  | n_max_pulay                         :        8
  Maximum number of self-consistency iterations not provided.
  Presetting  1000 iterations.
  Presetting      1001 iterations before the initial mixing cycle
  is restarted anyway using the sc_init_iter criterion / keyword.
  Presetting a factor      1.000 between actual scf density residual
  and density convergence criterion sc_accuracy_rho below which sc_init_iter
  takes no effect.
 * No s.c.f. convergence criteria (sc_accuracy_*) were provided in control.in.
 * The run will proceed with a reasonable default guess, but please check whether.
 * the s.c.f. cycles seem to take too much or too little time.
  Geometry relaxation not requested: no relaxation will be performed.
 * Notice: The s.c.f. convergence criterion sc_accuracy_rho was not provided.
 * We used to stop in this case, and ask the user to provide reasonable
 * scf convergence criteria. However, this led some users to employ criteria
 * that led to extremely long run times, e.g., for simple relaxation.
 * We now preset a default value for sc_accuracy_rho if it is not set.
 * You may still wish to check if this setting is too tight or too loose for your needs.
 * Based on n_atoms and forces and force-correction status, FHI-aims chose sc_accuracy_rho =  0.391918E-04 .
  No accuracy limit for integral partition fn. given. Defaulting to  0.1000E-14.
  No threshold value for u(r) in integrations given. Defaulting to  0.1000E-05.
  No occupation type (smearing scheme) given. Defaulting to Gaussian broadening, width =  0.1000E-01 eV.
  The width will be adjusted in iteration number     2 of the first full s.c.f. cycle only.
  S.C.F. convergence parameters will be adjusted in iteration number     2 of the first full s.c.f. cycle only.
  No accuracy for occupation numbers given. Defaulting to  0.1000E-12.
  No threshold value for occupation numbers given. Defaulting to  0.0000E+00.
  No accuracy for fermi level given. Defaulting to  0.1000E-19.
  Maximum # of iterations to find E_F not set. Defaulting to  200.
  Preferred method for the eigenvalue solver ('KS_method') not specified in 'control.in'.
  Calling BLACS routine to test compilation state
  Since ScaLAPACK support is enabled, defaulting to ELPA (via ELSI).
  Will not use alltoall communication since running on < 1024 CPUs.
  Threshold for basis singularities not set.
  Default threshold for basis singularities:  0.1000E-04
  partition_type (choice of integration weights) for integrals was not specified.
  | Using a version of the partition function of Stratmann and coworkers ('stratmann_sparse').
  | At each grid point, the set of atoms used to build the partition table is smoothly restricted to
  | only those atoms whose free-atom density would be non-zero at that grid point.
  Partitioning for Hartree potential was not defined. Using partition_type for integrals.
  | Adjusted default value of keyword multip_moments_threshold to:       0.10000000E-11
  | This value may affect high angular momentum components of the Hartree potential in periodic systems.
  Angular momentum expansion for Kerker preconditioner not set explicitly.
  | Using default value of   0
  No explicit requirement for turning off preconditioner.
  | By default, it will be turned off when the charge convergence reaches
  | sc_accuracy_rho  =   0.391918E-04
  No special mixing parameter while Kerker preconditioner is on.
  Using default: charge_mix_param =     0.7500.
  Threshold for auxiliary basis singularities not set.
  Default threshold for auxiliary basis singularities:  0.1000E-04
  No q(lm)/r^(l+1) cutoff set for long-range Hartree potential.
  | Using default value of  0.100000E-09 .
  | Verify using the multipole_threshold keyword.
  Defaulting to new monopole extrapolation.
  Density update method: automatic selection selected.
  Using density matrix based charge density update.
  Using density matrix based charge density update.
  Using packed matrix style: index .
  Defaulting to use time-reversal symmetry for k-point grid.
  Charge integration errors on the 3D integration grid will be compensated
  by explicit normalization and distribution of residual charges.
  Use the "compensate_multipole_errors" flag to change this behaviour.
  Default to 1D ("use_logsbt") integrations for auxiliary 2-center integrals.
  Default onset of logarithmic r-grid for SBT is -38.000000000000
  Default onset of logarithmic k-grid for SBT is -25.000000000000
  Default range of logarithmic r- and k-grid for SBT is  45.000000000000
  Default number of logarithmic r- and k-grid for SBT is   4096
  Default of use_2d_corr is to use the efficient 2D distribution where possible
 
  Consistency checks for the contents of geometry.in are next.
 

  Range separation radius for Ewald summation (hartree_convergence_parameter):      2.91768261 bohr.
  Number of empty states per atom not set in control.in .
  | Since you are using a method that relies on the unoccupied spectrum
  | (MP2,GW,RPA et al.), will use the full Hamiltonian size (see below)
  | as the max. possible number of states (occupied plus empty).

  Structure-dependent array size parameters: 
  | Maximum number of distinct radial functions  :        9
  | Maximum number of basis functions            :     1440
  | Number of Kohn-Sham states (occupied + empty):     1440
------------------------------------------------------------
CUDA runtime version: 11060
CUDA driver version: 11060
  Initializing GPUs...

  Number of GPUs available to MPI task         0 :   1
  Number of GPUs available to MPI task         1 :   1
  Number of GPUs available to MPI task         2 :   1
  Number of GPUs available to MPI task         3 :   1
  Number of GPUs available to MPI task         4 :   1
  Number of GPUs available to MPI task         5 :   1
  Number of GPUs available to MPI task         6 :   1
  Number of GPUs available to MPI task         7 :   1
  Number of GPUs available to MPI task         8 :   1
  Number of GPUs available to MPI task         9 :   1
  Number of GPUs available to MPI task        10 :   1
  Number of GPUs available to MPI task        11 :   1
  Number of GPUs available to MPI task        12 :   1
  Number of GPUs available to MPI task        13 :   1
  Number of GPUs available to MPI task        14 :   1
  Number of GPUs available to MPI task        15 :   1
  Number of GPUs available to MPI task        16 :   1
  Number of GPUs available to MPI task        17 :   1

  | MPI task         0, GPU activated = T, Device Name = NVIDIA A100-SXM4-80GB
  | MPI task         1, GPU activated = T, Device Name = NVIDIA A100-SXM4-80GB
  | MPI task         2, GPU activated = T, Device Name = NVIDIA A100-SXM4-80GB
  | MPI task         3, GPU activated = T, Device Name = NVIDIA A100-SXM4-80GB
  | MPI task         4, GPU activated = T, Device Name = NVIDIA A100-SXM4-80GB
  | MPI task         5, GPU activated = T, Device Name = NVIDIA A100-SXM4-80GB
  | MPI task         6, GPU activated = T, Device Name = NVIDIA A100-SXM4-80GB
  | MPI task         7, GPU activated = T, Device Name = NVIDIA A100-SXM4-80GB
  | MPI task         8, GPU activated = T, Device Name = NVIDIA A100-SXM4-80GB
  | MPI task         9, GPU activated = T, Device Name = NVIDIA A100-SXM4-80GB
  | MPI task        10, GPU activated = T, Device Name = NVIDIA A100-SXM4-80GB
  | MPI task        11, GPU activated = T, Device Name = NVIDIA A100-SXM4-80GB
  | MPI task        12, GPU activated = T, Device Name = NVIDIA A100-SXM4-80GB
  | MPI task        13, GPU activated = T, Device Name = NVIDIA A100-SXM4-80GB
  | MPI task        14, GPU activated = T, Device Name = NVIDIA A100-SXM4-80GB
  | MPI task        15, GPU activated = T, Device Name = NVIDIA A100-SXM4-80GB
  | MPI task        16, GPU activated = T, Device Name = NVIDIA A100-SXM4-80GB
  | MPI task        17, GPU activated = T, Device Name = NVIDIA A100-SXM4-80GB

------------------------------------------------------------
          Preparing all fixed parts of the calculation.
------------------------------------------------------------
  Determining machine precision:
    2.225073858507201E-308
  Setting up grids for atomic and cluster calculations.

  Creating wave function, potential, and density for free atoms.
  Runtime choices for atomic solver:
  | atomic solver xc        : PW-LDA
  | compute density gradient: 0
  | compute kinetic density : F

  Species: H

  List of occupied orbitals and eigenvalues:
    n    l              occ      energy [Ha]    energy [eV]
    1    0           1.0000        -0.232375        -6.3233


  Species: C

  List of occupied orbitals and eigenvalues:
    n    l              occ      energy [Ha]    energy [eV]
    1    0           2.0000        -9.944615      -270.6068
    2    0           2.0000        -0.498807       -13.5732
    2    1           2.0000        -0.196968        -5.3598


  Adding cutoff potential to free-atom effective potential.
  Creating fixed part of basis set: Ionic, confined, hydrogenic.
 
  H                    hydrogenic:
 
  List of hydrogenic basis orbitals: 
    n    l      effective z      eigenvalue [eV]  inner max. [A]     outer max. [A]     outer radius [A]   
    2    0         2.100000       -14.9728           0.193243           1.317208           4.583499
    2    1         3.500000       -41.6669           0.602369           0.602369           3.723403
 
 
  C                    hydrogenic:
 
  List of hydrogenic basis orbitals: 
    n    l      effective z      eigenvalue [eV]  inner max. [A]     outer max. [A]     outer radius [A]   
    2    1         1.700000        -9.7616           1.230570           1.230570           4.607917
    3    2         6.000000       -54.4224           0.792453           0.792453           3.883070
    2    0         4.900000       -81.6679           0.082559           0.562749           3.078220
 
  Creating atomic-like basis functions for current effective potential.

  Species H                   :

  List of atomic basis orbitals and eigenvalues:
    n    l      energy [Ha]    energy [eV]    outer radius [A]
    1    0        -0.232375        -6.3233       4.527807


  Species C                   :

  List of atomic basis orbitals and eigenvalues:
    n    l      energy [Ha]    energy [eV]    outer radius [A]
    1    0        -9.944615      -270.6068       1.934409
    2    0        -0.498807       -13.5732       4.496620
    2    1        -0.196968        -5.3598       4.551928

  Assembling full basis from fixed parts.
  | Species H :   atomic orbital   1 s accepted.
  | Species H :    hydro orbital   2 s accepted.
  | Species H :    hydro orbital   2 p accepted.
  | Species C :   atomic orbital   1 s accepted.
  | Species C :    hydro orbital   2 s accepted.
  | Species C :   atomic orbital   2 s accepted.
  | Species C :   atomic orbital   2 p accepted.
  | Species C :    hydro orbital   2 p accepted.
  | Species C :    hydro orbital   3 d accepted.
 
  Basis size parameters after reduction:
  | Total number of radial functions:        9
  | Total number of basis functions :     1440
 
  Per-task memory consumption for arrays in subroutine allocate_ext:
  |           2.242384MB.
  Testing on-site integration grid accuracy.
  |  Species  Function  <phi|h_atom|phi> (log., in eV)  <phi|h_atom|phi> (rad., in eV)
           1        1                 -6.3245358373                 -6.3232436907
           1        2                 14.1326137532                 14.1384481100
           1        3                 25.3627025200                 25.3628451197
           2        4               -270.6067544938               -270.6067222788
           2        5                -10.5634280949                -10.5635685736
           2        6                 16.2089822398                 16.2052121796
           2        7                 -5.3613872565                 -5.3627872378
           2        8                  8.5292058327                  8.5051734780
           2        9                 27.4884461005                 27.4884542459

  Preparing densities etc. for the partition functions (integrals / Hartree potential).

  Preparations completed.
  max(cpu_time)          :      0.075 s.
  Wall clock time (cpu1) :      0.075 s.
------------------------------------------------------------

  Initializing index lists of integration centers etc. from given atomic structure:
  Mapping all atomic coordinates to central unit cell.

  Initializing the k-points
  Using symmetry for reducing the k-points
  | k-points reduced from:        2 to        2
  | Number of k-points                             :         2
  | Consuming          0 KiB for k_phase_exx.
  The eigenvectors in the calculations are REAL.
  | Number of basis functions in the Hamiltonian integrals :      8096
  | Number of basis functions in a single unit cell        :      1440
  | Number of centers in hartree potential         :      3349
  | Number of centers in hartree multipole         :      2561
  | Number of centers in electron density summation:      1994
  | Number of centers in basis integrals           :      2123
  | Number of centers in integrals                 :       969
  | Number of centers in hamiltonian               :      2001
  | Consuming          1 KiB for k_phase.
  | Number of super-cells (origin) [n_cells]                     :         175
  | Number of super-cells (after PM_index) [n_cells]             :          40
  | Number of super-cells in hamiltonian [n_cells_in_hamiltonian]:          40
  | Size of matrix packed + index [n_hamiltonian_matrix_size] :     1930578
  | Size of matrix packed + index (no_symmetry):     3858339

------------------------------------------------------------
          Begin self-consistency loop: Initialization.

          Date     :  20230119, Time     :  215051.614
------------------------------------------------------------
  | Estimated reciprocal-space cutoff momentum G_max:         3.24344278 bohr^-1 .
  | Reciprocal lattice points for long-range Hartree potential:    5310
  Using simple linear distribution as default method for k-point parallelism.
  * Using 18 tasks for Scalapack Eigenvalue solver.
  Detailed listing of tasks and assigned k-points:
   Task     0 k-point     1 on adag015
   Task     1 k-point     1 on adag015
   Task     2 k-point     1 on adag015
   Task     3 k-point     1 on adag015
   Task     4 k-point     1 on adag015
   Task     5 k-point     1 on adag015
   Task     6 k-point     1 on adag015
   Task     7 k-point     1 on adag015
   Task     8 k-point     1 on adag015
   Task     9 k-point     2 on adag015
   Task    10 k-point     2 on adag015
   Task    11 k-point     2 on adag015
   Task    12 k-point     2 on adag015
   Task    13 k-point     2 on adag015
   Task    14 k-point     2 on adag015
   Task    15 k-point     2 on adag015
   Task    16 k-point     2 on adag015
   Task    17 k-point     2 on adag015
  K-point:     1 Tasks:     9 split into      3 X      3 BLACS grid
  Calculating block size based on n_basis =         1440  max_nprow =            3  max_npcol =            3
  ScaLAPACK block size set to:           16
  Allocating        1.758 MB for ovlp
  Allocating        1.758 MB for ham
  Allocating        1.758 MB for eigenvec
  Required Scalapack workspace - INTEGER:            1  REAL:             1
  Partitioning the integration grid into batches with parallel hashing+maxmin method.
  | Number of batches:     5376
  | Maximal batch size:     200
  | Minimal batch size:     102
  | Average batch size:     142.083
  | Standard deviation of batch sizes:      30.376

  Integration load balanced across    18 MPI tasks.
  Work distribution over tasks is as follows:
  Task     0 has      42433 integration points.
  Task     1 has      42429 integration points.
  Task     2 has      42424 integration points.
  Task     3 has      42479 integration points.
  Task     4 has      42401 integration points.
  Task     5 has      42422 integration points.
  Task     6 has      42478 integration points.
  Task     7 has      42418 integration points.
  Task     8 has      42431 integration points.
  Task     9 has      42412 integration points.
  Task    10 has      42507 integration points.
  Task    11 has      42415 integration points.
  Task    12 has      42433 integration points.
  Task    13 has      42426 integration points.
  Task    14 has      42420 integration points.
  Task    15 has      42426 integration points.
  Task    16 has      42444 integration points.
  Task    17 has      42442 integration points.
  Initializing partition tables, free-atom densities, potentials, etc. across the integration grid (initialize_grid_storage).
  | initialize_grid_storage: Actual outermost partition radius vs. multipole_radius_free
  | (-- VB: in principle, multipole_radius_free should be larger, hence this output)
  | Species        1: Confinement radius =              4.999999999999999 AA, multipole_radius_free =              5.054417573612229 AA.
  | Species        1: outer_partition_radius set to              5.054417573612229 AA .
  | Species        2: Confinement radius =              4.999999999999999 AA, multipole_radius_free =              5.019602836301480 AA.
  | Species        2: outer_partition_radius set to              5.019602836301480 AA .
  | The sparse table of interatomic distances needs       7643.57 kbyte instead of     36057.03 kbyte of memory.
  | Net number of integration points:   763840
  | of which are non-zero points    :   605240
  | Numerical average free-atom electrostatic potential    :     -8.61472240 eV
  Renormalizing the initial density to the exact electron count on the 3D integration grid.
  | Initial density: Formal number of electrons (from input files) :     544.0000000000
  | Integrated number of electrons on 3D grid     :     543.9994912366
  | Charge integration error                      :      -0.0005087634
  | Normalization factor for density and gradient :       1.0000009352
  Renormalizing the free-atom superposition density to the exact electron count on the 3D integration grid.
  | Formal number of electrons (from input files) :     544.0000000000
  | Integrated number of electrons on 3D grid     :     543.9994912366
  | Charge integration error                      :      -0.0005087634
  | Normalization factor for density and gradient :       1.0000009352
  Obtaining max. number of non-zero basis functions in each batch (get_n_compute_maxes).
  | Maximal number of non-zero basis functions:      547 in task     0
  | Maximal number of non-zero basis functions:      556 in task     1
  | Maximal number of non-zero basis functions:      538 in task     2
  | Maximal number of non-zero basis functions:      540 in task     3
  | Maximal number of non-zero basis functions:      526 in task     4
  | Maximal number of non-zero basis functions:      542 in task     5
  | Maximal number of non-zero basis functions:      541 in task     6
  | Maximal number of non-zero basis functions:      543 in task     7
  | Maximal number of non-zero basis functions:      535 in task     8
  | Maximal number of non-zero basis functions:      539 in task     9
  | Maximal number of non-zero basis functions:      559 in task    10
  | Maximal number of non-zero basis functions:      536 in task    11
  | Maximal number of non-zero basis functions:      533 in task    12
  | Maximal number of non-zero basis functions:      539 in task    13
  | Maximal number of non-zero basis functions:      540 in task    14
  | Maximal number of non-zero basis functions:      547 in task    15
  | Maximal number of non-zero basis functions:      543 in task    16
  | Maximal number of non-zero basis functions:      550 in task    17
  Integrating Hamiltonian matrix: batch-based integration.
  GPU acceleration will be used when integrating the Hamiltonian matrix.
  Reporting GPU memory usage by myid 0.  Note that it is likely not the only MPI task binding to its GPU!
  Allocating        2.394 MB on GPU for hamiltonian_shell
  Allocating        0.875 MB on GPU for wave
  Allocating        0.002 MB on GPU for partition
  Allocating        0.875 MB on GPU for h_times_psi
  Time summed over all CPUs for integration: real work       21.395 s, elapsed       21.914 s
  Deallocating memory used on GPU for Hamiltonian integration.
  Integrating overlap matrix.
  Time summed over all CPUs for integration: real work       18.307 s, elapsed       18.603 s
  Deallocating overlap matrix.

  Updating Kohn-Sham eigenvalues and eigenvectors using ELSI and the ELPA eigensolver.
  Singularity check in k-point 1 (analysis for other k-points may follow below):
  Overlap matrix is not singular
  | Lowest and highest eigenvalues :  0.7809E-03,  0.8243E+01
  Finished singularity check of overlap matrix
  | Time :     0.096 s
  Starting ELPA eigensolver
  Finished Cholesky decomposition
  | Time :     0.018 s
  Finished transformation to standard eigenproblem
  | Time :     0.021 s
  Finished solving standard eigenproblem
  | Time :     0.204 s
  Finished back-transformation of eigenvectors
  | Time :     0.017 s

  Obtaining occupation numbers and electronic chemical potential using ELSI.
  | Note that, for insulating systems, the printed 'chemical potential' value is not uniquely defined.
  | It can be anywhere in the energy gap, as long as it correctly separates occupied and unoccupied states.
  | In systems with a gap, the physically relevant chemical potential is the VBM or HOMO.

  | Chemical potential (Fermi level):    -8.24342176 eV
  Writing Kohn-Sham eigenvalues.
  K-point:       1 at    0.000000    0.000000    0.000000 (in units of recip. lattice)

  State    Occupation    Eigenvalue [Ha]    Eigenvalue [eV]
      1       2.00000         -10.072961         -274.09923
      2       2.00000         -10.071307         -274.05421
      3       2.00000         -10.069657         -274.00932
      4       2.00000         -10.068875         -273.98802
      5       2.00000         -10.068484         -273.97740
      6       2.00000         -10.068483         -273.97736
      7       2.00000         -10.068452         -273.97652
      8       2.00000         -10.067839         -273.95984
      9       2.00000         -10.067422         -273.94849
     10       2.00000         -10.067028         -273.93778
     11       2.00000         -10.066494         -273.92325
     12       2.00000         -10.066432         -273.92156
     13       2.00000         -10.065996         -273.90969
     14       2.00000         -10.065771         -273.90357
     15       2.00000         -10.065702         -273.90169
     16       2.00000         -10.065410         -273.89374
     17       2.00000         -10.065360         -273.89238
     18       2.00000         -10.065346         -273.89200
     19       2.00000         -10.065043         -273.88374
     20       2.00000         -10.064904         -273.87996
     21       2.00000         -10.064684         -273.87400
     22       2.00000         -10.064615         -273.87210
     23       2.00000         -10.064557         -273.87054
     24       2.00000         -10.064482         -273.86849
     25       2.00000         -10.063766         -273.84901
     26       2.00000         -10.063749         -273.84853
     27       2.00000         -10.063706         -273.84736
     28       2.00000         -10.063693         -273.84703
     29       2.00000         -10.063690         -273.84694
     30       2.00000         -10.063681         -273.84670
     31       2.00000         -10.063527         -273.84250
     32       2.00000         -10.063375         -273.83836
     33       2.00000         -10.063311         -273.83663
     34       2.00000         -10.063269         -273.83548
     35       2.00000         -10.063176         -273.83294
     36       2.00000         -10.063171         -273.83280
     37       2.00000         -10.063154         -273.83234
     38       2.00000         -10.063055         -273.82967
     39       2.00000         -10.063048         -273.82947
     40       2.00000         -10.062808         -273.82294
     41       2.00000         -10.062700         -273.81999
     42       2.00000         -10.062569         -273.81644
     43       2.00000         -10.062392         -273.81162
     44       2.00000         -10.062377         -273.81120
     45       2.00000         -10.062299         -273.80908
     46       2.00000         -10.062200         -273.80640
     47       2.00000         -10.062182         -273.80591
     48       2.00000         -10.061978         -273.80034
     49       2.00000         -10.061862         -273.79720
     50       2.00000         -10.061708         -273.79299
     51       2.00000         -10.061453         -273.78605
     52       2.00000         -10.061380         -273.78407
     53       2.00000         -10.061363         -273.78361
     54       2.00000         -10.061348         -273.78320
     55       2.00000         -10.061329         -273.78268
     56       2.00000         -10.061267         -273.78101
     57       2.00000         -10.061005         -273.77387
     58       2.00000         -10.060987         -273.77339
     59       2.00000         -10.060765         -273.76736
     60       2.00000         -10.060706         -273.76573
     61       2.00000         -10.060677         -273.76494
     62       2.00000         -10.060646         -273.76411
     63       2.00000         -10.060419         -273.75792
     64       2.00000         -10.060242         -273.75312
     65       2.00000         -10.060085         -273.74885
     66       2.00000         -10.059496         -273.73281
     67       2.00000         -10.059394         -273.73003
     68       2.00000         -10.058388         -273.70267
     69       2.00000         -10.057815         -273.68707
     70       2.00000         -10.057774         -273.68594
     71       2.00000         -10.057495         -273.67835
     72       2.00000         -10.057403         -273.67586
     73       2.00000         -10.057310         -273.67334
[...]
  |    H      0     4.527807 A      4.583499 A        4.713786E-16 a.u.
  |    H      2     3.678162 A  1.011968E+04 A            0.556529 a.u.
  |    H      1     3.958095 A  1.721251E+06 A            0.841931 a.u.
  |    H      0     4.527807 A  3.866455E+12 A            0.581436 a.u.
  |    C      0     2.562483 A      2.562483 A        6.563029E-17 a.u.
  |    C      0     2.967371 A      2.967371 A        1.352164E-16 a.u.
  |    C      0     3.003870 A      3.003870 A        2.312640E-17 a.u.
  |    C      1     3.272245 A      3.272245 A       -3.835259E-17 a.u.
  |    C      0     3.312494 A      3.312494 A       -2.710381E-16 a.u.
  |    C      3     4.077671 A      4.077671 A       -1.683752E-15 a.u.
  |    C      3     4.077671 A      4.077671 A        1.412852E-15 a.u.
  |    C      1     4.496620 A      4.496620 A       -3.011059E-16 a.u.
  |    C      0     4.496620 A      4.551928 A        2.873903E-17 a.u.
  |    C      2     4.551928 A      4.551928 A       -4.610785E-16 a.u.
  |    C      2     4.551928 A      4.551928 A        7.440584E-16 a.u.
  |    C      2     4.551928 A      4.551928 A       -7.110458E-16 a.u.
  |    C      2     4.551928 A      4.551928 A       -1.935424E-16 a.u.
  |    C      0     4.551928 A      4.607917 A        2.067142E-16 a.u.
  |    C      0     4.551928 A      4.607917 A       -1.109786E-16 a.u.
  |    C      1     4.551928 A      4.607917 A       -9.951742E-17 a.u.
  |    C      1     4.551928 A      4.607917 A        1.937809E-16 a.u.
  |    C      1     4.607917 A      4.607917 A       -2.813308E-16 a.u.
  |    C      1     4.607917 A      4.607917 A       -7.330363E-17 a.u.
  |    C      2     4.607917 A      4.607917 A        1.318462E-15 a.u.
  |    C      2     4.607917 A      4.607917 A       -1.318397E-15 a.u.
  |    C      0     4.607917 A      4.664595 A        3.157826E-16 a.u.
  |    C      1     4.607917 A      4.664595 A        7.356967E-16 a.u.
  |    C      4     3.835889 A  2.962973E+02 A            4.379483 a.u.
  |    C      3     4.127827 A  1.725964E+03 A            9.005588 a.u.
  |    C      2     4.607917 A  2.608475E+04 A            9.531178 a.u.
  |    C      1     4.607917 A  2.736013E+06 A            2.127278 a.u.
  |    C      0     4.607917 A  4.399765E+12 A            0.661635 a.u.

  | Shrink_full_auxil_basis : there are       36  radial auxiliary wave functions
                            accepted and       7 rejected.
  | Shrink_full_auxil_basis : there are totally                8992 partial auxiliary wave functions.
 
  | Maximal number of product basis functions per thread :   512   512
 
  | Minimal total memory requirement for three-center overlap :      72.476 Gbs
  | Number of local auxiliary basis functions on task:      0   512
  | Number of local auxiliary basis functions on task:      1   512
  | Number of local auxiliary basis functions on task:      2   512
  | Number of local auxiliary basis functions on task:      3   512
  | Number of local auxiliary basis functions on task:      4   496
  | Number of local auxiliary basis functions on task:      5   496
  | Number of local auxiliary basis functions on task:      6   496
  | Number of local auxiliary basis functions on task:      7   496
  | Number of local auxiliary basis functions on task:      8   496
  | Number of local auxiliary basis functions on task:      9   496
  | Number of local auxiliary basis functions on task:     10   496
  | Number of local auxiliary basis functions on task:     11   496
  | Number of local auxiliary basis functions on task:     12   496
  | Number of local auxiliary basis functions on task:     13   496
  | Number of local auxiliary basis functions on task:     14   496
  | Number of local auxiliary basis functions on task:     15   496
  | Number of local auxiliary basis functions on task:     16   496
  | Number of local auxiliary basis functions on task:     17   496
  | 2D aux task distribution:      3 X      6
  | 2D block size (nb_aux_2d):     64
 
  Basis pair condensation :   1037520  -->     548371
 
 --------------------------------------------
  Constructing auxiliary basis (full product) ...
 
  Product basis:
  | charge radius: extent of product basis function
  | field radius: extent of its Coulomb potential
  | Species   l  charge radius    field radius  multipol momen
  |    H      1     3.910002 A      3.910002 A       -2.487223E-16 a.u.
  |    H      1     3.958095 A      3.958095 A       -2.441841E-16 a.u.
  |    H      0     4.527807 A      4.527807 A        1.268855E-16 a.u.
  |    H      0     4.527807 A      4.583499 A       -4.900954E-17 a.u.
  |    H      0     4.527807 A      4.583499 A        4.713786E-16 a.u.
  |    H      2     3.678162 A  1.011968E+04 A            0.556529 a.u.
  |    H      1     3.958095 A  1.721251E+06 A            0.841931 a.u.
  |    H      0     4.527807 A  3.866455E+12 A            0.581436 a.u.
  |    C      0     2.562483 A      2.562483 A        6.563029E-17 a.u.
  |    C      0     2.967371 A      2.967371 A        1.352164E-16 a.u.
  |    C      0     3.003870 A      3.003870 A        2.312640E-17 a.u.
  |    C      1     3.272245 A      3.272245 A       -3.835259E-17 a.u.
  |    C      0     3.312494 A      3.312494 A       -2.710381E-16 a.u.
  |    C      3     4.077671 A      4.077671 A       -1.683752E-15 a.u.
  |    C      3     4.077671 A      4.077671 A        1.412852E-15 a.u.
  |    C      1     4.496620 A      4.496620 A       -3.011059E-16 a.u.
  |    C      0     4.496620 A      4.551928 A        2.873903E-17 a.u.
  |    C      2     4.551928 A      4.551928 A       -4.610785E-16 a.u.
  |    C      2     4.551928 A      4.551928 A        7.440584E-16 a.u.
  |    C      2     4.551928 A      4.551928 A       -7.110458E-16 a.u.
  |    C      2     4.551928 A      4.551928 A       -1.935424E-16 a.u.
  |    C      0     4.551928 A      4.607917 A        2.067142E-16 a.u.
  |    C      0     4.551928 A      4.607917 A       -1.109786E-16 a.u.
  |    C      1     4.551928 A      4.607917 A       -9.951742E-17 a.u.
  |    C      1     4.551928 A      4.607917 A        1.937809E-16 a.u.
  |    C      1     4.607917 A      4.607917 A       -2.813308E-16 a.u.
  |    C      1     4.607917 A      4.607917 A       -7.330363E-17 a.u.
  |    C      2     4.607917 A      4.607917 A        1.318462E-15 a.u.
  |    C      2     4.607917 A      4.607917 A       -1.318397E-15 a.u.
  |    C      0     4.607917 A      4.664595 A        3.157826E-16 a.u.
  |    C      1     4.607917 A      4.664595 A        7.356967E-16 a.u.
  |    C      4     3.835889 A  2.962973E+02 A            4.379483 a.u.
  |    C      3     4.127827 A  1.725964E+03 A            9.005588 a.u.
  |    C      2     4.607917 A  2.608475E+04 A            9.531178 a.u.
  |    C      1     4.607917 A  2.736013E+06 A            2.127278 a.u.
  |    C      0     4.607917 A  4.399765E+12 A            0.661635 a.u.

  | Shrink_full_auxil_basis : there are       36  radial auxiliary wave functions
                            accepted and       7 rejected.
  | Shrink_full_auxil_basis : there are totally                8992 partial auxiliary wave functions.
 
  | Maximal number of product basis functions per thread :   512   512
 
  | Minimal total memory requirement for three-center overlap :      72.476 Gbs
  | Number of local auxiliary basis functions on task:      0   512
  | Number of local auxiliary basis functions on task:      1   512
  | Number of local auxiliary basis functions on task:      2   512
  | Number of local auxiliary basis functions on task:      3   512
  | Number of local auxiliary basis functions on task:      4   496
  | Number of local auxiliary basis functions on task:      5   496
  | Number of local auxiliary basis functions on task:      6   496
  | Number of local auxiliary basis functions on task:      7   496
  | Number of local auxiliary basis functions on task:      8   496
  | Number of local auxiliary basis functions on task:      9   496
  | Number of local auxiliary basis functions on task:     10   496
  | Number of local auxiliary basis functions on task:     11   496
  | Number of local auxiliary basis functions on task:     12   496
  | Number of local auxiliary basis functions on task:     13   496
  | Number of local auxiliary basis functions on task:     14   496
  | Number of local auxiliary basis functions on task:     15   496
  | Number of local auxiliary basis functions on task:     16   496
  | Number of local auxiliary basis functions on task:     17   496
  | 2D aux task distribution:      3 X      6
  | 2D block size (nb_aux_2d):     64
 
  Basis pair condensation :   1037520  -->     548371
  Allocating        0.069 MB for t_coeff
  Allocating        0.034 MB for basbas_idx
  Allocating        0.069 MB for wave
  Allocating        0.069 MB for total_wave
  Allocating        0.206 MB for wave_gradient
  Allocating        0.206 MB for total_wave_grad
 HERE1
 HERE2
  Deallocating        0.069 MB for t_coeff
  Deallocating        0.034 MB for basbas_idx
  Deallocating        0.069 MB for wave
  Deallocating        0.206 MB for wave_gradient
  Deallocating        0.206 MB for total_wave_grad
dP_dE (Bohr^3) at every cycle:--->
 (989.173745450295,0.000000000000000E+000) (-16.3073890678205,0.000000000000000E+000) (-467.174094787808,0.000000000000000E+000)
 (-16.3023782934416,0.000000000000000E+000) (1381.04339577109,0.000000000000000E+000) (11.6941627711020,0.000000000000000E+000)
 (-467.371718435046,0.000000000000000E+000) (11.6831658830958,0.000000000000000E+000) (1690.77204516909,0.000000000000000E+000)
DFPT polarizability (Bohr^3)        xx        yy        zz        xy        xz        yz
  | Polarizability:--->                       989.173745450                 1381.043395771                 1690.772045169                  -16.307389068                 -467.174094788                   11.694162771

DFPT for dielectric_constant:--->  # PARSE DFPT_dielectric_tensor
               2.342287673071145            -0.022128779121353            -0.633945281601042
              -0.022121979607402             2.874046429806899             0.015868729438823
              -0.634213452674946             0.015853806896367             3.294341600393600

                                               :  max(cpu_time)    wall_clock(cpu1)
  | Time for  dielectric calculation            :        0.000 s           0.000 s
===========================================================================

------------------------------------------------------------------------------
  Final output of selected total energy values:

  The following output summarizes some interesting total energy values
  at the end of a run (AFTER all relaxation, molecular dynamics, etc.).

  | Total energy of the DFT / Hartree-Fock s.c.f. calculation      :         -83267.516211677 eV
  | Final zero-broadening corrected energy (caution - metals only) :         -83267.516211677 eV
  | For reference only, the value of 1 Hartree used in FHI-aims is :             27.211384500 eV
  | For reference only, the overall average (free atom contribution
  | + realspace contribution) of the electrostatic potential after
  | s.c.f. convergence is                                          :             -7.697527562 eV

  Before relying on these values, please be sure to understand exactly which
  total energy value is referred to by a given number. Different objects may
  all carry the same name 'total energy'. Definitions:

  Total energy of the DFT / Hartree-Fock s.c.f. calculation:
  | Note that this energy does not include ANY quantities calculated after the
  | s.c.f. cycle, in particular not ANY RPA, MP2, etc. many-body perturbation terms.

  Final zero-broadening corrected energy:
  | For metallic systems only, a broadening of the occupation numbers at the Fermi
  | level can be extrapolated back to zero broadening by an electron-gas inspired
  | formula. For all systems that are not real metals, this value can be
  | meaningless and should be avoided.

------------------------------------------------------------------------------
  Methods described in the following list of references were used in this FHI-aims run.
  If you publish the results, please make sure to cite these reference if they apply.
  FHI-aims is an academic code, and for our developers (often, Ph.D. students
  and postdocs), scientific credit in the community is essential.
  Thank you for helping us!

  For any use of FHI-aims, please cite:

    Volker Blum, Ralf Gehrke, Felix Hanke, Paula Havu, Ville Havu,
    Xinguo Ren, Karsten Reuter, and Matthias Scheffler
    'Ab initio molecular simulations with numeric atom-centered orbitals'
    Computer Physics Communications 180, 2175-2196 (2009)
    http://doi.org/10.1016/j.cpc.2009.06.022


  For Hartree-Fock, hybrid functionals, or many-body perturbation theory used in your run, please cite:

    Xinguo Ren, Patrick Rinke, Volker Blum, Juergen Wieferink, Alex Tkatchenko,
    Andrea Sanfilippo, Karsten Reuter, and Matthias Scheffler,
    'Resolution-of-identity approach to Hartree-Fock, hybrid density functionals,
    RPA, MP2, and GW with numeric atom-centered orbital basis functions'
    New Journal of Physics 14, 053020 (2012).
    http://doi.org/10.1088/1367-2630/14/5/053020


  The provided symmetry information was generated with SPGlib:

    Atsushi Togo, Yusuke Seto, Dimitar Pashov
    SPGlib 1.7.3 obtained from http://spglib.sourceforge.net
    Copyright (C) 2008 Atsushi Togo


  The DFPT (perturbation by an electric field) part of the code was used.
  Here is the corresponding reference:

    Honghui Shang, Nathaniel Raimbault, Mariana Rossi,
    Christian Carbogno, Patrick Rinke and Matthias Scheffler,
    'All-Electron, Real-Space Perturbation Theory for Homogeneous
    Electric Fields: Theory, Implementation, and Application within dft'
    New Journal of Physics, 20(7):073040, 2018


  The ELSI infrastructure was used in your run to solve the Kohn-Sham electronic structure.
  Please check out http://elsi-interchange.org to learn more.
  If scalability is important for your project, please acknowledge ELSI by citing:

    V. W-z. Yu, F. Corsetti, A. Garcia, W. P. Huhn, M. Jacquelin, W. Jia,
    B. Lange, L. Lin, J. Lu, W. Mi, A. Seifitokaldani, A. Vazquez-Mayagoitia,
    C. Yang, H. Yang, and V. Blum
    'ELSI: A unified software interface for Kohn-Sham electronic structure solvers'
    Computer Physics Communications 222, 267-285 (2018).
    http://doi.org/10.1016/j.cpc.2017.09.007


  For the real-space grid partitioning and parallelization used in this calculation, please cite:

    Ville Havu, Volker Blum, Paula Havu, and Matthias Scheffler,
    'Efficient O(N) integration for all-electron electronic structure calculation'
    'using numerically tabulated basis functions'
    Journal of Computational Physics 228, 8367-8379 (2009).
    http://doi.org/10.1016/j.jcp.2009.08.008


  The high-level electronic structure method used in your calculation
  employed our efficient localized resolution of identity for the Coulomb operator.
  Some calculations, especially large-scale hybrid density functional theory,
  are only possible thanks to this development. For this feature, please cite:

    Arvid Ihrig, Juergen Wieferink, Igor Ying Zhang, Matti Ropo, Xinguo Ren,
    Patrick Rinke, Matthias Scheffler, and Volker Blum,
    'Accurate localized resolution of identity approach for linear-scaling
    hybrid density functionals and for many-body perturbation theory'
    New Journal of Physics 117, 093020 (2015).
    http://doi.org/10.1088/1367-2630/17/9/093020

  Of course, there are many other important community references, e.g., those cited in the
  above references. Our list is limited to references that describe implementations in the
  FHI-aims code. The reason is purely practical (length of this list) - please credit others as well.

------------------------------------------------------------
          Leaving FHI-aims.
          Date     :  20230119, Time     :  221532.702

          Computational steps:
          | Number of self-consistency cycles          :           47
          | Number of SCF (re)initializations          :            1
          | Number of coupled perturbed self-consistency cycles          :            0
          | Number of CPSCF (re)initializations          :            0

          Detailed time accounting                     :  max(cpu_time)    wall_clock(cpu1)
          | Total time                                  :     1482.698 s        1491.498 s
          | GPU initialization                          :        1.764 s           9.070 s
          | Preparation time                            :        0.075 s           0.075 s
          | Boundary condition initalization            :        1.152 s           1.152 s
          | Grid partitioning                           :        1.249 s           1.249 s
          | Preloading free-atom quantities on grid     :        3.624 s           3.626 s
          | Free-atom superposition energy              :        0.486 s           0.486 s
          | Total time for integrations                 :       17.524 s          17.823 s
          | Product basis setup: Total time             :        0.000 s           0.000 s
          | Product basis: | 2-center integrations     :(       0.000 s)  (       0.000 s)
          | Product basis: | LVL 3-center & coefficient:(       0.000 s)  (       0.000 s)
          | Total time for solution of K.-S. equations  :        3.494 s           3.494 s
          | Total time for density update               :       12.827 s          13.515 s
          | Total time for mixing & preconditioning     :       24.032 s          24.038 s
          | Total time for Hartree multipole update     :        0.085 s           0.083 s
          | Total time for Hartree multipole sum        :       42.742 s          42.755 s
          | Total time for total energy evaluation      :        0.007 s           0.009 s
          | Total time first_order_DM                   :        1.986 s           1.984 s
          | Total time first_order_density              :      304.913 s         304.979 s
          | Total time first_order_potential            :      124.909 s         124.945 s
          | Total time first_order_H                    :      579.975 s         580.127 s
          | Total time solving of Sternheimer equations :        1.924 s           1.923 s
          | Total time for dielectric constant          :        0.000 s           0.000 s
          | Total time momentum matrix                  :        0.000 s           0.000 s

          GPU acceleration has been used for charge density update.
          GPU acceleration has been used for real-space Hamiltonian integration.
          Due to GPU usage, wall_clock(cpu1) will give a more reliable estimate for timings.

          Partial memory accounting:
          | Residual value for overall tracked memory usage across tasks:     1.234863 MB (should be 0.000000 MB)
          |
          | Largest tracked array allocation:
          |   Minimum:      103.104 MB (DFPT_pulay_mixing::initialize_pulay_mixing::X_in_diffs on task  0)
          |   Maximum:      103.104 MB (DFPT_pulay_mixing::initialize_pulay_mixing::X_in_diffs on task  0)
          |   Average:      103.104 MB
          |
          | Because the residual tracked memory usage was not zero, the peak value for overall
          | tracked memory usage was not output, as it is probably incorrect.  This is likely due
          | to a missing aims_deallocate statement in the source code, which should be otherwise
          | harmless.
          |
          Note:  These values currently only include a subset of arrays which are explicitly tracked.
          The "true" memory usage will be greater.

          Have a nice day.
------------------------------------------------------------
