------------------------------------------------------------
          Invoking FHI-aims ...

          When using FHI-aims, please cite the following reference:

            Volker Blum, Ralf Gehrke, Felix Hanke, Paula Havu,
            Ville Havu, Xinguo Ren, Karsten Reuter, and Matthias Scheffler,
            'Ab Initio Molecular Simulations with Numeric Atom-Centered Orbitals',
            Computer Physics Communications 180, 2175-2196 (2009)

          In addition, many other developments in FHI-aims are likely important for
          your particular application. A partial list of references is given at the end of
          this file. Thank you for giving credit to the authors of these developments.

          For any questions about FHI-aims, please visit our slack channel at

            https://fhi-aims.slack.com

          and our main development and support site at

            https://aims-git.rz-berlin.mpg.de .

          The latter site, in particular, has a wiki to collect information, as well
          as an issue tracker to log discussions, suggest improvements, and report issues
          or bugs. https://aims-git.rz-berlin.mpg.de is also the main development site
          of the project and all new and updated code versions can be obtained there.
          Please send an email to aims-coordinators@fhi-berlin.mpg.de and we will add
          you to these sites. They are for you and everyone is welcome there.

------------------------------------------------------------



  Date     :  20230119, Time     :  194051.999
  Time zero on CPU 1             :   0.474022000000000E+00  s.
  Internal wall clock time zero  :           443389251.999  s.

  FHI-aims created a unique identifier for this run for later identification
  aims_uuid : A94B3975-137B-45DD-A981-5CC00346F606

  Build configuration of the current instance of FHI-aims
  -------------------------------------------------------
  FHI-aims version      : 220829
  Commit number         : 9895fc21d
  CMake host system     : Linux-5.3.18-150300.59.68-default
  CMake version         : 3.17.0
  Fortran compiler      : /mpcdf/soft/SLE_15/packages/x86_64/intel_oneapi/2021.3/mpi/2021.3.0/bin/mpiifort (Intel) version 20.2.3.20210609
  Fortran compiler flags: -O3 -ip -fp-model precise
  C compiler            : /mpcdf/soft/SLE_15/packages/x86_64/intel/2021.3.0/bin/icc (Intel) version 20.2.3.20210609
  C compiler flags      : -O3 -ip -fp-model precise -std=gnu99
  CUDA compiler         : /mpcdf/soft/SLE_15/packages/x86_64/cuda/11.6.2/bin/nvcc
  CUDA compiler flags   : -O3 -DAdd_ -lcublas
  ELPA2 kernel          : AVX512
  Using MPI
  Using ScaLAPACK
  Using LibXC
  Using CUDA
  Using i-PI
  Using RLSY
  Linking against: /mpcdf/soft/SLE_15/packages/x86_64/cuda/11.6.2/lib64/libcublas.so
                   /mpcdf/soft/SLE_15/packages/x86_64/cuda/11.6.2/lib64/libcudart.so
                   /mpcdf/soft/SLE_15/packages/x86_64/intel_oneapi/2021.3/mkl/latest/lib/intel64/libmkl_intel_lp64.so
                   /mpcdf/soft/SLE_15/packages/x86_64/intel_oneapi/2021.3/mkl/latest/lib/intel64/libmkl_sequential.so
                   /mpcdf/soft/SLE_15/packages/x86_64/intel_oneapi/2021.3/mkl/latest/lib/intel64/libmkl_core.so
                   /mpcdf/soft/SLE_15/packages/x86_64/intel_oneapi/2021.3/mkl/latest/lib/intel64/libmkl_blacs_intelmpi_lp64.so
                   /mpcdf/soft/SLE_15/packages/x86_64/intel_oneapi/2021.3/mkl/latest/lib/intel64/libmkl_scalapack_lp64.so

  Using       18 parallel tasks.
  Task        0 on host adag015 reporting.
  Task        1 on host adag015 reporting.
  Task        2 on host adag015 reporting.
  Task        3 on host adag015 reporting.
  Task        4 on host adag015 reporting.
  Task        5 on host adag015 reporting.
  Task        6 on host adag015 reporting.
  Task        7 on host adag015 reporting.
  Task        8 on host adag015 reporting.
  Task        9 on host adag015 reporting.
  Task       10 on host adag015 reporting.
  Task       11 on host adag015 reporting.
  Task       12 on host adag015 reporting.
  Task       13 on host adag015 reporting.
  Task       14 on host adag015 reporting.
  Task       15 on host adag015 reporting.
  Task       16 on host adag015 reporting.
  Task       17 on host adag015 reporting.

  Performing system and environment tests:
  | Environment variable OMP_NUM_THREADS correctly set to 1.
  | Checking for ScaLAPACK...
  | Testing pdtran()...
  | All pdtran() tests passed.

  Obtaining array dimensions for all initial allocations:
  
  -----------------------------------------------------------------------
  Parsing control.in (first pass over file, find array dimensions only).
  The contents of control.in will be repeated verbatim below
  unless switched off by setting 'verbatim_writeout .false.' .
  in the first line of control.in .
  -----------------------------------------------------------------------
  
  #
  # Input for polarizability replays on generic oligoacene molecular crystals (light settings,  LDA+MBD).
  #
  #########################################################################################
  #
  #  Physical model
  #
    xc                 pw-lda
    spin               none
    relativistic       none
    charge             0.0
    k_grid 	     2 1 1
    DFPT dielectric
  #
  #  GPU acceleration
  #
  # Turns on GPU acceleration everywhere
    use_gpu
  
  # Turns OFF GPU acceleration of ELPA - may be necessary if GPU ELPA is slow
    elsi_elpa_gpu 0
  #
  #  Relaxation
  #
  #  relax_geometry trm 1E-3
  #  relax_unit_cell fixed_angles
  #
  #  SCF convergence        #
    charge_mix_param   0.75
    #sc_accuracy_rho 1E-4
  #
  # i-PI communication
  #
  compute_forces .false.
  # use_pimd_wrapper 130.183.223.27 26118
  #communicate_pimd_wrapper polarizability
  #output_level MD_light
  #
  # Output SALTED info
    ri_density_restart write
    ri_rho1 write
    ri_full_output .true.
  #  sc_accuracy_rho    1d-6
    default_prodbas_acc 1e-6
    default_max_l_prodbas 6
  #
  #
  ################################################################################
  #
  #  FHI-aims code project
  #  VB, Fritz-Haber Institut, 2009
  #
  #  Suggested "light" defaults for H atom (to be pasted into control.in file)
  #  Be sure to double-check any results obtained with these settings for post-processing,
  #  e.g., with the "tight" defaults and larger basis sets.
  #
  ################################################################################
    species        H
  #     global species definitions
      nucleus             1
      mass                1.00794
  #
      l_hartree           4
  #
      cut_pot             3.5  1.5  1.0
      basis_dep_cutoff    1e-4
  #
      radial_base         24 5.0
      radial_multiplier   1
      angular_grids       specified
        division   0.2421   50
        division   0.3822  110
        division   0.4799  194
        division   0.5341  302
  #      division   0.5626  434
  #      division   0.5922  590
  #      division   0.6542  770
  #      division   0.6868 1202
  #      outer_grid  770
        outer_grid  302
  ################################################################################
  #
  #  Definition of "minimal" basis
  #
  ################################################################################
  #     valence basis states
      valence      1  s   1.
  #     ion occupancy
      ion_occ      1  s   0.5
  ################################################################################
  #
  #  Suggested additional basis functions. For production calculations,
  #  uncomment them one after another (the most important basis functions are
  #  listed first).
  #
  #  Basis constructed for dimers: 0.5 A, 0.7 A, 1.0 A, 1.5 A, 2.5 A
  #
  ################################################################################
  #  "First tier" - improvements: -1014.90 meV to -62.69 meV
       hydro 2 s 2.1
       hydro 2 p 3.5
  #  "Second tier" - improvements: -12.89 meV to -1.83 meV
  #     hydro 1 s 0.85
  #     hydro 2 p 3.7
  #     hydro 2 s 1.2
  #     hydro 3 d 7
  #  "Third tier" - improvements: -0.25 meV to -0.12 meV
  #     hydro 4 f 11.2
  #     hydro 3 p 4.8
  #     hydro 4 d 9
  #     hydro 3 s 3.2
  ################################################################################
  ################################################################################
  #
  #  FHI-aims code project
  #  VB, Fritz-Haber Institut, 2009
  #
  #  Suggested "light" defaults for C atom (to be pasted into control.in file)
  #  Be sure to double-check any results obtained with these settings for post-processing,
  #  e.g., with the "tight" defaults and larger basis sets.
  #
  ################################################################################
    species        C
  #     global species definitions
      nucleus             6
      mass                12.0107
  #
      l_hartree           4
  #
      cut_pot             3.5  1.5  1.0
      basis_dep_cutoff    1e-4
  #
      radial_base         34 5.0
      radial_multiplier   1
      angular_grids specified
        division   0.3326   50
        division   0.5710  110
        division   0.7727  194
        division   0.8772  302
  #      division   0.9334  434
  #      division   0.9625  590
  #      division   0.9924  770
  #      division   1.0230  974
  #      division   1.4589 1202
  #     outer_grid  974
       outer_grid 302
  ################################################################################
  #
  #  Definition of "minimal" basis
  #
  ################################################################################
  #     valence basis states
      valence      2  s   2.
      valence      2  p   2.
  #     ion occupancy
      ion_occ      2  s   1.
      ion_occ      2  p   1.
  ################################################################################
  #
  #  Suggested additional basis functions. For production calculations,
  #  uncomment them one after another (the most important basis functions are
  #  listed first).
  #
  #  Constructed for dimers: 1.0 A, 1.25 A, 1.5 A, 2.0 A, 3.0 A
  #
  ################################################################################
  #  "First tier" - improvements: -1214.57 meV to -155.61 meV
       hydro 2 p 1.7
       hydro 3 d 6
       hydro 2 s 4.9
  #  "Second tier" - improvements: -67.75 meV to -5.23 meV
  #     hydro 4 f 9.8
  #     hydro 3 p 5.2
  #     hydro 3 s 4.3
  #     hydro 5 g 14.4
  #     hydro 3 d 6.2
  #  "Third tier" - improvements: -2.43 meV to -0.60 meV
  #     hydro 2 p 5.6
  #     hydro 2 s 1.4
  #     hydro 3 d 4.9
  #     hydro 4 f 11.2
  #  "Fourth tier" - improvements: -0.39 meV to -0.18 meV
  #     hydro 2 p 2.1
  #     hydro 5 g 16.4
  #     hydro 4 d 13.2
  #     hydro 3 s 13.6
  #     hydro 4 f 17.6
  #  Further basis functions - improvements: -0.08 meV and below
  #     hydro 3 s 2
  #     hydro 3 p 6
  #     hydro 4 d 20
  
  -----------------------------------------------------------------------
  Completed first pass over input file control.in .
  -----------------------------------------------------------------------
  
  
  -----------------------------------------------------------------------
  Parsing geometry.in (first pass over file, find array dimensions only).
  The contents of geometry.in will be repeated verbatim below
  unless switched off by setting 'verbatim_writeout .false.' .
  in the first line of geometry.in .
  -----------------------------------------------------------------------
  
  #=======================================================
  # FHI-aims file: /ada/ptmp/mpsd/alewis/naphthalene/qmdata/data/geoms/157.in
  # Created using the Atomic Simulation Environment (ASE)
  # Thu Jan 19 15:19:17 2023
  #=======================================================
  lattice_vector 8.1020000000000003 0.0000000000000000 0.0000000000000000
  lattice_vector 0.0000000000000000 11.8800000000000008 0.0000000000000000
  lattice_vector -9.7850918486534706 0.0000000000000000 14.2571119625755713
  atom -0.9798550000000000 0.2967330000000000 2.3376100000000002 C
  atom 0.2529620000000000 2.9896400000000001 4.8360700000000003 C
  atom 4.3348699999999996 6.0530999999999997 4.8884600000000002 C
  atom 3.2078099999999998 2.7921600000000000 2.3310700000000000 C
  atom -0.1990970000000000 1.0833999999999999 1.5413100000000000 C
  atom -0.5251700000000000 3.8753299999999999 5.5482500000000003 C
  atom 3.5830700000000002 5.0963000000000003 5.5616599999999998 C
  atom 3.8635899999999999 1.8944900000000000 1.5178600000000000 C
  atom 0.1958730000000000 0.6654090000000000 0.2722510000000000 C
  atom -0.9193900000000000 3.5896400000000002 6.8936700000000002 C
  atom 3.0735000000000001 5.3577399999999997 6.8536700000000002 C
  atom 4.2629099999999998 2.3174999999999999 0.2114060000000000 C
  atom -3.6682100000000002 1.5525500000000001 6.5983900000000002 C
  atom 3.1631600000000000 4.4957599999999998 0.5691670000000000 C
  atom 7.2396099999999999 4.3876400000000002 0.6729670000000000 C
  atom 0.3075340000000000 1.4593600000000000 6.7668299999999997 C
  atom -3.3444199999999999 1.2005699999999999 5.2969099999999996 C
  atom 2.8593500000000001 4.0647000000000002 1.8487199999999999 C
  atom 6.8540299999999998 4.7381599999999997 1.9667699999999999 C
  atom 0.6867210000000000 1.7629100000000000 5.4778799999999999 C
  atom -1.3215900000000000 0.6903319999999999 3.3018200000000002 H
  atom 0.5198370000000000 3.2646099999999998 3.8035600000000001 H
  atom 4.7808599999999997 5.8181599999999998 3.9023800000000000 H
  atom 2.9883600000000001 2.5997900000000000 3.3803200000000002 H
  atom 0.1657820000000000 2.0444100000000001 1.8955100000000000 H
  atom -0.9122150000000000 4.7899000000000003 5.0548200000000003 H
  atom 3.3154699999999999 4.1748200000000004 5.0818000000000003 H
  atom 4.1687599999999998 0.9300210000000000 1.9054199999999999 H
  atom -3.4006699999999999 2.5160200000000001 7.0328400000000002 H
  atom 2.8394599999999999 5.4892300000000001 0.2263330000000000 H
  atom 6.9456400000000000 3.3964099999999999 0.2094150000000000 H
  atom 0.5721370000000000 0.5203460000000000 7.2299499999999997 H
  atom -2.7724500000000001 1.8977100000000000 4.6626899999999996 H
  atom 2.2450600000000001 4.6909000000000001 2.5356800000000002 H
  atom 6.1578799999999996 4.1049499999999997 2.5276700000000001 H
  atom 1.2230799999999999 1.0019700000000000 4.9037800000000002 H
  atom -5.5225299999999997 0.1508920000000000 9.5233000000000008 C
  atom -4.7529800000000000 3.1391600000000000 11.8930000000000007 C
  atom -0.8381160000000000 5.7715199999999998 11.9356000000000009 C
  atom -1.6418600000000001 2.9940899999999999 9.5700599999999998 C
  atom -4.7259099999999998 0.9818249999999999 8.7754899999999996 C
  atom -5.5681900000000004 3.9897700000000000 12.6494999999999997 C
  atom -1.4763999999999999 4.8808699999999998 12.7652999999999999 C
  atom -0.8937880000000000 2.1075400000000002 8.8507499999999997 C
  atom -4.4329400000000003 0.6724760000000000 7.4089099999999997 C
  atom -5.9042599999999998 3.6265299999999998 14.0046999999999997 C
  atom -1.7843300000000000 5.2551699999999997 14.0917999999999992 C
  atom -0.4892910000000000 2.3719600000000001 7.5250100000000000 C
  atom -8.7655600000000007 1.4403900000000001 13.6966000000000001 C
  atom -1.7395200000000000 4.4738899999999999 7.6647200000000000 C
  atom 2.3150300000000001 4.3618100000000002 7.5339700000000001 C
  atom -4.7241700000000000 1.4470099999999999 13.6410000000000000 C
  atom -8.3492099999999994 1.0274200000000000 12.4688999999999997 C
  atom -2.0750099999999998 4.1812899999999997 8.9740199999999994 C
  atom 1.8985600000000000 4.5971500000000001 8.8196200000000005 C
  atom -4.3641100000000002 1.8679200000000000 12.3779000000000003 C
  atom -5.7725299999999997 0.4491670000000000 10.5328999999999997 H
  atom -4.4675300000000000 3.4325800000000002 10.8759999999999994 H
  atom -0.5708130000000000 5.4378299999999999 10.9258000000000006 H
  atom -1.9318700000000000 2.7121700000000000 10.6031999999999993 H
  atom -4.4736399999999996 2.0086200000000001 9.0942000000000007 H
  atom -5.8653700000000004 4.9830100000000002 12.2992000000000008 H
  atom -1.8150100000000000 3.8914800000000001 12.4503000000000004 H
  atom -0.6526860000000000 1.1254200000000001 9.2533999999999992 H
  atom -8.5461799999999997 2.4201100000000002 14.0655000000000001 H
  atom -2.1456599999999999 5.3915199999999999 7.2136899999999997 H
  atom 2.0793800000000000 3.4047499999999999 7.0522999999999998 H
  atom -4.3932900000000004 0.4994190000000000 14.0664999999999996 H
  atom -7.7614400000000003 1.7349699999999999 11.8825000000000003 H
  atom -2.6009500000000001 4.9204800000000004 9.5532900000000005 H
  atom 1.3361300000000000 3.8188900000000001 9.3958499999999994 H
  atom -3.7343999999999999 1.2017000000000000 11.7781000000000002 H
  atom -0.8789240000000000 6.0323799999999999 2.4119899999999999 C
  atom 0.1374380000000000 9.1373099999999994 4.7863899999999999 C
  atom 4.2558900000000000 11.8407000000000000 4.7815799999999999 C
  atom 3.1436999999999999 8.6491399999999992 2.4517600000000002 C
  atom -0.1442640000000000 6.9074400000000002 1.6207900000000000 C
  atom -0.5783160000000001 10.0276999999999994 5.5785700000000000 C
  atom 3.5459800000000001 10.9564000000000004 5.5778299999999996 C
  atom 3.9135000000000000 7.7668799999999996 1.6877000000000000 C
  atom 0.2834010000000000 6.5498700000000003 0.3226890000000000 C
  atom -0.9014290000000000 9.6119500000000002 6.9201699999999997 C
  atom 3.2391899999999998 11.2875999999999994 6.9208699999999999 C
  atom 4.3544600000000004 8.1623900000000003 0.4125800000000000 C
  atom -3.8296800000000002 7.5063500000000003 6.8598499999999998 C
  atom 3.1458100000000000 10.2905999999999995 0.6904010000000000 C
  atom 7.1079400000000001 10.4337000000000000 0.6839070000000000 C
  atom 0.3607450000000000 7.5360300000000002 6.5995499999999998 C
  atom -3.3810400000000000 7.2369300000000001 5.5587600000000004 C
  atom 2.7646899999999999 9.9036500000000007 1.9362800000000000 C
  atom 6.7336499999999999 10.8767999999999994 1.9299100000000000 C
  atom 0.5815740000000000 7.8906999999999998 5.2764100000000003 C
  atom -1.2234799999999999 6.3617400000000002 3.4039199999999998 H
  atom 0.2856440000000000 9.3954900000000006 3.7492200000000002 H
  atom 4.4272299999999998 11.5807000000000002 3.7615400000000001 H
  atom 2.8233799999999998 8.3005999999999993 3.4484699999999999 H
  atom 0.1323300000000000 7.8884100000000004 1.9954200000000000 H
  atom -0.8576060000000000 11.0375999999999994 5.2663799999999998 H
  atom 3.1008100000000001 10.0433000000000003 5.1467400000000003 H
  atom 4.2687099999999996 6.8301900000000000 2.0625599999999999 H
  atom -3.6513100000000001 8.4526199999999996 7.3803500000000000 H
  atom 2.8498700000000001 11.2460000000000004 0.2584960000000000 H
  atom 6.7291400000000001 9.4787599999999994 0.2845610000000000 H
  atom 0.7197920000000000 6.5922599999999996 6.9958299999999998 H
  atom -2.7268500000000002 7.9664500000000000 5.0669599999999999 H
  atom 2.1680999999999999 10.6085999999999991 2.5409299999999999 H
  atom 6.0501699999999996 10.3347999999999995 2.5828300000000000 H
  atom 1.2078300000000000 7.2781799999999999 4.6019699999999997 H
  atom -5.8577399999999997 5.7807700000000004 9.4710699999999992 C
  atom -4.6027899999999997 9.0003399999999996 12.0858000000000008 C
  atom -0.6330530000000000 11.6654999999999998 11.9745000000000008 C
  atom -1.6325000000000001 8.7465399999999995 9.5411699999999993 C
  atom -5.1172500000000003 6.7711699999999997 8.8528400000000005 C
  atom -5.4366599999999998 9.8200000000000003 12.8480000000000008 C
  atom -1.4970600000000001 10.8719999999999999 12.7410999999999994 C
  atom -0.8223220000000000 7.9571800000000001 8.7547499999999996 C
  atom -4.6733099999999999 6.5851300000000004 7.5456799999999999 C
  atom -5.8170200000000003 9.4475099999999994 14.1478000000000002 C
  atom -1.9209700000000001 11.2691999999999997 14.0457000000000001 C
  atom -0.4221770000000000 8.3757999999999999 7.4404700000000004 C
  atom -8.7705599999999997 7.4249700000000001 13.7164000000000001 C
  atom -1.6672400000000001 10.4379000000000008 7.7633099999999997 C
  atom 2.3844900000000000 10.4738000000000007 7.7020999999999997 C
  atom -4.5694200000000000 7.3315400000000004 13.8895999999999997 C
  atom -8.5308299999999999 7.0349100000000000 12.4062999999999999 C
  atom -2.0038999999999998 10.0109999999999992 9.0352300000000003 C
  atom 2.0802999999999998 10.8330000000000002 9.0065200000000001 C
  atom -4.1594899999999999 7.7688499999999996 12.6090999999999998 C
  atom -6.1664300000000001 5.9067200000000000 10.5056999999999992 H
  atom -4.2401999999999997 9.3659400000000002 11.1249000000000002 H
  atom -0.3367320000000000 11.3237000000000005 10.9846000000000004 H
  atom -2.0097999999999998 8.3693799999999996 10.4738000000000007 H
  atom -4.8758499999999998 7.6569500000000001 9.4608399999999993 H
  atom -5.7733299999999996 10.8346999999999998 12.4814000000000007 H
  atom -1.8537900000000000 9.8689199999999992 12.3485999999999994 H
  atom -0.5594530000000000 6.9463900000000001 9.0548000000000002 H
  atom -8.5237800000000004 8.4555699999999998 14.0111000000000008 H
  atom -1.9189400000000001 11.4458000000000002 7.4110600000000000 H
  atom 1.9912600000000000 9.5736699999999999 7.2284899999999999 H
  atom -4.2649699999999999 6.3884800000000004 14.3129000000000008 H
  atom -8.0513999999999992 7.8028399999999998 11.7513000000000005 H
  atom -2.6067700000000000 10.6928999999999998 9.6530199999999997 H
  atom 1.4296500000000001 10.1241000000000003 9.5367099999999994 H
  atom -3.4586800000000002 7.1471499999999999 12.0713000000000008 H
  
  -----------------------------------------------------------------------
  Completed first pass over input file geometry.in .
  -----------------------------------------------------------------------
  

  Basic array size parameters:
  | Number of species                 :        2
  | Number of atoms                   :      144
  | Number of lattice vectors         :        3
  | Max. basis fn. angular momentum   :        2
  | Max. atomic/ionic basis occupied n:        2
  | Max. number of basis fn. types    :        2
  | Max. radial fns per species/type  :        3
  | Max. logarithmic grid size        :     1277
  | Max. radial integration grid size :       34
  | Max. angular integration grid size:      302
  | Max. angular grid division number :        8
  | Radial grid for Hartree potential :     1277
  | Number of spin channels           :        1

------------------------------------------------------------
          Reading file control.in.
------------------------------------------------------------
  XC: Using Perdew-Wang parametrisation of Ceperley-Alder LDA.
  Spin treatment: No spin polarisation.
  Non-relativistic treatment of kinetic energy.
  Charge =   0.000000E+00: Neutral system requested explicitly.
  Found k-point grid:         2         1         1
  DFPT calculation will begin after the DFT/HF calculation.
  Charge density mixing - mixing parameter:     0.7500
  Forces will not be computed.
 
  Reading configuration options for species H                   .
  | Found nuclear charge :   1.0000
  | Found atomic mass :    1.00794000000000      amu
  | Found l_max for Hartree potential  :   4
  | Found cutoff potl. onset [A], width [A], scale factor :    3.50000    1.50000    1.00000
  | Threshold for basis-dependent cutoff potential is   0.100000E-03
  | Found data for basic radial integration grid :    24 points, outermost radius =    5.000 A
  | Found multiplier for basic radial grid :   1
  | Found angular grid specification: user-specified.
  | Specified grid contains     5 separate shells.
  | Check grid settings after all constraints further below.
  | Found free-atom valence shell :  1 s   1.000
  | No ionic wave fns used. Skipping ion_occ.
  | Found hydrogenic basis function :  2 s   2.100
  | Found hydrogenic basis function :  2 p   3.500
  Species H                   : Missing cutoff potential type.
  Defaulting to exp(1/x)/(1-x)^2 type cutoff potential.
  Species H : No 'logarithmic' tag. Using default grid for free atom:
  | Default logarithmic grid data [bohr] : 0.1000E-03 0.1000E+03 0.1012E+01
  Species H : On-site basis accuracy parameter (for Gram-Schmidt orthonormalisation) not specified.
  Using default value basis_acc =  0.1000000E-03.
  Species H                   : Using default innermost maximum threshold i_radial=  2 for radial functions.
  Species H                   : Default cutoff onset for free atom density etc. : 0.35000000E+01 AA.
  Species H                   : Basic radial grid will be enhanced according to radial_multiplier =   1, to contain    24 grid points.
 
  Reading configuration options for species C                   .
  | Found nuclear charge :   6.0000
  | Found atomic mass :    12.0107000000000      amu
  | Found l_max for Hartree potential  :   4
  | Found cutoff potl. onset [A], width [A], scale factor :    3.50000    1.50000    1.00000
  | Threshold for basis-dependent cutoff potential is   0.100000E-03
  | Found data for basic radial integration grid :    34 points, outermost radius =    5.000 A
  | Found multiplier for basic radial grid :   1
  | Found angular grid specification: user-specified.
  | Specified grid contains     5 separate shells.
  | Check grid settings after all constraints further below.
  | Found free-atom valence shell :  2 s   2.000
  | Found free-atom valence shell :  2 p   2.000
  | No ionic wave fns used. Skipping ion_occ.
  | No ionic wave fns used. Skipping ion_occ.
  | Found hydrogenic basis function :  2 p   1.700
  | Found hydrogenic basis function :  3 d   6.000
  | Found hydrogenic basis function :  2 s   4.900
  Species C                   : Missing cutoff potential type.
  Defaulting to exp(1/x)/(1-x)^2 type cutoff potential.
  Species C : No 'logarithmic' tag. Using default grid for free atom:
  | Default logarithmic grid data [bohr] : 0.1000E-03 0.1000E+03 0.1012E+01
  Species C : On-site basis accuracy parameter (for Gram-Schmidt orthonormalisation) not specified.
  Using default value basis_acc =  0.1000000E-03.
  Species C                   : Using default innermost maximum threshold i_radial=  2 for radial functions.
  Species C                   : Default cutoff onset for free atom density etc. : 0.35000000E+01 AA.
  Species C                   : Basic radial grid will be enhanced according to radial_multiplier =   1, to contain    34 grid points.
 
  Finished reading input file 'control.in'.
 
------------------------------------------------------------


------------------------------------------------------------
          Reading geometry description geometry.in.
------------------------------------------------------------
  | The smallest distance between any two atoms is         1.06650785 AA.
  | The first atom of this pair is atom number                     75 .
  | The second atom of this pair is atom number                    95 .
  | Wigner-Seitz cell of the first atom image           0     0     0 .
  | (The Wigner-Seitz cell of the second atom is 0 0 0  by definition.)

  Symmetry information by spglib:
  | Precision set to  0.1E-04
  | Number of Operations  : 1
  | Space group           : 1
  | International         : P1
  | Schoenflies           : C1^1
  Input structure read successfully.
  The structure contains      144 atoms,  and a total of        544.000 electrons.

  Input geometry:
  | Unit cell:
  |        8.10200000        0.00000000        0.00000000
  |        0.00000000       11.88000000        0.00000000
  |       -9.78509185        0.00000000       14.25711196
  | Atomic structure:
  |       Atom                x [A]            y [A]            z [A]
  |    1: Species C            -0.97985500        0.29673300        2.33761000
  |    2: Species C             0.25296200        2.98964000        4.83607000
  |    3: Species C             4.33487000        6.05310000        4.88846000
  |    4: Species C             3.20781000        2.79216000        2.33107000
  |    5: Species C            -0.19909700        1.08340000        1.54131000
  |    6: Species C            -0.52517000        3.87533000        5.54825000
  |    7: Species C             3.58307000        5.09630000        5.56166000
  |    8: Species C             3.86359000        1.89449000        1.51786000
  |    9: Species C             0.19587300        0.66540900        0.27225100
  |   10: Species C            -0.91939000        3.58964000        6.89367000
  |   11: Species C             3.07350000        5.35774000        6.85367000
  |   12: Species C             4.26291000        2.31750000        0.21140600
  |   13: Species C            -3.66821000        1.55255000        6.59839000
  |   14: Species C             3.16316000        4.49576000        0.56916700
  |   15: Species C             7.23961000        4.38764000        0.67296700
  |   16: Species C             0.30753400        1.45936000        6.76683000
  |   17: Species C            -3.34442000        1.20057000        5.29691000
  |   18: Species C             2.85935000        4.06470000        1.84872000
  |   19: Species C             6.85403000        4.73816000        1.96677000
  |   20: Species C             0.68672100        1.76291000        5.47788000
  |   21: Species H            -1.32159000        0.69033200        3.30182000
  |   22: Species H             0.51983700        3.26461000        3.80356000
  |   23: Species H             4.78086000        5.81816000        3.90238000
  |   24: Species H             2.98836000        2.59979000        3.38032000
  |   25: Species H             0.16578200        2.04441000        1.89551000
  |   26: Species H            -0.91221500        4.78990000        5.05482000
  |   27: Species H             3.31547000        4.17482000        5.08180000
  |   28: Species H             4.16876000        0.93002100        1.90542000
  |   29: Species H            -3.40067000        2.51602000        7.03284000
  |   30: Species H             2.83946000        5.48923000        0.22633300
  |   31: Species H             6.94564000        3.39641000        0.20941500
  |   32: Species H             0.57213700        0.52034600        7.22995000
  |   33: Species H            -2.77245000        1.89771000        4.66269000
  |   34: Species H             2.24506000        4.69090000        2.53568000
  |   35: Species H             6.15788000        4.10495000        2.52767000
  |   36: Species H             1.22308000        1.00197000        4.90378000
  |   37: Species C            -5.52253000        0.15089200        9.52330000
  |   38: Species C            -4.75298000        3.13916000       11.89300000
  |   39: Species C            -0.83811600        5.77152000       11.93560000
  |   40: Species C            -1.64186000        2.99409000        9.57006000
  |   41: Species C            -4.72591000        0.98182500        8.77549000
  |   42: Species C            -5.56819000        3.98977000       12.64950000
  |   43: Species C            -1.47640000        4.88087000       12.76530000
  |   44: Species C            -0.89378800        2.10754000        8.85075000
  |   45: Species C            -4.43294000        0.67247600        7.40891000
  |   46: Species C            -5.90426000        3.62653000       14.00470000
  |   47: Species C            -1.78433000        5.25517000       14.09180000
  |   48: Species C            -0.48929100        2.37196000        7.52501000
  |   49: Species C            -8.76556000        1.44039000       13.69660000
  |   50: Species C            -1.73952000        4.47389000        7.66472000
  |   51: Species C             2.31503000        4.36181000        7.53397000
  |   52: Species C            -4.72417000        1.44701000       13.64100000
  |   53: Species C            -8.34921000        1.02742000       12.46890000
  |   54: Species C            -2.07501000        4.18129000        8.97402000
  |   55: Species C             1.89856000        4.59715000        8.81962000
  |   56: Species C            -4.36411000        1.86792000       12.37790000
  |   57: Species H            -5.77253000        0.44916700       10.53290000
  |   58: Species H            -4.46753000        3.43258000       10.87600000
  |   59: Species H            -0.57081300        5.43783000       10.92580000
  |   60: Species H            -1.93187000        2.71217000       10.60320000
  |   61: Species H            -4.47364000        2.00862000        9.09420000
  |   62: Species H            -5.86537000        4.98301000       12.29920000
  |   63: Species H            -1.81501000        3.89148000       12.45030000
  |   64: Species H            -0.65268600        1.12542000        9.25340000
  |   65: Species H            -8.54618000        2.42011000       14.06550000
  |   66: Species H            -2.14566000        5.39152000        7.21369000
  |   67: Species H             2.07938000        3.40475000        7.05230000
  |   68: Species H            -4.39329000        0.49941900       14.06650000
  |   69: Species H            -7.76144000        1.73497000       11.88250000
  |   70: Species H            -2.60095000        4.92048000        9.55329000
  |   71: Species H             1.33613000        3.81889000        9.39585000
  |   72: Species H            -3.73440000        1.20170000       11.77810000
  |   73: Species C            -0.87892400        6.03238000        2.41199000
  |   74: Species C             0.13743800        9.13731000        4.78639000
  |   75: Species C             4.25589000       11.84070000        4.78158000
  |   76: Species C             3.14370000        8.64914000        2.45176000
  |   77: Species C            -0.14426400        6.90744000        1.62079000
  |   78: Species C            -0.57831600       10.02770000        5.57857000
  |   79: Species C             3.54598000       10.95640000        5.57783000
  |   80: Species C             3.91350000        7.76688000        1.68770000
  |   81: Species C             0.28340100        6.54987000        0.32268900
  |   82: Species C            -0.90142900        9.61195000        6.92017000
  |   83: Species C             3.23919000       11.28760000        6.92087000
  |   84: Species C             4.35446000        8.16239000        0.41258000
  |   85: Species C            -3.82968000        7.50635000        6.85985000
  |   86: Species C             3.14581000       10.29060000        0.69040100
  |   87: Species C             7.10794000       10.43370000        0.68390700
  |   88: Species C             0.36074500        7.53603000        6.59955000
  |   89: Species C            -3.38104000        7.23693000        5.55876000
  |   90: Species C             2.76469000        9.90365000        1.93628000
  |   91: Species C             6.73365000       10.87680000        1.92991000
  |   92: Species C             0.58157400        7.89070000        5.27641000
  |   93: Species H            -1.22348000        6.36174000        3.40392000
  |   94: Species H             0.28564400        9.39549000        3.74922000
  |   95: Species H             4.42723000       11.58070000        3.76154000
  |   96: Species H             2.82338000        8.30060000        3.44847000
  |   97: Species H             0.13233000        7.88841000        1.99542000
  |   98: Species H            -0.85760600       11.03760000        5.26638000
  |   99: Species H             3.10081000       10.04330000        5.14674000
  |  100: Species H             4.26871000        6.83019000        2.06256000
  |  101: Species H            -3.65131000        8.45262000        7.38035000
  |  102: Species H             2.84987000       11.24600000        0.25849600
  |  103: Species H             6.72914000        9.47876000        0.28456100
  |  104: Species H             0.71979200        6.59226000        6.99583000
  |  105: Species H            -2.72685000        7.96645000        5.06696000
  |  106: Species H             2.16810000       10.60860000        2.54093000
  |  107: Species H             6.05017000       10.33480000        2.58283000
  |  108: Species H             1.20783000        7.27818000        4.60197000
  |  109: Species C            -5.85774000        5.78077000        9.47107000
  |  110: Species C            -4.60279000        9.00034000       12.08580000
  |  111: Species C            -0.63305300       11.66550000       11.97450000
  |  112: Species C            -1.63250000        8.74654000        9.54117000
  |  113: Species C            -5.11725000        6.77117000        8.85284000
  |  114: Species C            -5.43666000        9.82000000       12.84800000
  |  115: Species C            -1.49706000       10.87200000       12.74110000
  |  116: Species C            -0.82232200        7.95718000        8.75475000
  |  117: Species C            -4.67331000        6.58513000        7.54568000
  |  118: Species C            -5.81702000        9.44751000       14.14780000
  |  119: Species C            -1.92097000       11.26920000       14.04570000
  |  120: Species C            -0.42217700        8.37580000        7.44047000
  |  121: Species C            -8.77056000        7.42497000       13.71640000
  |  122: Species C            -1.66724000       10.43790000        7.76331000
  |  123: Species C             2.38449000       10.47380000        7.70210000
  |  124: Species C            -4.56942000        7.33154000       13.88960000
  |  125: Species C            -8.53083000        7.03491000       12.40630000
  |  126: Species C            -2.00390000       10.01100000        9.03523000
  |  127: Species C             2.08030000       10.83300000        9.00652000
  |  128: Species C            -4.15949000        7.76885000       12.60910000
  |  129: Species H            -6.16643000        5.90672000       10.50570000
  |  130: Species H            -4.24020000        9.36594000       11.12490000
  |  131: Species H            -0.33673200       11.32370000       10.98460000
  |  132: Species H            -2.00980000        8.36938000       10.47380000
  |  133: Species H            -4.87585000        7.65695000        9.46084000
  |  134: Species H            -5.77333000       10.83470000       12.48140000
  |  135: Species H            -1.85379000        9.86892000       12.34860000
  |  136: Species H            -0.55945300        6.94639000        9.05480000
  |  137: Species H            -8.52378000        8.45557000       14.01110000
  |  138: Species H            -1.91894000       11.44580000        7.41106000
  |  139: Species H             1.99126000        9.57367000        7.22849000
  |  140: Species H            -4.26497000        6.38848000       14.31290000
  |  141: Species H            -8.05140000        7.80284000       11.75130000
  |  142: Species H            -2.60677000       10.69290000        9.65302000
  |  143: Species H             1.42965000       10.12410000        9.53671000
  |  144: Species H            -3.45868000        7.14715000       12.07130000

  Lattice parameters for 3D lattice (in Angstroms) :     8.102000   11.880000   17.292000
  Angle(s) between unit vectors (in degrees)       :    90.000000  124.463000   90.000000


  Quantities derived from the lattice vectors (in Angstrom^-1):
  | Reciprocal lattice vector 1:  0.775510  0.000000  0.532257
  | Reciprocal lattice vector 2:  0.000000  0.528888  0.000000
  | Reciprocal lattice vector 3: -0.000000  0.000000  0.440705
  | Unit cell volume                               :   0.137227E+04  Angstrom^3

  Fractional coordinates:
                         L1                L2                L3
       atom_frac         0.07708198        0.02497753        0.16396098  C
       atom_frac         0.44089172        0.25165320        0.33920404  C
       atom_frac         0.94914460        0.50952020        0.34287870  C
       atom_frac         0.59339603        0.23503030        0.16350226  C
       atom_frac         0.10599249        0.09119529        0.10810815  C
       atom_frac         0.40517941        0.32620623        0.38915665  C
       atom_frac         0.91338031        0.42898148        0.39009724  C
       atom_frac         0.60544850        0.15946886        0.10646336  C
       atom_frac         0.04723861        0.05601086        0.01909580  C
       atom_frac         0.47049451        0.30215825        0.48352500  C
       atom_frac         0.95993375        0.45098822        0.48071938  C
       atom_frac         0.54406374        0.19507576        0.01482811  C
       atom_frac         0.10620425        0.13068603        0.46281393  C
       atom_frac         0.43863203        0.37843098        0.03992162  C
       atom_frac         0.95056626        0.36932997        0.04720220  C
       atom_frac         0.61118444        0.12284175        0.47462838  C
       atom_frac         0.03591845        0.10105808        0.37152756  C
       atom_frac         0.50952642        0.34214646        0.12967002  C
       atom_frac         1.01257521        0.39883502        0.13795010  C
       atom_frac         0.54879752        0.14839310        0.38422087  C
       atom_frac         0.11658233        0.05810875        0.23159108  H
       atom_frac         0.38636590        0.27479882        0.26678334  H
       atom_frac         0.92065943        0.48974411        0.27371462  H
       atom_frac         0.65519341        0.21883754        0.23709711  H
       atom_frac         0.18103289        0.17208838        0.13295189  H
       atom_frac         0.31560880        0.40319024        0.35454726  H
       atom_frac         0.83970189        0.35141582        0.35643965  H
       atom_frac         0.67594520        0.07828460        0.13364698  H
       atom_frac         0.17602853        0.21178620        0.49328644  H
       atom_frac         0.36963704        0.46205640        0.01587509  H
       atom_frac         0.87501455        0.28589310        0.01468846  H
       atom_frac         0.68307489        0.04380017        0.50711182  H
       atom_frac         0.05278903        0.15973990        0.32704309  H
       atom_frac         0.49190011        0.39485690        0.17785369  H
       atom_frac         0.97416653        0.34553451        0.17729187  H
       atom_frac         0.56636561        0.08434091        0.34395325  H
       atom_frac         0.12510515        0.01270135        0.66796838  C
       atom_frac         0.42082813        0.26423906        0.83418016  C
       atom_frac         0.90763407        0.48581818        0.83716815  C
       atom_frac         0.60804305        0.25202778        0.67124815  C
       atom_frac         0.16008110        0.08264520        0.61551666  C
       atom_frac         0.38429383        0.33583923        0.88724140  C
       atom_frac         0.89913795        0.41084764        0.89536366  C
       atom_frac         0.63944117        0.17740236        0.62079543  C
       atom_frac         0.08047661        0.05660572        0.51966415  C
       atom_frac         0.45761464        0.30526347        0.98229572  C
       atom_frac         0.97350076        0.44235438        0.98840495  C
       atom_frac         0.57706164        0.19965993        0.52780746  C
       atom_frac         0.07835539        0.12124495        0.96068545  C
       atom_frac         0.43458550        0.37659007        0.53760678  C
       atom_frac         0.92394766        0.36715572        0.52843591  C
       atom_frac         0.57245932        0.12180219        0.95678564  C
       atom_frac         0.02574393        0.08648316        0.87457404  C
       atom_frac         0.50408965        0.35196044        0.62944164  C
       atom_frac         0.98145333        0.38696549        0.61861196  C
       atom_frac         0.50990141        0.15723232        0.86819126  C
       atom_frac         0.17977306        0.03780867        0.73878216  H
       atom_frac         0.36990883        0.28893771        0.76284734  H
       atom_frac         0.85508487        0.45772980        0.76634034  H
       atom_frac         0.65976677        0.22829714        0.74371303  H
       atom_frac         0.21821618        0.16907576        0.63787112  H
       atom_frac         0.31793965        0.41944529        0.86267121  H
       atom_frac         0.83066052        0.32756566        0.87326943  H
       atom_frac         0.70330848        0.09473232        0.64903748  H
       atom_frac         0.13668263        0.20371296        0.98656025  H
       atom_frac         0.34624982        0.45383165        0.50597134  H
       atom_frac         0.85405938        0.28659512        0.49465137  H
       atom_frac         0.64934325        0.04203864        0.98663039  H
       atom_frac         0.04861553        0.14604125        0.83344369  H
       atom_frac         0.48824550        0.41418182        0.67007189  H
       atom_frac         0.96084783        0.32145539        0.65902898  H
       atom_frac         0.53681438        0.10115320        0.82612103  H
       atom_frac         0.09584035        0.50777609        0.16917802  C
       atom_frac         0.42242456        0.76913384        0.33571946  C
       atom_frac         0.93034245        0.99669192        0.33538209  C
       atom_frac         0.59570697        0.72804209        0.17196751  C
       atom_frac         0.11949318        0.58143434        0.11368291  C
       atom_frac         0.40118824        0.84408249        0.39128331  C
       atom_frac         0.91017221        0.92225589        0.39123141  C
       atom_frac         0.62599606        0.65377778        0.11837601  C
       atom_frac         0.06231453        0.55133586        0.02263355  C
       atom_frac         0.47495622        0.80908670        0.48538372  C
       atom_frac         0.98607686        0.95013468        0.48543282  C
       atom_frac         0.57240512        0.68706987        0.02893854  C
       atom_frac         0.10842320        0.63184764        0.48115285  C
       atom_frac         0.44676047        0.86621212        0.04842502  C
       atom_frac         0.93524146        0.87825758        0.04796953  C
       atom_frac         0.60358158        0.63434596        0.46289529  C
       atom_frac         0.05358022        0.60916919        0.38989383  C
       atom_frac         0.50526020        0.83364057        0.13581152  C
       atom_frac         0.99459470        0.91555556        0.13536472  C
       atom_frac         0.51875284        0.66420034        0.37008968  C
       atom_frac         0.13734070        0.53550000        0.23875242  H
       atom_frac         0.35285711        0.79086616        0.26297191  H
       atom_frac         0.86508145        0.97480640        0.26383604  H
       atom_frac         0.64060360        0.69870370        0.24187718  H
       atom_frac         0.18536753        0.66400758        0.13995962  H
       atom_frac         0.34027050        0.92909091        0.36938617  H
       atom_frac         0.81870835        0.84539562        0.36099457  H
       atom_frac         0.70159319        0.57493182        0.14466885  H
       atom_frac         0.17453096        0.71150000        0.51766094  H
       atom_frac         0.37364647        0.94663300        0.01813102  H
       atom_frac         0.85465847        0.79787542        0.01995923  H
       atom_frac         0.68146680        0.55490404        0.49069054  H
       atom_frac         0.09266349        0.67057660        0.35539877  H
       atom_frac         0.48284596        0.89297980        0.17822193  H
       atom_frac         0.96554495        0.86993266        0.18116081  H
       atom_frac         0.53891665        0.61264141        0.32278417  H
       atom_frac         0.07930695        0.48659680        0.66430495  C
       atom_frac         0.45569786        0.75760438        0.84770324  C
       atom_frac         0.93623950        0.98194444        0.83989661  C
       atom_frac         0.60675101        0.73624074        0.66922179  C
       atom_frac         0.11833186        0.56996380        0.62094203  C
       atom_frac         0.41734328        0.82659933        0.90116428  C
       atom_frac         0.89453795        0.91515152        0.89366627  C
       atom_frac         0.64012967        0.66979630        0.61406195  C
       atom_frac         0.06239458        0.55430387        0.52925726  C
       atom_frac         0.48050453        0.79524495        0.99233281  C
       atom_frac         0.95273060        0.94858586        0.98517147  C
       atom_frac         0.57818379        0.70503367        0.52187778  C
       atom_frac         0.07941554        0.62499747        0.96207423  C
       atom_frac         0.45185843        0.87861111        0.54452192  C
       atom_frac         0.94676336        0.88163300        0.54022863  C
       atom_frac         0.61261875        0.61713300        0.97422255  C
       atom_frac        -0.00197568        0.59216414        0.87018325  C
       atom_frac         0.51805167        0.84267677        0.63373494  C
       atom_frac         1.01971736        0.91186869        0.63172121  C
       atom_frac         0.55474214        0.65394360        0.88440773  C
       atom_frac         0.12885129        0.49719865        0.73687434  H
       atom_frac         0.41905196        0.78837879        0.78030530  H
       atom_frac         0.88895764        0.95317340        0.77046460  H
       atom_frac         0.63918652        0.70449327        0.73463686  H
       atom_frac         0.19963142        0.64452441        0.66358741  H
       atom_frac         0.34473419        0.91201178        0.87545079  H
       atom_frac         0.81725892        0.83071717        0.86613615  H
       atom_frac         0.69799224        0.58471296        0.63510759  H
       atom_frac         0.13483909        0.71174832        0.98274461  H
       atom_frac         0.39095249        0.96345118        0.51981495  H
       atom_frac         0.85810833        0.80586448        0.50700942  H
       atom_frac         0.68605417        0.53775084        1.00391300  H
       atom_frac         0.00171272        0.65680471        0.82424127  H
       atom_frac         0.49597541        0.90007576        0.67706700  H
       atom_frac         0.98432309        0.85219697        0.66890896  H
       atom_frac         0.59568283        0.60161195        0.84668620  H

 
  Finished reading input file 'geometry.in'.
 

 
  Consistency checks for stacksize environment parameter are next.
 
  | Maximum stacksize for task 0: unlimited
  | Maximum stacksize for task 1: unlimited
  | Maximum stacksize for task 2: unlimited
  | Maximum stacksize for task 3: unlimited
  | Maximum stacksize for task 4: unlimited
  | Maximum stacksize for task 5: unlimited
  | Maximum stacksize for task 6: unlimited
  | Maximum stacksize for task 7: unlimited
  | Maximum stacksize for task 8: unlimited
  | Maximum stacksize for task 9: unlimited
  | Maximum stacksize for task 10: unlimited
  | Maximum stacksize for task 11: unlimited
  | Maximum stacksize for task 12: unlimited
  | Maximum stacksize for task 13: unlimited
  | Maximum stacksize for task 14: unlimited
  | Maximum stacksize for task 15: unlimited
  | Maximum stacksize for task 16: unlimited
  | Maximum stacksize for task 17: unlimited
  | Current stacksize for task 0: unlimited
  | Current stacksize for task 1: unlimited
  | Current stacksize for task 2: unlimited
  | Current stacksize for task 3: unlimited
  | Current stacksize for task 4: unlimited
  | Current stacksize for task 5: unlimited
  | Current stacksize for task 6: unlimited
  | Current stacksize for task 7: unlimited
  | Current stacksize for task 8: unlimited
  | Current stacksize for task 9: unlimited
  | Current stacksize for task 10: unlimited
  | Current stacksize for task 11: unlimited
  | Current stacksize for task 12: unlimited
  | Current stacksize for task 13: unlimited
  | Current stacksize for task 14: unlimited
  | Current stacksize for task 15: unlimited
  | Current stacksize for task 16: unlimited
  | Current stacksize for task 17: unlimited
 
  Consistency checks for the contents of control.in are next.
 
  MPI_IN_PLACE appears to work with this MPI implementation.
  | Keeping use_mpi_in_place .true. (see manual).
  Explicit treatment of the Coulomb operator is needed, but the RI method is not specified.
  Coulomb operator: Defaulting to 'LVL fast' resolution of identity - RI_type = LVL_fast
  Species H: Using default value for prodbas_acc =   1.000000E-06.
  Species H: Using default value max_l_prodbas =     6.
  Species C: Using default value for prodbas_acc =   1.000000E-06.
  Species C: Using default value max_l_prodbas =     6.
  Target number of points in a grid batch is not set.  Since GPU acceleration is enabled, defaulting to  200
  Method for grid partitioning is not set. Defaulting to parallel hash+maxmin partitioning.
  Batch size limit is not set. Defaulting to    200
  By default, will store active basis functions for each batch.
  If in need of memory, prune_basis_once .false. can be used to disable this option.
  communication_type for Hartree potential was not specified.
  Defaulting to calc_hartree .
  Defaulting to Pulay charge density mixer.
  Pulay mixer: Number of relevant iterations not set.
  Defaulting to    8 iterations.
  Pulay mixer: Number of initial linear mixing iterations not set.
  Defaulting to    0 iterations.
  Work space size for distributed Hartree potential not set.
  Defaulting to   0.200000E+03 MB.
  Algorithm-dependent basis array size parameters:
  | n_max_pulay                         :        8
  Maximum number of self-consistency iterations not provided.
  Presetting  1000 iterations.
  Presetting      1001 iterations before the initial mixing cycle
  is restarted anyway using the sc_init_iter criterion / keyword.
  Presetting a factor      1.000 between actual scf density residual
  and density convergence criterion sc_accuracy_rho below which sc_init_iter
  takes no effect.
 * No s.c.f. convergence criteria (sc_accuracy_*) were provided in control.in.
 * The run will proceed with a reasonable default guess, but please check whether.
 * the s.c.f. cycles seem to take too much or too little time.
  Geometry relaxation not requested: no relaxation will be performed.
 * Notice: The s.c.f. convergence criterion sc_accuracy_rho was not provided.
 * We used to stop in this case, and ask the user to provide reasonable
 * scf convergence criteria. However, this led some users to employ criteria
 * that led to extremely long run times, e.g., for simple relaxation.
 * We now preset a default value for sc_accuracy_rho if it is not set.
 * You may still wish to check if this setting is too tight or too loose for your needs.
 * Based on n_atoms and forces and force-correction status, FHI-aims chose sc_accuracy_rho =  0.391918E-04 .
  No accuracy limit for integral partition fn. given. Defaulting to  0.1000E-14.
  No threshold value for u(r) in integrations given. Defaulting to  0.1000E-05.
  No occupation type (smearing scheme) given. Defaulting to Gaussian broadening, width =  0.1000E-01 eV.
  The width will be adjusted in iteration number     2 of the first full s.c.f. cycle only.
  S.C.F. convergence parameters will be adjusted in iteration number     2 of the first full s.c.f. cycle only.
  No accuracy for occupation numbers given. Defaulting to  0.1000E-12.
  No threshold value for occupation numbers given. Defaulting to  0.0000E+00.
  No accuracy for fermi level given. Defaulting to  0.1000E-19.
  Maximum # of iterations to find E_F not set. Defaulting to  200.
  Preferred method for the eigenvalue solver ('KS_method') not specified in 'control.in'.
  Calling BLACS routine to test compilation state
  Since ScaLAPACK support is enabled, defaulting to ELPA (via ELSI).
  Will not use alltoall communication since running on < 1024 CPUs.
  Threshold for basis singularities not set.
  Default threshold for basis singularities:  0.1000E-04
  partition_type (choice of integration weights) for integrals was not specified.
  | Using a version of the partition function of Stratmann and coworkers ('stratmann_sparse').
  | At each grid point, the set of atoms used to build the partition table is smoothly restricted to
  | only those atoms whose free-atom density would be non-zero at that grid point.
  Partitioning for Hartree potential was not defined. Using partition_type for integrals.
  | Adjusted default value of keyword multip_moments_threshold to:       0.10000000E-11
  | This value may affect high angular momentum components of the Hartree potential in periodic systems.
  Angular momentum expansion for Kerker preconditioner not set explicitly.
  | Using default value of   0
  No explicit requirement for turning off preconditioner.
  | By default, it will be turned off when the charge convergence reaches
  | sc_accuracy_rho  =   0.391918E-04
  No special mixing parameter while Kerker preconditioner is on.
  Using default: charge_mix_param =     0.7500.
  Threshold for auxiliary basis singularities not set.
  Default threshold for auxiliary basis singularities:  0.1000E-04
  No q(lm)/r^(l+1) cutoff set for long-range Hartree potential.
  | Using default value of  0.100000E-09 .
  | Verify using the multipole_threshold keyword.
  Defaulting to new monopole extrapolation.
  Density update method: automatic selection selected.
  Using density matrix based charge density update.
  Using density matrix based charge density update.
  Using packed matrix style: index .
  Defaulting to use time-reversal symmetry for k-point grid.
  Charge integration errors on the 3D integration grid will be compensated
  by explicit normalization and distribution of residual charges.
  Use the "compensate_multipole_errors" flag to change this behaviour.
  Default to 1D ("use_logsbt") integrations for auxiliary 2-center integrals.
  Default onset of logarithmic r-grid for SBT is -38.000000000000
  Default onset of logarithmic k-grid for SBT is -25.000000000000
  Default range of logarithmic r- and k-grid for SBT is  45.000000000000
  Default number of logarithmic r- and k-grid for SBT is   4096
  Default of use_2d_corr is to use the efficient 2D distribution where possible
 
  Consistency checks for the contents of geometry.in are next.
 

  Range separation radius for Ewald summation (hartree_convergence_parameter):      2.91768261 bohr.
  Number of empty states per atom not set in control.in .
  | Since you are using a method that relies on the unoccupied spectrum
  | (MP2,GW,RPA et al.), will use the full Hamiltonian size (see below)
  | as the max. possible number of states (occupied plus empty).

  Structure-dependent array size parameters: 
  | Maximum number of distinct radial functions  :        9
  | Maximum number of basis functions            :     1440
  | Number of Kohn-Sham states (occupied + empty):     1440
------------------------------------------------------------
CUDA runtime version: 11060
CUDA driver version: 11060
  Initializing GPUs...

  Number of GPUs available to MPI task         0 :   1
  Number of GPUs available to MPI task         1 :   1
  Number of GPUs available to MPI task         2 :   1
  Number of GPUs available to MPI task         3 :   1
  Number of GPUs available to MPI task         4 :   1
  Number of GPUs available to MPI task         5 :   1
  Number of GPUs available to MPI task         6 :   1
  Number of GPUs available to MPI task         7 :   1
  Number of GPUs available to MPI task         8 :   1
  Number of GPUs available to MPI task         9 :   1
  Number of GPUs available to MPI task        10 :   1
  Number of GPUs available to MPI task        11 :   1
  Number of GPUs available to MPI task        12 :   1
  Number of GPUs available to MPI task        13 :   1
  Number of GPUs available to MPI task        14 :   1
  Number of GPUs available to MPI task        15 :   1
  Number of GPUs available to MPI task        16 :   1
  Number of GPUs available to MPI task        17 :   1

  | MPI task         0, GPU activated = T, Device Name = NVIDIA A100-SXM4-80GB
  | MPI task         1, GPU activated = T, Device Name = NVIDIA A100-SXM4-80GB
  | MPI task         2, GPU activated = T, Device Name = NVIDIA A100-SXM4-80GB
  | MPI task         3, GPU activated = T, Device Name = NVIDIA A100-SXM4-80GB
  | MPI task         4, GPU activated = T, Device Name = NVIDIA A100-SXM4-80GB
  | MPI task         5, GPU activated = T, Device Name = NVIDIA A100-SXM4-80GB
  | MPI task         6, GPU activated = T, Device Name = NVIDIA A100-SXM4-80GB
  | MPI task         7, GPU activated = T, Device Name = NVIDIA A100-SXM4-80GB
  | MPI task         8, GPU activated = T, Device Name = NVIDIA A100-SXM4-80GB
  | MPI task         9, GPU activated = T, Device Name = NVIDIA A100-SXM4-80GB
  | MPI task        10, GPU activated = T, Device Name = NVIDIA A100-SXM4-80GB
  | MPI task        11, GPU activated = T, Device Name = NVIDIA A100-SXM4-80GB
  | MPI task        12, GPU activated = T, Device Name = NVIDIA A100-SXM4-80GB
  | MPI task        13, GPU activated = T, Device Name = NVIDIA A100-SXM4-80GB
  | MPI task        14, GPU activated = T, Device Name = NVIDIA A100-SXM4-80GB
  | MPI task        15, GPU activated = T, Device Name = NVIDIA A100-SXM4-80GB
  | MPI task        16, GPU activated = T, Device Name = NVIDIA A100-SXM4-80GB
  | MPI task        17, GPU activated = T, Device Name = NVIDIA A100-SXM4-80GB

------------------------------------------------------------
          Preparing all fixed parts of the calculation.
------------------------------------------------------------
  Determining machine precision:
    2.225073858507201E-308
  Setting up grids for atomic and cluster calculations.

  Creating wave function, potential, and density for free atoms.
  Runtime choices for atomic solver:
  | atomic solver xc        : PW-LDA
  | compute density gradient: 0
  | compute kinetic density : F

  Species: H

  List of occupied orbitals and eigenvalues:
    n    l              occ      energy [Ha]    energy [eV]
    1    0           1.0000        -0.232375        -6.3233


  Species: C

  List of occupied orbitals and eigenvalues:
    n    l              occ      energy [Ha]    energy [eV]
    1    0           2.0000        -9.944615      -270.6068
    2    0           2.0000        -0.498807       -13.5732
    2    1           2.0000        -0.196968        -5.3598


  Adding cutoff potential to free-atom effective potential.
  Creating fixed part of basis set: Ionic, confined, hydrogenic.
 
  H                    hydrogenic:
 
  List of hydrogenic basis orbitals: 
    n    l      effective z      eigenvalue [eV]  inner max. [A]     outer max. [A]     outer radius [A]   
    2    0         2.100000       -14.9728           0.193243           1.317208           4.583499
    2    1         3.500000       -41.6669           0.602369           0.602369           3.723403
 
 
  C                    hydrogenic:
 
  List of hydrogenic basis orbitals: 
    n    l      effective z      eigenvalue [eV]  inner max. [A]     outer max. [A]     outer radius [A]   
    2    1         1.700000        -9.7616           1.230570           1.230570           4.607917
    3    2         6.000000       -54.4224           0.792453           0.792453           3.883070
    2    0         4.900000       -81.6679           0.082559           0.562749           3.078220
 
  Creating atomic-like basis functions for current effective potential.

  Species H                   :

  List of atomic basis orbitals and eigenvalues:
    n    l      energy [Ha]    energy [eV]    outer radius [A]
    1    0        -0.232375        -6.3233       4.527807


  Species C                   :

  List of atomic basis orbitals and eigenvalues:
    n    l      energy [Ha]    energy [eV]    outer radius [A]
    1    0        -9.944615      -270.6068       1.934409
    2    0        -0.498807       -13.5732       4.496620
    2    1        -0.196968        -5.3598       4.551928

  Assembling full basis from fixed parts.
  | Species H :   atomic orbital   1 s accepted.
  | Species H :    hydro orbital   2 s accepted.
  | Species H :    hydro orbital   2 p accepted.
  | Species C :   atomic orbital   1 s accepted.
  | Species C :    hydro orbital   2 s accepted.
  | Species C :   atomic orbital   2 s accepted.
  | Species C :   atomic orbital   2 p accepted.
  | Species C :    hydro orbital   2 p accepted.
  | Species C :    hydro orbital   3 d accepted.
 
  Basis size parameters after reduction:
  | Total number of radial functions:        9
  | Total number of basis functions :     1440
 
  Per-task memory consumption for arrays in subroutine allocate_ext:
  |           2.242384MB.
  Testing on-site integration grid accuracy.
  |  Species  Function  <phi|h_atom|phi> (log., in eV)  <phi|h_atom|phi> (rad., in eV)
           1        1                 -6.3245358373                 -6.3232436907
           1        2                 14.1326137532                 14.1384481100
           1        3                 25.3627025200                 25.3628451197
           2        4               -270.6067544938               -270.6067222788
           2        5                -10.5634280949                -10.5635685736
           2        6                 16.2089822398                 16.2052121796
           2        7                 -5.3613872565                 -5.3627872378
           2        8                  8.5292058327                  8.5051734780
           2        9                 27.4884461005                 27.4884542459

  Preparing densities etc. for the partition functions (integrals / Hartree potential).

  Preparations completed.
  max(cpu_time)          :      0.080 s.
  Wall clock time (cpu1) :      0.073 s.
------------------------------------------------------------

  Initializing index lists of integration centers etc. from given atomic structure:
  Mapping all atomic coordinates to central unit cell.

  Initializing the k-points
  Using symmetry for reducing the k-points
  | k-points reduced from:        2 to        2
  | Number of k-points                             :         2
  | Consuming          0 KiB for k_phase_exx.
  The eigenvectors in the calculations are REAL.
  | Number of basis functions in the Hamiltonian integrals :      8036
  | Number of basis functions in a single unit cell        :      1440
  | Number of centers in hartree potential         :      3325
  | Number of centers in hartree multipole         :      2557
  | Number of centers in electron density summation:      1987
  | Number of centers in basis integrals           :      2117
  | Number of centers in integrals                 :       962
  | Number of centers in hamiltonian               :      1991
  | Consuming          1 KiB for k_phase.
  | Number of super-cells (origin) [n_cells]                     :         175
  | Number of super-cells (after PM_index) [n_cells]             :          40
  | Number of super-cells in hamiltonian [n_cells_in_hamiltonian]:          40
  | Size of matrix packed + index [n_hamiltonian_matrix_size] :     1931407
  | Size of matrix packed + index (no_symmetry):     3859997

------------------------------------------------------------
          Begin self-consistency loop: Initialization.

          Date     :  20230119, Time     :  194106.808
------------------------------------------------------------
  | Estimated reciprocal-space cutoff momentum G_max:         3.24344278 bohr^-1 .
  | Reciprocal lattice points for long-range Hartree potential:    5310
  Using simple linear distribution as default method for k-point parallelism.
  * Using 18 tasks for Scalapack Eigenvalue solver.
  Detailed listing of tasks and assigned k-points:
   Task     0 k-point     1 on adag015
   Task     1 k-point     1 on adag015
   Task     2 k-point     1 on adag015
   Task     3 k-point     1 on adag015
   Task     4 k-point     1 on adag015
   Task     5 k-point     1 on adag015
   Task     6 k-point     1 on adag015
   Task     7 k-point     1 on adag015
   Task     8 k-point     1 on adag015
   Task     9 k-point     2 on adag015
   Task    10 k-point     2 on adag015
   Task    11 k-point     2 on adag015
   Task    12 k-point     2 on adag015
   Task    13 k-point     2 on adag015
   Task    14 k-point     2 on adag015
   Task    15 k-point     2 on adag015
   Task    16 k-point     2 on adag015
   Task    17 k-point     2 on adag015
  K-point:     1 Tasks:     9 split into      3 X      3 BLACS grid
  Calculating block size based on n_basis =         1440  max_nprow =            3  max_npcol =            3
  ScaLAPACK block size set to:           16
  Allocating        1.758 MB for ovlp
  Allocating        1.758 MB for ham
  Allocating        1.758 MB for eigenvec
  Required Scalapack workspace - INTEGER:            1  REAL:             1
  Partitioning the integration grid into batches with parallel hashing+maxmin method.
  | Number of batches:     5632
  | Maximal batch size:     189
  | Minimal batch size:     101
  | Average batch size:     135.625
  | Standard deviation of batch sizes:      30.581

  Integration load balanced across    18 MPI tasks.
  Work distribution over tasks is as follows:
  Task     0 has      42413 integration points.
  Task     1 has      42375 integration points.
  Task     2 has      42441 integration points.
  Task     3 has      42431 integration points.
  Task     4 has      42431 integration points.
  Task     5 has      42435 integration points.
  Task     6 has      42457 integration points.
  Task     7 has      42455 integration points.
  Task     8 has      42437 integration points.
  Task     9 has      42447 integration points.
  Task    10 has      42425 integration points.
  Task    11 has      42434 integration points.
  Task    12 has      42449 integration points.
  Task    13 has      42445 integration points.
  Task    14 has      42450 integration points.
  Task    15 has      42408 integration points.
  Task    16 has      42427 integration points.
  Task    17 has      42480 integration points.
  Initializing partition tables, free-atom densities, potentials, etc. across the integration grid (initialize_grid_storage).
  | initialize_grid_storage: Actual outermost partition radius vs. multipole_radius_free
  | (-- VB: in principle, multipole_radius_free should be larger, hence this output)
  | Species        1: Confinement radius =              4.999999999999999 AA, multipole_radius_free =              5.054417573612229 AA.
  | Species        1: outer_partition_radius set to              5.054417573612229 AA .
  | Species        2: Confinement radius =              4.999999999999999 AA, multipole_radius_free =              5.019602836301480 AA.
  | Species        2: outer_partition_radius set to              5.019602836301480 AA .
  | The sparse table of interatomic distances needs       7612.90 kbyte instead of     35853.51 kbyte of memory.
  | Net number of integration points:   763840
  | of which are non-zero points    :   605300
  | Numerical average free-atom electrostatic potential    :     -8.61476438 eV
  Renormalizing the initial density to the exact electron count on the 3D integration grid.
  | Initial density: Formal number of electrons (from input files) :     544.0000000000
  | Integrated number of electrons on 3D grid     :     544.0027721668
  | Charge integration error                      :       0.0027721668
  | Normalization factor for density and gradient :       0.9999949041
  Renormalizing the free-atom superposition density to the exact electron count on the 3D integration grid.
  | Formal number of electrons (from input files) :     544.0000000000
  | Integrated number of electrons on 3D grid     :     544.0027721668
  | Charge integration error                      :       0.0027721668
  | Normalization factor for density and gradient :       0.9999949041
  Obtaining max. number of non-zero basis functions in each batch (get_n_compute_maxes).
  | Maximal number of non-zero basis functions:      575 in task     0
  | Maximal number of non-zero basis functions:      550 in task     1
  | Maximal number of non-zero basis functions:      537 in task     2
  | Maximal number of non-zero basis functions:      539 in task     3
  | Maximal number of non-zero basis functions:      534 in task     4
  | Maximal number of non-zero basis functions:      563 in task     5
  | Maximal number of non-zero basis functions:      536 in task     6
  | Maximal number of non-zero basis functions:      538 in task     7
  | Maximal number of non-zero basis functions:      537 in task     8
  | Maximal number of non-zero basis functions:      544 in task     9
  | Maximal number of non-zero basis functions:      541 in task    10
  | Maximal number of non-zero basis functions:      552 in task    11
  | Maximal number of non-zero basis functions:      542 in task    12
  | Maximal number of non-zero basis functions:      550 in task    13
  | Maximal number of non-zero basis functions:      540 in task    14
  | Maximal number of non-zero basis functions:      554 in task    15
  | Maximal number of non-zero basis functions:      531 in task    16
  | Maximal number of non-zero basis functions:      548 in task    17
  Integrating Hamiltonian matrix: batch-based integration.
  GPU acceleration will be used when integrating the Hamiltonian matrix.
  Reporting GPU memory usage by myid 0.  Note that it is likely not the only MPI task binding to its GPU!
  Allocating        2.645 MB on GPU for hamiltonian_shell
  Allocating        0.869 MB on GPU for wave
  Allocating        0.002 MB on GPU for partition
  Allocating        0.869 MB on GPU for h_times_psi
  Time summed over all CPUs for integration: real work       31.229 s, elapsed       31.778 s
  Deallocating memory used on GPU for Hamiltonian integration.
  Integrating overlap matrix.
  Time summed over all CPUs for integration: real work       25.654 s, elapsed       26.618 s
  Deallocating overlap matrix.

  Updating Kohn-Sham eigenvalues and eigenvectors using ELSI and the ELPA eigensolver.
  Singularity check in k-point 1 (analysis for other k-points may follow below):
  Overlap matrix is not singular
  | Lowest and highest eigenvalues :  0.7827E-03,  0.8210E+01
  Finished singularity check of overlap matrix
  | Time :     0.111 s
  Starting ELPA eigensolver
  Finished Cholesky decomposition
  | Time :     0.019 s
  Finished transformation to standard eigenproblem
  | Time :     0.029 s
  Finished solving standard eigenproblem
  | Time :     0.240 s
  Finished back-transformation of eigenvectors
  | Time :     0.021 s

  Obtaining occupation numbers and electronic chemical potential using ELSI.
  | Note that, for insulating systems, the printed 'chemical potential' value is not uniquely defined.
  | It can be anywhere in the energy gap, as long as it correctly separates occupied and unoccupied states.
  | In systems with a gap, the physically relevant chemical potential is the VBM or HOMO.

  | Chemical potential (Fermi level):    -8.50446164 eV
  Writing Kohn-Sham eigenvalues.
  K-point:       1 at    0.000000    0.000000    0.000000 (in units of recip. lattice)

  State    Occupation    Eigenvalue [Ha]    Eigenvalue [eV]
      1       2.00000         -10.072855         -274.09634
      2       2.00000         -10.071374         -274.05602
      3       2.00000         -10.071008         -274.04608
      4       2.00000         -10.069474         -274.00432
      5       2.00000         -10.068848         -273.98730
      6       2.00000         -10.068208         -273.96989
      7       2.00000         -10.068116         -273.96739
      8       2.00000         -10.067570         -273.95253
      9       2.00000         -10.067559         -273.95222
     10       2.00000         -10.067304         -273.94528
     11       2.00000         -10.066981         -273.93649
     12       2.00000         -10.066856         -273.93309
     13       2.00000         -10.066507         -273.92360
     14       2.00000         -10.065974         -273.90910
     15       2.00000         -10.065960         -273.90871
     16       2.00000         -10.065913         -273.90742
     17       2.00000         -10.065519         -273.89671
     18       2.00000         -10.065507         -273.89639
     19       2.00000         -10.065477         -273.89557
     20       2.00000         -10.065359         -273.89235
     21       2.00000         -10.065297         -273.89067
     22       2.00000         -10.065167         -273.88713
     23       2.00000         -10.065123         -273.88593
     24       2.00000         -10.064917         -273.88032
     25       2.00000         -10.064556         -273.87049
     26       2.00000         -10.064545         -273.87019
     27       2.00000         -10.064538         -273.87002
     28       2.00000         -10.064026         -273.85609
     29       2.00000         -10.063949         -273.85400
     30       2.00000         -10.063866         -273.85171
     31       2.00000         -10.063826         -273.85063
     32       2.00000         -10.063745         -273.84844
     33       2.00000         -10.063741         -273.84833
     34       2.00000         -10.063477         -273.84115
     35       2.00000         -10.063006         -273.82833
     36       2.00000         -10.062880         -273.82491
     37       2.00000         -10.062793         -273.82254
     38       2.00000         -10.062778         -273.82213
     39       2.00000         -10.062720         -273.82054
     40       2.00000         -10.061932         -273.79910
     41       2.00000         -10.061924         -273.79887
     42       2.00000         -10.061815         -273.79590
     43       2.00000         -10.061537         -273.78836
     44       2.00000         -10.061524         -273.78800
     45       2.00000         -10.061070         -273.77565
     46       2.00000         -10.061067         -273.77557
     47       2.00000         -10.060972         -273.77299
     48       2.00000         -10.060908         -273.77124
     49       2.00000         -10.060885         -273.77060
     50       2.00000         -10.060782         -273.76781
     51       2.00000         -10.060628         -273.76361
     52       2.00000         -10.060515         -273.76054
     53       2.00000         -10.060345         -273.75593
     54       2.00000         -10.060304         -273.75479
     55       2.00000         -10.059948         -273.74510
     56       2.00000         -10.059902         -273.74387
     57       2.00000         -10.059777         -273.74045
     58       2.00000         -10.059459         -273.73180
     59       2.00000         -10.059359         -273.72909
     60       2.00000         -10.059108         -273.72225
     61       2.00000         -10.059031         -273.72017
     62       2.00000         -10.058771         -273.71308
     63       2.00000         -10.058642         -273.70959
     64       2.00000         -10.058182         -273.69707
     65       2.00000         -10.057915         -273.68978
     66       2.00000         -10.057571         -273.68044
     67       2.00000         -10.057410         -273.67604
     68       2.00000         -10.057386         -273.67540
     69       2.00000         -10.057334         -273.67397
     70       2.00000         -10.057145         -273.66884
     71       2.00000         -10.056875         -273.66150
     72       2.00000         -10.056769         -273.65862
[...]
  |    H      0     4.527807 A      4.583499 A        4.713786E-16 a.u.
  |    H      2     3.678162 A  1.011968E+04 A            0.556529 a.u.
  |    H      1     3.958095 A  1.721251E+06 A            0.841931 a.u.
  |    H      0     4.527807 A  3.866455E+12 A            0.581436 a.u.
  |    C      0     2.562483 A      2.562483 A        6.563029E-17 a.u.
  |    C      0     2.967371 A      2.967371 A        1.352164E-16 a.u.
  |    C      0     3.003870 A      3.003870 A        2.312640E-17 a.u.
  |    C      1     3.272245 A      3.272245 A       -3.835259E-17 a.u.
  |    C      0     3.312494 A      3.312494 A       -2.710381E-16 a.u.
  |    C      3     4.077671 A      4.077671 A       -1.683752E-15 a.u.
  |    C      3     4.077671 A      4.077671 A        1.412852E-15 a.u.
  |    C      1     4.496620 A      4.496620 A       -3.011059E-16 a.u.
  |    C      0     4.496620 A      4.551928 A        2.873903E-17 a.u.
  |    C      2     4.551928 A      4.551928 A       -4.610785E-16 a.u.
  |    C      2     4.551928 A      4.551928 A        7.440584E-16 a.u.
  |    C      2     4.551928 A      4.551928 A       -7.110458E-16 a.u.
  |    C      2     4.551928 A      4.551928 A       -1.935424E-16 a.u.
  |    C      0     4.551928 A      4.607917 A        2.067142E-16 a.u.
  |    C      0     4.551928 A      4.607917 A       -1.109786E-16 a.u.
  |    C      1     4.551928 A      4.607917 A       -9.951742E-17 a.u.
  |    C      1     4.551928 A      4.607917 A        1.937809E-16 a.u.
  |    C      1     4.607917 A      4.607917 A       -2.813308E-16 a.u.
  |    C      1     4.607917 A      4.607917 A       -7.330363E-17 a.u.
  |    C      2     4.607917 A      4.607917 A        1.318462E-15 a.u.
  |    C      2     4.607917 A      4.607917 A       -1.318397E-15 a.u.
  |    C      0     4.607917 A      4.664595 A        3.157826E-16 a.u.
  |    C      1     4.607917 A      4.664595 A        7.356967E-16 a.u.
  |    C      4     3.835889 A  2.962973E+02 A            4.379483 a.u.
  |    C      3     4.127827 A  1.725964E+03 A            9.005588 a.u.
  |    C      2     4.607917 A  2.608475E+04 A            9.531178 a.u.
  |    C      1     4.607917 A  2.736013E+06 A            2.127278 a.u.
  |    C      0     4.607917 A  4.399765E+12 A            0.661635 a.u.

  | Shrink_full_auxil_basis : there are       36  radial auxiliary wave functions
                            accepted and       7 rejected.
  | Shrink_full_auxil_basis : there are totally                8992 partial auxiliary wave functions.
 
  | Maximal number of product basis functions per thread :   512   512
 
  | Minimal total memory requirement for three-center overlap :      72.476 Gbs
  | Number of local auxiliary basis functions on task:      0   512
  | Number of local auxiliary basis functions on task:      1   512
  | Number of local auxiliary basis functions on task:      2   512
  | Number of local auxiliary basis functions on task:      3   512
  | Number of local auxiliary basis functions on task:      4   496
  | Number of local auxiliary basis functions on task:      5   496
  | Number of local auxiliary basis functions on task:      6   496
  | Number of local auxiliary basis functions on task:      7   496
  | Number of local auxiliary basis functions on task:      8   496
  | Number of local auxiliary basis functions on task:      9   496
  | Number of local auxiliary basis functions on task:     10   496
  | Number of local auxiliary basis functions on task:     11   496
  | Number of local auxiliary basis functions on task:     12   496
  | Number of local auxiliary basis functions on task:     13   496
  | Number of local auxiliary basis functions on task:     14   496
  | Number of local auxiliary basis functions on task:     15   496
  | Number of local auxiliary basis functions on task:     16   496
  | Number of local auxiliary basis functions on task:     17   496
  | 2D aux task distribution:      3 X      6
  | 2D block size (nb_aux_2d):     64
 
  Basis pair condensation :   1037520  -->     547792
 
 --------------------------------------------
  Constructing auxiliary basis (full product) ...
 
  Product basis:
  | charge radius: extent of product basis function
  | field radius: extent of its Coulomb potential
  | Species   l  charge radius    field radius  multipol momen
  |    H      1     3.910002 A      3.910002 A       -2.487223E-16 a.u.
  |    H      1     3.958095 A      3.958095 A       -2.441841E-16 a.u.
  |    H      0     4.527807 A      4.527807 A        1.268855E-16 a.u.
  |    H      0     4.527807 A      4.583499 A       -4.900954E-17 a.u.
  |    H      0     4.527807 A      4.583499 A        4.713786E-16 a.u.
  |    H      2     3.678162 A  1.011968E+04 A            0.556529 a.u.
  |    H      1     3.958095 A  1.721251E+06 A            0.841931 a.u.
  |    H      0     4.527807 A  3.866455E+12 A            0.581436 a.u.
  |    C      0     2.562483 A      2.562483 A        6.563029E-17 a.u.
  |    C      0     2.967371 A      2.967371 A        1.352164E-16 a.u.
  |    C      0     3.003870 A      3.003870 A        2.312640E-17 a.u.
  |    C      1     3.272245 A      3.272245 A       -3.835259E-17 a.u.
  |    C      0     3.312494 A      3.312494 A       -2.710381E-16 a.u.
  |    C      3     4.077671 A      4.077671 A       -1.683752E-15 a.u.
  |    C      3     4.077671 A      4.077671 A        1.412852E-15 a.u.
  |    C      1     4.496620 A      4.496620 A       -3.011059E-16 a.u.
  |    C      0     4.496620 A      4.551928 A        2.873903E-17 a.u.
  |    C      2     4.551928 A      4.551928 A       -4.610785E-16 a.u.
  |    C      2     4.551928 A      4.551928 A        7.440584E-16 a.u.
  |    C      2     4.551928 A      4.551928 A       -7.110458E-16 a.u.
  |    C      2     4.551928 A      4.551928 A       -1.935424E-16 a.u.
  |    C      0     4.551928 A      4.607917 A        2.067142E-16 a.u.
  |    C      0     4.551928 A      4.607917 A       -1.109786E-16 a.u.
  |    C      1     4.551928 A      4.607917 A       -9.951742E-17 a.u.
  |    C      1     4.551928 A      4.607917 A        1.937809E-16 a.u.
  |    C      1     4.607917 A      4.607917 A       -2.813308E-16 a.u.
  |    C      1     4.607917 A      4.607917 A       -7.330363E-17 a.u.
  |    C      2     4.607917 A      4.607917 A        1.318462E-15 a.u.
  |    C      2     4.607917 A      4.607917 A       -1.318397E-15 a.u.
  |    C      0     4.607917 A      4.664595 A        3.157826E-16 a.u.
  |    C      1     4.607917 A      4.664595 A        7.356967E-16 a.u.
  |    C      4     3.835889 A  2.962973E+02 A            4.379483 a.u.
  |    C      3     4.127827 A  1.725964E+03 A            9.005588 a.u.
  |    C      2     4.607917 A  2.608475E+04 A            9.531178 a.u.
  |    C      1     4.607917 A  2.736013E+06 A            2.127278 a.u.
  |    C      0     4.607917 A  4.399765E+12 A            0.661635 a.u.

  | Shrink_full_auxil_basis : there are       36  radial auxiliary wave functions
                            accepted and       7 rejected.
  | Shrink_full_auxil_basis : there are totally                8992 partial auxiliary wave functions.
 
  | Maximal number of product basis functions per thread :   512   512
 
  | Minimal total memory requirement for three-center overlap :      72.476 Gbs
  | Number of local auxiliary basis functions on task:      0   512
  | Number of local auxiliary basis functions on task:      1   512
  | Number of local auxiliary basis functions on task:      2   512
  | Number of local auxiliary basis functions on task:      3   512
  | Number of local auxiliary basis functions on task:      4   496
  | Number of local auxiliary basis functions on task:      5   496
  | Number of local auxiliary basis functions on task:      6   496
  | Number of local auxiliary basis functions on task:      7   496
  | Number of local auxiliary basis functions on task:      8   496
  | Number of local auxiliary basis functions on task:      9   496
  | Number of local auxiliary basis functions on task:     10   496
  | Number of local auxiliary basis functions on task:     11   496
  | Number of local auxiliary basis functions on task:     12   496
  | Number of local auxiliary basis functions on task:     13   496
  | Number of local auxiliary basis functions on task:     14   496
  | Number of local auxiliary basis functions on task:     15   496
  | Number of local auxiliary basis functions on task:     16   496
  | Number of local auxiliary basis functions on task:     17   496
  | 2D aux task distribution:      3 X      6
  | 2D block size (nb_aux_2d):     64
 
  Basis pair condensation :   1037520  -->     547792
  Allocating        0.069 MB for t_coeff
  Allocating        0.034 MB for basbas_idx
  Allocating        0.069 MB for wave
  Allocating        0.069 MB for total_wave
  Allocating        0.206 MB for wave_gradient
  Allocating        0.206 MB for total_wave_grad
 HERE1
 HERE2
  Deallocating        0.069 MB for t_coeff
  Deallocating        0.034 MB for basbas_idx
  Deallocating        0.069 MB for wave
  Deallocating        0.206 MB for wave_gradient
  Deallocating        0.206 MB for total_wave_grad
dP_dE (Bohr^3) at every cycle:--->
 (1004.94683164201,0.000000000000000E+000) (2.98067213001969,0.000000000000000E+000) (-458.744037887420,0.000000000000000E+000)
 (2.96663095746449,0.000000000000000E+000) (1379.70409681694,0.000000000000000E+000) (-9.24771183590034,0.000000000000000E+000)
 (-458.982524342929,0.000000000000000E+000) (-9.24219295179506,0.000000000000000E+000) (1678.62413538874,0.000000000000000E+000)
DFPT polarizability (Bohr^3)        xx        yy        zz        xy        xz        yz
  | Polarizability:--->                      1004.946831642                 1379.704096817                 1678.624135389                    2.980672130                 -458.744037887                   -9.247711836

DFPT for dielectric_constant:--->  # PARSE DFPT_dielectric_tensor
               2.363691414586535             0.004044708501408            -0.622505874203985
               0.004025654929755             2.872229029693951            -0.012548947703613
              -0.622829495237092            -0.012541458695603             3.277857145941838

                                               :  max(cpu_time)    wall_clock(cpu1)
  | Time for  dielectric calculation            :        0.000 s           0.000 s
===========================================================================

------------------------------------------------------------------------------
  Final output of selected total energy values:

  The following output summarizes some interesting total energy values
  at the end of a run (AFTER all relaxation, molecular dynamics, etc.).

  | Total energy of the DFT / Hartree-Fock s.c.f. calculation      :         -83267.422611015 eV
  | Final zero-broadening corrected energy (caution - metals only) :         -83267.422611015 eV
  | For reference only, the value of 1 Hartree used in FHI-aims is :             27.211384500 eV
  | For reference only, the overall average (free atom contribution
  | + realspace contribution) of the electrostatic potential after
  | s.c.f. convergence is                                          :             -7.702145322 eV

  Before relying on these values, please be sure to understand exactly which
  total energy value is referred to by a given number. Different objects may
  all carry the same name 'total energy'. Definitions:

  Total energy of the DFT / Hartree-Fock s.c.f. calculation:
  | Note that this energy does not include ANY quantities calculated after the
  | s.c.f. cycle, in particular not ANY RPA, MP2, etc. many-body perturbation terms.

  Final zero-broadening corrected energy:
  | For metallic systems only, a broadening of the occupation numbers at the Fermi
  | level can be extrapolated back to zero broadening by an electron-gas inspired
  | formula. For all systems that are not real metals, this value can be
  | meaningless and should be avoided.

------------------------------------------------------------------------------
  Methods described in the following list of references were used in this FHI-aims run.
  If you publish the results, please make sure to cite these reference if they apply.
  FHI-aims is an academic code, and for our developers (often, Ph.D. students
  and postdocs), scientific credit in the community is essential.
  Thank you for helping us!

  For any use of FHI-aims, please cite:

    Volker Blum, Ralf Gehrke, Felix Hanke, Paula Havu, Ville Havu,
    Xinguo Ren, Karsten Reuter, and Matthias Scheffler
    'Ab initio molecular simulations with numeric atom-centered orbitals'
    Computer Physics Communications 180, 2175-2196 (2009)
    http://doi.org/10.1016/j.cpc.2009.06.022


  For Hartree-Fock, hybrid functionals, or many-body perturbation theory used in your run, please cite:

    Xinguo Ren, Patrick Rinke, Volker Blum, Juergen Wieferink, Alex Tkatchenko,
    Andrea Sanfilippo, Karsten Reuter, and Matthias Scheffler,
    'Resolution-of-identity approach to Hartree-Fock, hybrid density functionals,
    RPA, MP2, and GW with numeric atom-centered orbital basis functions'
    New Journal of Physics 14, 053020 (2012).
    http://doi.org/10.1088/1367-2630/14/5/053020


  The provided symmetry information was generated with SPGlib:

    Atsushi Togo, Yusuke Seto, Dimitar Pashov
    SPGlib 1.7.3 obtained from http://spglib.sourceforge.net
    Copyright (C) 2008 Atsushi Togo


  The DFPT (perturbation by an electric field) part of the code was used.
  Here is the corresponding reference:

    Honghui Shang, Nathaniel Raimbault, Mariana Rossi,
    Christian Carbogno, Patrick Rinke and Matthias Scheffler,
    'All-Electron, Real-Space Perturbation Theory for Homogeneous
    Electric Fields: Theory, Implementation, and Application within dft'
    New Journal of Physics, 20(7):073040, 2018


  The ELSI infrastructure was used in your run to solve the Kohn-Sham electronic structure.
  Please check out http://elsi-interchange.org to learn more.
  If scalability is important for your project, please acknowledge ELSI by citing:

    V. W-z. Yu, F. Corsetti, A. Garcia, W. P. Huhn, M. Jacquelin, W. Jia,
    B. Lange, L. Lin, J. Lu, W. Mi, A. Seifitokaldani, A. Vazquez-Mayagoitia,
    C. Yang, H. Yang, and V. Blum
    'ELSI: A unified software interface for Kohn-Sham electronic structure solvers'
    Computer Physics Communications 222, 267-285 (2018).
    http://doi.org/10.1016/j.cpc.2017.09.007


  For the real-space grid partitioning and parallelization used in this calculation, please cite:

    Ville Havu, Volker Blum, Paula Havu, and Matthias Scheffler,
    'Efficient O(N) integration for all-electron electronic structure calculation'
    'using numerically tabulated basis functions'
    Journal of Computational Physics 228, 8367-8379 (2009).
    http://doi.org/10.1016/j.jcp.2009.08.008


  The high-level electronic structure method used in your calculation
  employed our efficient localized resolution of identity for the Coulomb operator.
  Some calculations, especially large-scale hybrid density functional theory,
  are only possible thanks to this development. For this feature, please cite:

    Arvid Ihrig, Juergen Wieferink, Igor Ying Zhang, Matti Ropo, Xinguo Ren,
    Patrick Rinke, Matthias Scheffler, and Volker Blum,
    'Accurate localized resolution of identity approach for linear-scaling
    hybrid density functionals and for many-body perturbation theory'
    New Journal of Physics 117, 093020 (2015).
    http://doi.org/10.1088/1367-2630/17/9/093020

  Of course, there are many other important community references, e.g., those cited in the
  above references. Our list is limited to references that describe implementations in the
  FHI-aims code. The reason is purely practical (length of this list) - please credit others as well.

------------------------------------------------------------
          Leaving FHI-aims.
          Date     :  20230119, Time     :  200548.350

          Computational steps:
          | Number of self-consistency cycles          :           47
          | Number of SCF (re)initializations          :            1
          | Number of coupled perturbed self-consistency cycles          :            0
          | Number of CPSCF (re)initializations          :            0

          Detailed time accounting                     :  max(cpu_time)    wall_clock(cpu1)
          | Total time                                  :     1484.324 s        1496.351 s
          | GPU initialization                          :        2.351 s          13.567 s
          | Preparation time                            :        0.080 s           0.073 s
          | Boundary condition initalization            :        1.018 s           1.019 s
          | Grid partitioning                           :        1.258 s           1.258 s
          | Preloading free-atom quantities on grid     :        3.977 s           3.979 s
          | Free-atom superposition energy              :        0.517 s           0.517 s
          | Total time for integrations                 :       24.907 s          25.025 s
          | Product basis setup: Total time             :        0.000 s           0.000 s
          | Product basis: | 2-center integrations     :(       0.000 s)  (       0.000 s)
          | Product basis: | LVL 3-center & coefficient:(       0.000 s)  (       0.000 s)
          | Total time for solution of K.-S. equations  :        3.945 s           3.948 s
          | Total time for density update               :       18.065 s          18.204 s
          | Total time for mixing & preconditioning     :       12.606 s          12.612 s
          | Total time for Hartree multipole update     :        0.092 s           0.091 s
          | Total time for Hartree multipole sum        :       46.354 s          46.370 s
          | Total time for total energy evaluation      :        0.007 s           0.002 s
          | Total time first_order_DM                   :        1.901 s           1.901 s
          | Total time first_order_density              :      310.776 s         310.816 s
          | Total time first_order_potential            :      123.022 s         123.060 s
          | Total time first_order_H                    :      595.543 s         595.711 s
          | Total time solving of Sternheimer equations :        1.859 s           1.855 s
          | Total time for dielectric constant          :        0.000 s           0.000 s
          | Total time momentum matrix                  :        0.000 s           0.000 s

          GPU acceleration has been used for charge density update.
          GPU acceleration has been used for real-space Hamiltonian integration.
          Due to GPU usage, wall_clock(cpu1) will give a more reliable estimate for timings.

          Partial memory accounting:
          | Residual value for overall tracked memory usage across tasks:     1.234863 MB (should be 0.000000 MB)
          |
          | Largest tracked array allocation:
          |   Minimum:      103.148 MB (DFPT_pulay_mixing::initialize_pulay_mixing::X_in_diffs on task  0)
          |   Maximum:      103.148 MB (DFPT_pulay_mixing::initialize_pulay_mixing::X_in_diffs on task  0)
          |   Average:      103.148 MB
          |
          | Because the residual tracked memory usage was not zero, the peak value for overall
          | tracked memory usage was not output, as it is probably incorrect.  This is likely due
          | to a missing aims_deallocate statement in the source code, which should be otherwise
          | harmless.
          |
          Note:  These values currently only include a subset of arrays which are explicitly tracked.
          The "true" memory usage will be greater.

          Have a nice day.
------------------------------------------------------------
