------------------------------------------------------------
          Invoking FHI-aims ...

          When using FHI-aims, please cite the following reference:

            Volker Blum, Ralf Gehrke, Felix Hanke, Paula Havu,
            Ville Havu, Xinguo Ren, Karsten Reuter, and Matthias Scheffler,
            'Ab Initio Molecular Simulations with Numeric Atom-Centered Orbitals',
            Computer Physics Communications 180, 2175-2196 (2009)

          In addition, many other developments in FHI-aims are likely important for
          your particular application. A partial list of references is given at the end of
          this file. Thank you for giving credit to the authors of these developments.

          For any questions about FHI-aims, please visit our slack channel at

            https://fhi-aims.slack.com

          and our main development and support site at

            https://aims-git.rz-berlin.mpg.de .

          The latter site, in particular, has a wiki to collect information, as well
          as an issue tracker to log discussions, suggest improvements, and report issues
          or bugs. https://aims-git.rz-berlin.mpg.de is also the main development site
          of the project and all new and updated code versions can be obtained there.
          Please send an email to aims-coordinators@fhi-berlin.mpg.de and we will add
          you to these sites. They are for you and everyone is welcome there.

------------------------------------------------------------



  Date     :  20230119, Time     :  185119.248
  Time zero on CPU 1             :   0.385617000000000E+00  s.
  Internal wall clock time zero  :           443386279.248  s.

  FHI-aims created a unique identifier for this run for later identification
  aims_uuid : E23BF3BB-CA7D-4D8E-A80B-D9DDD6F0364B

  Build configuration of the current instance of FHI-aims
  -------------------------------------------------------
  FHI-aims version      : 220829
  Commit number         : 9895fc21d
  CMake host system     : Linux-5.3.18-150300.59.68-default
  CMake version         : 3.17.0
  Fortran compiler      : /mpcdf/soft/SLE_15/packages/x86_64/intel_oneapi/2021.3/mpi/2021.3.0/bin/mpiifort (Intel) version 20.2.3.20210609
  Fortran compiler flags: -O3 -ip -fp-model precise
  C compiler            : /mpcdf/soft/SLE_15/packages/x86_64/intel/2021.3.0/bin/icc (Intel) version 20.2.3.20210609
  C compiler flags      : -O3 -ip -fp-model precise -std=gnu99
  CUDA compiler         : /mpcdf/soft/SLE_15/packages/x86_64/cuda/11.6.2/bin/nvcc
  CUDA compiler flags   : -O3 -DAdd_ -lcublas
  ELPA2 kernel          : AVX512
  Using MPI
  Using ScaLAPACK
  Using LibXC
  Using CUDA
  Using i-PI
  Using RLSY
  Linking against: /mpcdf/soft/SLE_15/packages/x86_64/cuda/11.6.2/lib64/libcublas.so
                   /mpcdf/soft/SLE_15/packages/x86_64/cuda/11.6.2/lib64/libcudart.so
                   /mpcdf/soft/SLE_15/packages/x86_64/intel_oneapi/2021.3/mkl/latest/lib/intel64/libmkl_intel_lp64.so
                   /mpcdf/soft/SLE_15/packages/x86_64/intel_oneapi/2021.3/mkl/latest/lib/intel64/libmkl_sequential.so
                   /mpcdf/soft/SLE_15/packages/x86_64/intel_oneapi/2021.3/mkl/latest/lib/intel64/libmkl_core.so
                   /mpcdf/soft/SLE_15/packages/x86_64/intel_oneapi/2021.3/mkl/latest/lib/intel64/libmkl_blacs_intelmpi_lp64.so
                   /mpcdf/soft/SLE_15/packages/x86_64/intel_oneapi/2021.3/mkl/latest/lib/intel64/libmkl_scalapack_lp64.so

  Using       18 parallel tasks.
  Task        0 on host adag003 reporting.
  Task        1 on host adag003 reporting.
  Task        2 on host adag003 reporting.
  Task        3 on host adag003 reporting.
  Task        4 on host adag003 reporting.
  Task        5 on host adag003 reporting.
  Task        6 on host adag003 reporting.
  Task        7 on host adag003 reporting.
  Task        8 on host adag003 reporting.
  Task        9 on host adag003 reporting.
  Task       10 on host adag003 reporting.
  Task       11 on host adag003 reporting.
  Task       12 on host adag003 reporting.
  Task       13 on host adag003 reporting.
  Task       14 on host adag003 reporting.
  Task       15 on host adag003 reporting.
  Task       16 on host adag003 reporting.
  Task       17 on host adag003 reporting.

  Performing system and environment tests:
  | Environment variable OMP_NUM_THREADS correctly set to 1.
  | Checking for ScaLAPACK...
  | Testing pdtran()...
  | All pdtran() tests passed.

  Obtaining array dimensions for all initial allocations:
  
  -----------------------------------------------------------------------
  Parsing control.in (first pass over file, find array dimensions only).
  The contents of control.in will be repeated verbatim below
  unless switched off by setting 'verbatim_writeout .false.' .
  in the first line of control.in .
  -----------------------------------------------------------------------
  
  #
  # Input for polarizability replays on generic oligoacene molecular crystals (light settings,  LDA+MBD).
  #
  #########################################################################################
  #
  #  Physical model
  #
    xc                 pw-lda
    spin               none
    relativistic       none
    charge             0.0
    k_grid 	     2 1 1
    DFPT dielectric
  #
  #  GPU acceleration
  #
  # Turns on GPU acceleration everywhere
    use_gpu
  
  # Turns OFF GPU acceleration of ELPA - may be necessary if GPU ELPA is slow
    elsi_elpa_gpu 0
  #
  #  Relaxation
  #
  #  relax_geometry trm 1E-3
  #  relax_unit_cell fixed_angles
  #
  #  SCF convergence        #
    charge_mix_param   0.75
    #sc_accuracy_rho 1E-4
  #
  # i-PI communication
  #
  compute_forces .false.
  # use_pimd_wrapper 130.183.223.27 26118
  #communicate_pimd_wrapper polarizability
  #output_level MD_light
  #
  # Output SALTED info
    ri_density_restart write
    ri_rho1 write
    ri_full_output .true.
  #  sc_accuracy_rho    1d-6
    default_prodbas_acc 1e-6
    default_max_l_prodbas 6
  #
  #
  ################################################################################
  #
  #  FHI-aims code project
  #  VB, Fritz-Haber Institut, 2009
  #
  #  Suggested "light" defaults for H atom (to be pasted into control.in file)
  #  Be sure to double-check any results obtained with these settings for post-processing,
  #  e.g., with the "tight" defaults and larger basis sets.
  #
  ################################################################################
    species        H
  #     global species definitions
      nucleus             1
      mass                1.00794
  #
      l_hartree           4
  #
      cut_pot             3.5  1.5  1.0
      basis_dep_cutoff    1e-4
  #
      radial_base         24 5.0
      radial_multiplier   1
      angular_grids       specified
        division   0.2421   50
        division   0.3822  110
        division   0.4799  194
        division   0.5341  302
  #      division   0.5626  434
  #      division   0.5922  590
  #      division   0.6542  770
  #      division   0.6868 1202
  #      outer_grid  770
        outer_grid  302
  ################################################################################
  #
  #  Definition of "minimal" basis
  #
  ################################################################################
  #     valence basis states
      valence      1  s   1.
  #     ion occupancy
      ion_occ      1  s   0.5
  ################################################################################
  #
  #  Suggested additional basis functions. For production calculations,
  #  uncomment them one after another (the most important basis functions are
  #  listed first).
  #
  #  Basis constructed for dimers: 0.5 A, 0.7 A, 1.0 A, 1.5 A, 2.5 A
  #
  ################################################################################
  #  "First tier" - improvements: -1014.90 meV to -62.69 meV
       hydro 2 s 2.1
       hydro 2 p 3.5
  #  "Second tier" - improvements: -12.89 meV to -1.83 meV
  #     hydro 1 s 0.85
  #     hydro 2 p 3.7
  #     hydro 2 s 1.2
  #     hydro 3 d 7
  #  "Third tier" - improvements: -0.25 meV to -0.12 meV
  #     hydro 4 f 11.2
  #     hydro 3 p 4.8
  #     hydro 4 d 9
  #     hydro 3 s 3.2
  ################################################################################
  ################################################################################
  #
  #  FHI-aims code project
  #  VB, Fritz-Haber Institut, 2009
  #
  #  Suggested "light" defaults for C atom (to be pasted into control.in file)
  #  Be sure to double-check any results obtained with these settings for post-processing,
  #  e.g., with the "tight" defaults and larger basis sets.
  #
  ################################################################################
    species        C
  #     global species definitions
      nucleus             6
      mass                12.0107
  #
      l_hartree           4
  #
      cut_pot             3.5  1.5  1.0
      basis_dep_cutoff    1e-4
  #
      radial_base         34 5.0
      radial_multiplier   1
      angular_grids specified
        division   0.3326   50
        division   0.5710  110
        division   0.7727  194
        division   0.8772  302
  #      division   0.9334  434
  #      division   0.9625  590
  #      division   0.9924  770
  #      division   1.0230  974
  #      division   1.4589 1202
  #     outer_grid  974
       outer_grid 302
  ################################################################################
  #
  #  Definition of "minimal" basis
  #
  ################################################################################
  #     valence basis states
      valence      2  s   2.
      valence      2  p   2.
  #     ion occupancy
      ion_occ      2  s   1.
      ion_occ      2  p   1.
  ################################################################################
  #
  #  Suggested additional basis functions. For production calculations,
  #  uncomment them one after another (the most important basis functions are
  #  listed first).
  #
  #  Constructed for dimers: 1.0 A, 1.25 A, 1.5 A, 2.0 A, 3.0 A
  #
  ################################################################################
  #  "First tier" - improvements: -1214.57 meV to -155.61 meV
       hydro 2 p 1.7
       hydro 3 d 6
       hydro 2 s 4.9
  #  "Second tier" - improvements: -67.75 meV to -5.23 meV
  #     hydro 4 f 9.8
  #     hydro 3 p 5.2
  #     hydro 3 s 4.3
  #     hydro 5 g 14.4
  #     hydro 3 d 6.2
  #  "Third tier" - improvements: -2.43 meV to -0.60 meV
  #     hydro 2 p 5.6
  #     hydro 2 s 1.4
  #     hydro 3 d 4.9
  #     hydro 4 f 11.2
  #  "Fourth tier" - improvements: -0.39 meV to -0.18 meV
  #     hydro 2 p 2.1
  #     hydro 5 g 16.4
  #     hydro 4 d 13.2
  #     hydro 3 s 13.6
  #     hydro 4 f 17.6
  #  Further basis functions - improvements: -0.08 meV and below
  #     hydro 3 s 2
  #     hydro 3 p 6
  #     hydro 4 d 20
  
  -----------------------------------------------------------------------
  Completed first pass over input file control.in .
  -----------------------------------------------------------------------
  
  
  -----------------------------------------------------------------------
  Parsing geometry.in (first pass over file, find array dimensions only).
  The contents of geometry.in will be repeated verbatim below
  unless switched off by setting 'verbatim_writeout .false.' .
  in the first line of geometry.in .
  -----------------------------------------------------------------------
  
  #=======================================================
  # FHI-aims file: /ada/ptmp/mpsd/alewis/naphthalene/qmdata/data/geoms/194.in
  # Created using the Atomic Simulation Environment (ASE)
  # Thu Jan 19 15:19:17 2023
  #=======================================================
  lattice_vector 8.1020000000000003 0.0000000000000000 0.0000000000000000
  lattice_vector 0.0000000000000000 11.8800000000000008 0.0000000000000000
  lattice_vector -9.7850918486534706 0.0000000000000000 14.2571119625755713
  atom -0.7668480000000000 0.1427280000000000 2.4781100000000000 C
  atom 0.1694530000000000 2.9258500000000001 4.8080100000000003 C
  atom 4.1132000000000000 6.0138199999999999 4.8581700000000003 C
  atom 3.1865600000000001 2.7970100000000002 2.4379200000000001 C
  atom 0.1045910000000000 0.9786660000000000 1.7525999999999999 C
  atom -0.6203689999999999 3.8256899999999998 5.4931000000000001 C
  atom 3.3915899999999999 5.0887900000000004 5.6137699999999997 C
  atom 4.0066600000000001 2.0050599999999998 1.6626300000000001 C
  atom 0.4054740000000000 0.6795710000000000 0.4118720000000000 C
  atom -0.9552720000000000 3.5081699999999998 6.8395000000000001 C
  atom 3.0491799999999998 5.3604599999999998 6.9530599999999998 C
  atom 4.3646399999999996 2.4162200000000000 0.3522320000000000 C
  atom -3.8244799999999999 1.4091199999999999 6.6640699999999997 C
  atom 3.1424300000000001 4.4859700000000000 0.7002840000000000 C
  atom 7.2509300000000003 4.4998699999999996 0.7053050000000000 C
  atom 0.2774980000000000 1.3801099999999999 6.6732100000000001 C
  atom -3.4234900000000001 1.0217300000000000 5.4103800000000000 C
  atom 2.7507199999999998 4.0556299999999998 1.9458500000000001 C
  atom 6.9398299999999997 4.9143800000000004 1.9702299999999999 C
  atom 0.6562290000000000 1.7180599999999999 5.4002400000000002 C
  atom -1.0890100000000000 0.3858540000000000 3.5137100000000001 H
  atom 0.4635980000000000 3.1877800000000001 3.7927499999999998 H
  atom 4.4340999999999999 5.6984899999999996 3.9040499999999998 H
  atom 2.9499200000000001 2.4714000000000000 3.4687299999999999 H
  atom 0.4811820000000000 1.8899600000000001 2.1820100000000000 H
  atom -0.9196630000000000 4.7662800000000001 5.0090800000000000 H
  atom 3.1477400000000002 4.1542500000000002 5.1055099999999998 H
  atom 4.3116000000000003 1.0214600000000000 1.9867300000000001 H
  atom -3.5128800000000000 2.3549300000000000 7.0815400000000004 H
  atom 2.8306399999999998 5.4459499999999998 0.2591600000000000 H
  atom 6.8965199999999998 3.5743999999999998 0.3526250000000000 H
  atom 0.6433280000000000 0.4611790000000000 7.1246999999999998 H
  atom -2.7257300000000000 1.6510000000000000 4.8276500000000002 H
  atom 2.1809200000000000 4.7245900000000001 2.6163400000000001 H
  atom 6.2923700000000000 4.3176100000000002 2.6199400000000002 H
  atom 1.2553700000000001 1.0219400000000001 4.8199699999999996 H
  atom -5.7864899999999997 0.0367753000000000 9.5617300000000007 C
  atom -4.7007099999999999 3.2463400000000000 11.9687999999999999 C
  atom -0.7635340000000000 5.7309299999999999 11.9155999999999995 C
  atom -1.5983700000000001 2.9005399999999999 9.5357500000000002 C
  atom -5.0296399999999997 0.9073800000000000 8.7744900000000001 C
  atom -5.5338700000000003 4.0335599999999996 12.7392000000000003 C
  atom -1.5311900000000001 4.9392800000000001 12.7240000000000002 C
  atom -0.7965570000000000 2.0243000000000002 8.8011700000000008 C
  atom -4.5943600000000000 0.5382749999999999 7.4761499999999996 C
  atom -5.8845799999999997 3.6618700000000000 14.1090000000000000 C
  atom -1.7717700000000001 5.3134800000000002 14.0638000000000005 C
  atom -0.4844390000000000 2.2943099999999998 7.4446199999999996 C
  atom -8.5873399999999993 1.5432200000000000 13.8521000000000001 C
  atom -1.7855200000000000 4.3782500000000004 7.6232100000000003 C
  atom 2.2573699999999999 4.4441199999999998 7.6950099999999999 C
  atom -4.6169000000000002 1.6229199999999999 13.7604000000000006 C
  atom -8.2735000000000003 1.2051700000000001 12.5557999999999996 C
  atom -2.1150400000000000 4.0842200000000002 8.9445800000000002 C
  atom 1.9361800000000000 4.6874300000000000 9.0223999999999993 C
  atom -4.2684300000000004 2.0085799999999998 12.4817000000000000 C
  atom -6.1268900000000004 0.3648450000000000 10.5410000000000004 H
  atom -4.4200799999999996 3.5452699999999999 10.9626999999999999 H
  atom -0.6035660000000000 5.4162999999999997 10.8932000000000002 H
  atom -1.8167100000000000 2.7445900000000001 10.5870999999999995 H
  atom -4.8344899999999997 1.9213700000000000 9.1526099999999992 H
  atom -5.9480899999999997 4.9661799999999996 12.4054000000000002 H
  atom -1.9929200000000000 4.0070899999999998 12.3658999999999999 H
  atom -0.4052610000000000 1.1135400000000000 9.2226400000000002 H
  atom -8.2197700000000005 2.4588999999999999 14.2901000000000007 H
  atom -2.2391200000000002 5.2539800000000003 7.1839899999999997 H
  atom 1.8989400000000001 3.5270299999999999 7.1944600000000003 H
  atom -4.2498399999999998 0.6724390000000000 14.2009000000000007 H
  atom -7.7862499999999999 1.9136899999999999 11.8642000000000003 H
  atom -2.7186699999999999 4.7742699999999996 9.5428599999999992 H
  atom 1.3302200000000000 3.9598200000000001 9.5400200000000002 H
  atom -3.6114700000000002 1.3753700000000000 11.8820999999999994 H
  atom -0.6428910000000000 6.1364500000000000 2.4096899999999999 C
  atom -0.0283382000000000 8.8276900000000005 4.7723800000000001 C
  atom 4.2655599999999998 11.6624999999999996 4.8762800000000004 C
  atom 3.1866699999999999 8.8638200000000005 2.2823099999999998 C
  atom 0.0925881000000000 6.9811300000000003 1.5805100000000001 C
  atom -0.7006460000000000 9.7831700000000001 5.5118099999999997 C
  atom 3.4540799999999998 10.8089999999999993 5.6331899999999999 C
  atom 3.9519099999999998 7.9772400000000001 1.5244899999999999 C
  atom 0.4017400000000000 6.5953600000000003 0.2703700000000000 C
  atom -0.9687860000000000 9.5144099999999998 6.8903600000000003 C
  atom 3.0730700000000000 11.1511999999999993 6.9582199999999998 C
  atom 4.3673099999999998 8.3224499999999999 0.1971800000000000 C
  atom -3.9135499999999999 7.4910699999999997 6.7667200000000003 C
  atom 3.1957300000000002 10.4542999999999999 0.4195920000000000 C
  atom 7.2417199999999999 10.4492999999999991 0.6204930000000000 C
  atom 0.1767840000000000 7.3238500000000002 6.6802900000000003 C
  atom -3.5681300000000000 7.2211499999999997 5.4587599999999998 C
  atom 2.7954100000000000 10.1050000000000004 1.7005200000000000 C
  atom 6.8491299999999997 10.8318999999999992 1.8810600000000000 C
  atom 0.4614200000000000 7.6707099999999997 5.3925000000000001 C
  atom -0.9364930000000000 6.5257699999999996 3.4014700000000002 H
  atom 0.1303880000000000 8.9261700000000008 3.6952300000000000 H
  atom 4.5371899999999998 11.3871000000000002 3.8550399999999998 H
  atom 2.8666200000000002 8.5779200000000007 3.3230100000000000 H
  atom 0.3801000000000000 7.9800000000000004 1.9087700000000001 H
  atom -1.0139199999999999 10.7646999999999995 5.1046699999999996 H
  atom 3.1679700000000000 9.8367100000000001 5.2514300000000000 H
  atom 4.2637200000000002 7.0189599999999999 1.9232499999999999 H
  atom -3.6645200000000000 8.4282199999999996 7.2367400000000002 H
  atom 2.9102899999999998 11.4178999999999995 0.0309267000000000 H
  atom 6.8907699999999998 9.5129500000000000 0.1492890000000000 H
  atom 0.4948700000000000 6.3719299999999999 7.0907400000000003 H
  atom -2.9563700000000002 7.9225800000000000 4.8827900000000000 H
  atom 2.2296900000000002 10.8414000000000001 2.2690100000000002 H
  atom 6.1461399999999999 10.2280999999999995 2.4964400000000002 H
  atom 1.0946800000000001 6.9735500000000004 4.7984999999999998 H
  atom -5.7441800000000001 5.9224399999999999 9.6544399999999992 C
  atom -4.5562199999999997 9.0395800000000008 11.8383000000000003 C
  atom -0.6640960000000000 11.8833000000000002 12.0257000000000005 C
  atom -1.6952100000000001 8.8758300000000006 9.5341799999999992 C
  atom -4.9972500000000002 6.8702600000000000 8.9298400000000004 C
  atom -5.3616400000000004 9.9063999999999997 12.5625000000000000 C
  atom -1.4461599999999999 11.0396999999999998 12.7842000000000002 C
  atom -0.9672360000000000 7.9459299999999997 8.8102400000000003 C
  atom -4.6541899999999998 6.6020599999999998 7.5609200000000003 C
  atom -5.8150700000000004 9.5808199999999992 13.8939000000000004 C
  atom -1.7340400000000000 11.3181999999999992 14.1214999999999993 C
  atom -0.5564510000000000 8.2371099999999995 7.4768800000000004 C
  atom -8.5629700000000000 7.3863599999999998 13.6714000000000002 C
  atom -1.7307999999999999 10.4086999999999996 7.6638099999999998 C
  atom 2.3478500000000002 10.2722999999999995 7.7935499999999998 C
  atom -4.6447000000000003 7.4409000000000001 13.6592000000000002 C
  atom -8.3575099999999996 6.9786799999999998 12.3835999999999995 C
  atom -2.0649299999999999 10.1204999999999998 8.9719499999999996 C
  atom 1.9589799999999999 10.6372000000000000 9.0634700000000006 C
  atom -4.2226299999999997 7.7817800000000004 12.3444000000000003 C
  atom -5.9709599999999998 6.0932599999999999 10.7350999999999992 H
  atom -4.2148599999999998 9.3800699999999999 10.8760999999999992 H
  atom -0.5012540000000000 11.6798999999999999 10.9748999999999999 H
  atom -1.9376000000000000 8.6538000000000004 10.5618999999999996 H
  atom -4.6244300000000003 7.7537000000000003 9.4370999999999992 H
  atom -5.6151000000000000 10.8527000000000005 12.1067999999999998 H
  atom -1.8215200000000000 10.0828000000000007 12.3146000000000004 H
  atom -0.6067900000000001 7.0317999999999996 9.2519100000000005 H
  atom -8.0893099999999993 8.3205399999999994 14.0122999999999998 H
  atom -2.0130100000000000 11.3634000000000004 7.2395300000000002 H
  atom 2.0315900000000000 9.3002199999999995 7.4127999999999998 H
  atom -4.2588600000000003 6.5146800000000002 14.0747999999999998 H
  atom -7.7450799999999997 7.6032999999999999 11.7228999999999992 H
  atom -2.5962000000000001 10.8520000000000003 9.5352800000000002 H
  atom 1.4107099999999999 9.8819499999999998 9.6581499999999991 H
  atom -3.5646000000000000 7.1507699999999996 11.7789999999999999 H
  
  -----------------------------------------------------------------------
  Completed first pass over input file geometry.in .
  -----------------------------------------------------------------------
  

  Basic array size parameters:
  | Number of species                 :        2
  | Number of atoms                   :      144
  | Number of lattice vectors         :        3
  | Max. basis fn. angular momentum   :        2
  | Max. atomic/ionic basis occupied n:        2
  | Max. number of basis fn. types    :        2
  | Max. radial fns per species/type  :        3
  | Max. logarithmic grid size        :     1277
  | Max. radial integration grid size :       34
  | Max. angular integration grid size:      302
  | Max. angular grid division number :        8
  | Radial grid for Hartree potential :     1277
  | Number of spin channels           :        1

------------------------------------------------------------
          Reading file control.in.
------------------------------------------------------------
  XC: Using Perdew-Wang parametrisation of Ceperley-Alder LDA.
  Spin treatment: No spin polarisation.
  Non-relativistic treatment of kinetic energy.
  Charge =   0.000000E+00: Neutral system requested explicitly.
  Found k-point grid:         2         1         1
  DFPT calculation will begin after the DFT/HF calculation.
  Charge density mixing - mixing parameter:     0.7500
  Forces will not be computed.
 
  Reading configuration options for species H                   .
  | Found nuclear charge :   1.0000
  | Found atomic mass :    1.00794000000000      amu
  | Found l_max for Hartree potential  :   4
  | Found cutoff potl. onset [A], width [A], scale factor :    3.50000    1.50000    1.00000
  | Threshold for basis-dependent cutoff potential is   0.100000E-03
  | Found data for basic radial integration grid :    24 points, outermost radius =    5.000 A
  | Found multiplier for basic radial grid :   1
  | Found angular grid specification: user-specified.
  | Specified grid contains     5 separate shells.
  | Check grid settings after all constraints further below.
  | Found free-atom valence shell :  1 s   1.000
  | No ionic wave fns used. Skipping ion_occ.
  | Found hydrogenic basis function :  2 s   2.100
  | Found hydrogenic basis function :  2 p   3.500
  Species H                   : Missing cutoff potential type.
  Defaulting to exp(1/x)/(1-x)^2 type cutoff potential.
  Species H : No 'logarithmic' tag. Using default grid for free atom:
  | Default logarithmic grid data [bohr] : 0.1000E-03 0.1000E+03 0.1012E+01
  Species H : On-site basis accuracy parameter (for Gram-Schmidt orthonormalisation) not specified.
  Using default value basis_acc =  0.1000000E-03.
  Species H                   : Using default innermost maximum threshold i_radial=  2 for radial functions.
  Species H                   : Default cutoff onset for free atom density etc. : 0.35000000E+01 AA.
  Species H                   : Basic radial grid will be enhanced according to radial_multiplier =   1, to contain    24 grid points.
 
  Reading configuration options for species C                   .
  | Found nuclear charge :   6.0000
  | Found atomic mass :    12.0107000000000      amu
  | Found l_max for Hartree potential  :   4
  | Found cutoff potl. onset [A], width [A], scale factor :    3.50000    1.50000    1.00000
  | Threshold for basis-dependent cutoff potential is   0.100000E-03
  | Found data for basic radial integration grid :    34 points, outermost radius =    5.000 A
  | Found multiplier for basic radial grid :   1
  | Found angular grid specification: user-specified.
  | Specified grid contains     5 separate shells.
  | Check grid settings after all constraints further below.
  | Found free-atom valence shell :  2 s   2.000
  | Found free-atom valence shell :  2 p   2.000
  | No ionic wave fns used. Skipping ion_occ.
  | No ionic wave fns used. Skipping ion_occ.
  | Found hydrogenic basis function :  2 p   1.700
  | Found hydrogenic basis function :  3 d   6.000
  | Found hydrogenic basis function :  2 s   4.900
  Species C                   : Missing cutoff potential type.
  Defaulting to exp(1/x)/(1-x)^2 type cutoff potential.
  Species C : No 'logarithmic' tag. Using default grid for free atom:
  | Default logarithmic grid data [bohr] : 0.1000E-03 0.1000E+03 0.1012E+01
  Species C : On-site basis accuracy parameter (for Gram-Schmidt orthonormalisation) not specified.
  Using default value basis_acc =  0.1000000E-03.
  Species C                   : Using default innermost maximum threshold i_radial=  2 for radial functions.
  Species C                   : Default cutoff onset for free atom density etc. : 0.35000000E+01 AA.
  Species C                   : Basic radial grid will be enhanced according to radial_multiplier =   1, to contain    34 grid points.
 
  Finished reading input file 'control.in'.
 
------------------------------------------------------------


------------------------------------------------------------
          Reading geometry description geometry.in.
------------------------------------------------------------
  | The smallest distance between any two atoms is         1.05189560 AA.
  | The first atom of this pair is atom number                     15 .
  | The second atom of this pair is atom number                    31 .
  | Wigner-Seitz cell of the first atom image           0     0     0 .
  | (The Wigner-Seitz cell of the second atom is 0 0 0  by definition.)

  Symmetry information by spglib:
  | Precision set to  0.1E-04
  | Number of Operations  : 1
  | Space group           : 1
  | International         : P1
  | Schoenflies           : C1^1
  Input structure read successfully.
  The structure contains      144 atoms,  and a total of        544.000 electrons.

  Input geometry:
  | Unit cell:
  |        8.10200000        0.00000000        0.00000000
  |        0.00000000       11.88000000        0.00000000
  |       -9.78509185        0.00000000       14.25711196
  | Atomic structure:
  |       Atom                x [A]            y [A]            z [A]
  |    1: Species C            -0.76684800        0.14272800        2.47811000
  |    2: Species C             0.16945300        2.92585000        4.80801000
  |    3: Species C             4.11320000        6.01382000        4.85817000
  |    4: Species C             3.18656000        2.79701000        2.43792000
  |    5: Species C             0.10459100        0.97866600        1.75260000
  |    6: Species C            -0.62036900        3.82569000        5.49310000
  |    7: Species C             3.39159000        5.08879000        5.61377000
  |    8: Species C             4.00666000        2.00506000        1.66263000
  |    9: Species C             0.40547400        0.67957100        0.41187200
  |   10: Species C            -0.95527200        3.50817000        6.83950000
  |   11: Species C             3.04918000        5.36046000        6.95306000
  |   12: Species C             4.36464000        2.41622000        0.35223200
  |   13: Species C            -3.82448000        1.40912000        6.66407000
  |   14: Species C             3.14243000        4.48597000        0.70028400
  |   15: Species C             7.25093000        4.49987000        0.70530500
  |   16: Species C             0.27749800        1.38011000        6.67321000
  |   17: Species C            -3.42349000        1.02173000        5.41038000
  |   18: Species C             2.75072000        4.05563000        1.94585000
  |   19: Species C             6.93983000        4.91438000        1.97023000
  |   20: Species C             0.65622900        1.71806000        5.40024000
  |   21: Species H            -1.08901000        0.38585400        3.51371000
  |   22: Species H             0.46359800        3.18778000        3.79275000
  |   23: Species H             4.43410000        5.69849000        3.90405000
  |   24: Species H             2.94992000        2.47140000        3.46873000
  |   25: Species H             0.48118200        1.88996000        2.18201000
  |   26: Species H            -0.91966300        4.76628000        5.00908000
  |   27: Species H             3.14774000        4.15425000        5.10551000
  |   28: Species H             4.31160000        1.02146000        1.98673000
  |   29: Species H            -3.51288000        2.35493000        7.08154000
  |   30: Species H             2.83064000        5.44595000        0.25916000
  |   31: Species H             6.89652000        3.57440000        0.35262500
  |   32: Species H             0.64332800        0.46117900        7.12470000
  |   33: Species H            -2.72573000        1.65100000        4.82765000
  |   34: Species H             2.18092000        4.72459000        2.61634000
  |   35: Species H             6.29237000        4.31761000        2.61994000
  |   36: Species H             1.25537000        1.02194000        4.81997000
  |   37: Species C            -5.78649000        0.03677530        9.56173000
  |   38: Species C            -4.70071000        3.24634000       11.96880000
  |   39: Species C            -0.76353400        5.73093000       11.91560000
  |   40: Species C            -1.59837000        2.90054000        9.53575000
  |   41: Species C            -5.02964000        0.90738000        8.77449000
  |   42: Species C            -5.53387000        4.03356000       12.73920000
  |   43: Species C            -1.53119000        4.93928000       12.72400000
  |   44: Species C            -0.79655700        2.02430000        8.80117000
  |   45: Species C            -4.59436000        0.53827500        7.47615000
  |   46: Species C            -5.88458000        3.66187000       14.10900000
  |   47: Species C            -1.77177000        5.31348000       14.06380000
  |   48: Species C            -0.48443900        2.29431000        7.44462000
  |   49: Species C            -8.58734000        1.54322000       13.85210000
  |   50: Species C            -1.78552000        4.37825000        7.62321000
  |   51: Species C             2.25737000        4.44412000        7.69501000
  |   52: Species C            -4.61690000        1.62292000       13.76040000
  |   53: Species C            -8.27350000        1.20517000       12.55580000
  |   54: Species C            -2.11504000        4.08422000        8.94458000
  |   55: Species C             1.93618000        4.68743000        9.02240000
  |   56: Species C            -4.26843000        2.00858000       12.48170000
  |   57: Species H            -6.12689000        0.36484500       10.54100000
  |   58: Species H            -4.42008000        3.54527000       10.96270000
  |   59: Species H            -0.60356600        5.41630000       10.89320000
  |   60: Species H            -1.81671000        2.74459000       10.58710000
  |   61: Species H            -4.83449000        1.92137000        9.15261000
  |   62: Species H            -5.94809000        4.96618000       12.40540000
  |   63: Species H            -1.99292000        4.00709000       12.36590000
  |   64: Species H            -0.40526100        1.11354000        9.22264000
  |   65: Species H            -8.21977000        2.45890000       14.29010000
  |   66: Species H            -2.23912000        5.25398000        7.18399000
  |   67: Species H             1.89894000        3.52703000        7.19446000
  |   68: Species H            -4.24984000        0.67243900       14.20090000
  |   69: Species H            -7.78625000        1.91369000       11.86420000
  |   70: Species H            -2.71867000        4.77427000        9.54286000
  |   71: Species H             1.33022000        3.95982000        9.54002000
  |   72: Species H            -3.61147000        1.37537000       11.88210000
  |   73: Species C            -0.64289100        6.13645000        2.40969000
  |   74: Species C            -0.02833820        8.82769000        4.77238000
  |   75: Species C             4.26556000       11.66250000        4.87628000
  |   76: Species C             3.18667000        8.86382000        2.28231000
  |   77: Species C             0.09258810        6.98113000        1.58051000
  |   78: Species C            -0.70064600        9.78317000        5.51181000
  |   79: Species C             3.45408000       10.80900000        5.63319000
  |   80: Species C             3.95191000        7.97724000        1.52449000
  |   81: Species C             0.40174000        6.59536000        0.27037000
  |   82: Species C            -0.96878600        9.51441000        6.89036000
  |   83: Species C             3.07307000       11.15120000        6.95822000
  |   84: Species C             4.36731000        8.32245000        0.19718000
  |   85: Species C            -3.91355000        7.49107000        6.76672000
  |   86: Species C             3.19573000       10.45430000        0.41959200
  |   87: Species C             7.24172000       10.44930000        0.62049300
  |   88: Species C             0.17678400        7.32385000        6.68029000
  |   89: Species C            -3.56813000        7.22115000        5.45876000
  |   90: Species C             2.79541000       10.10500000        1.70052000
  |   91: Species C             6.84913000       10.83190000        1.88106000
  |   92: Species C             0.46142000        7.67071000        5.39250000
  |   93: Species H            -0.93649300        6.52577000        3.40147000
  |   94: Species H             0.13038800        8.92617000        3.69523000
  |   95: Species H             4.53719000       11.38710000        3.85504000
  |   96: Species H             2.86662000        8.57792000        3.32301000
  |   97: Species H             0.38010000        7.98000000        1.90877000
  |   98: Species H            -1.01392000       10.76470000        5.10467000
  |   99: Species H             3.16797000        9.83671000        5.25143000
  |  100: Species H             4.26372000        7.01896000        1.92325000
  |  101: Species H            -3.66452000        8.42822000        7.23674000
  |  102: Species H             2.91029000       11.41790000        0.03092670
  |  103: Species H             6.89077000        9.51295000        0.14928900
  |  104: Species H             0.49487000        6.37193000        7.09074000
  |  105: Species H            -2.95637000        7.92258000        4.88279000
  |  106: Species H             2.22969000       10.84140000        2.26901000
  |  107: Species H             6.14614000       10.22810000        2.49644000
  |  108: Species H             1.09468000        6.97355000        4.79850000
  |  109: Species C            -5.74418000        5.92244000        9.65444000
  |  110: Species C            -4.55622000        9.03958000       11.83830000
  |  111: Species C            -0.66409600       11.88330000       12.02570000
  |  112: Species C            -1.69521000        8.87583000        9.53418000
  |  113: Species C            -4.99725000        6.87026000        8.92984000
  |  114: Species C            -5.36164000        9.90640000       12.56250000
  |  115: Species C            -1.44616000       11.03970000       12.78420000
  |  116: Species C            -0.96723600        7.94593000        8.81024000
  |  117: Species C            -4.65419000        6.60206000        7.56092000
  |  118: Species C            -5.81507000        9.58082000       13.89390000
  |  119: Species C            -1.73404000       11.31820000       14.12150000
  |  120: Species C            -0.55645100        8.23711000        7.47688000
  |  121: Species C            -8.56297000        7.38636000       13.67140000
  |  122: Species C            -1.73080000       10.40870000        7.66381000
  |  123: Species C             2.34785000       10.27230000        7.79355000
  |  124: Species C            -4.64470000        7.44090000       13.65920000
  |  125: Species C            -8.35751000        6.97868000       12.38360000
  |  126: Species C            -2.06493000       10.12050000        8.97195000
  |  127: Species C             1.95898000       10.63720000        9.06347000
  |  128: Species C            -4.22263000        7.78178000       12.34440000
  |  129: Species H            -5.97096000        6.09326000       10.73510000
  |  130: Species H            -4.21486000        9.38007000       10.87610000
  |  131: Species H            -0.50125400       11.67990000       10.97490000
  |  132: Species H            -1.93760000        8.65380000       10.56190000
  |  133: Species H            -4.62443000        7.75370000        9.43710000
  |  134: Species H            -5.61510000       10.85270000       12.10680000
  |  135: Species H            -1.82152000       10.08280000       12.31460000
  |  136: Species H            -0.60679000        7.03180000        9.25191000
  |  137: Species H            -8.08931000        8.32054000       14.01230000
  |  138: Species H            -2.01301000       11.36340000        7.23953000
  |  139: Species H             2.03159000        9.30022000        7.41280000
  |  140: Species H            -4.25886000        6.51468000       14.07480000
  |  141: Species H            -7.74508000        7.60330000       11.72290000
  |  142: Species H            -2.59620000       10.85200000        9.53528000
  |  143: Species H             1.41071000        9.88195000        9.65815000
  |  144: Species H            -3.56460000        7.15077000       11.77900000

  Lattice parameters for 3D lattice (in Angstroms) :     8.102000   11.880000   17.292000
  Angle(s) between unit vectors (in degrees)       :    90.000000  124.463000   90.000000


  Quantities derived from the lattice vectors (in Angstrom^-1):
  | Reciprocal lattice vector 1:  0.775510  0.000000  0.532257
  | Reciprocal lattice vector 2:  0.000000  0.528888  0.000000
  | Reciprocal lattice vector 3: -0.000000  0.000000  0.440705
  | Unit cell volume                               :   0.137227E+04  Angstrom^3

  Fractional coordinates:
                         L1                L2                L3
       atom_frac         0.11527458        0.01201414        0.17381571  C
       atom_frac         0.42820751        0.24628367        0.33723590  C
       atom_frac         0.91921879        0.50621380        0.34075415  C
       atom_frac         0.59982462        0.23543855        0.17099676  C
       atom_frac         0.16137422        0.08237929        0.12292812  C
       atom_frac         0.38875753        0.32202778        0.38528841  C
       atom_frac         0.89416095        0.42834933        0.39375226  C
       atom_frac         0.63537075        0.16877609        0.11661759  C
       atom_frac         0.08493635        0.05720295        0.02888888  C
       atom_frac         0.46147692        0.29530051        0.47972549  C
       atom_frac         0.96535148        0.45121717        0.48769064  C
       atom_frac         0.56854944        0.20338552        0.02470570  C
       atom_frac         0.09248025        0.11861279        0.46742075  C
       atom_frac         0.44718049        0.37760690        0.04911822  C
       atom_frac         0.95470284        0.37877694        0.04947040  C
       atom_frac         0.59954654        0.11617088        0.46806184  C
       atom_frac         0.03577132        0.08600421        0.37948639  C
       atom_frac         0.50434662        0.34138300        0.13648276  C
       atom_frac         1.02345829        0.41366835        0.13819278  C
       atom_frac         0.53845703        0.14461785        0.37877517  C
       atom_frac         0.16323829        0.03247929        0.24645314  H
       atom_frac         0.37850880        0.26833165        0.26602513  H
       atom_frac         0.87800159        0.47967088        0.27383176  H
       atom_frac         0.65793822        0.20803030        0.24329822  H
       atom_frac         0.24423132        0.15908754        0.15304713  H
       atom_frac         0.31081483        0.40120202        0.35133904  H
       atom_frac         0.82100810        0.34968434        0.35810268  H
       atom_frac         0.70046329        0.08598148        0.13935010  H
       atom_frac         0.16630430        0.19822643        0.49670228  H
       atom_frac         0.37132923        0.45841330        0.01817759  H
       atom_frac         0.88108335        0.30087542        0.02473327  H
       atom_frac         0.68294587        0.03881978        0.49972954  H
       atom_frac         0.07252947        0.13897306        0.33861346  H
       atom_frac         0.49081636        0.39769276        0.18351122  H
       atom_frac         0.99858244        0.36343519        0.18376372  H
       atom_frac         0.56325139        0.08602189        0.33807478  H
       atom_frac         0.09578100        0.00309556        0.67066388  C
       atom_frac         0.43370074        0.27326094        0.83949681  C
       atom_frac         0.91514522        0.48240152        0.83576534  C
       atom_frac         0.61050442        0.24415320        0.66884163  C
       atom_frac         0.12250812        0.07637879        0.61544652  C
       atom_frac         0.39612842        0.33952525        0.89353300  C
       atom_frac         0.88887685        0.41576431        0.89246686  C
       atom_frac         0.64724205        0.17039562        0.61731787  C
       atom_frac         0.06624911        0.04530934        0.52438039  C
       atom_frac         0.46887905        0.30823822        0.98961136  C
       atom_frac         0.97267908        0.44726263        0.98644102  C
       atom_frac         0.57085057        0.19312374        0.52216887  C
       atom_frac         0.11352503        0.12990067        0.97159229  C
       atom_frac         0.42539152        0.36853956        0.53469525  C
       atom_frac         0.93047280        0.37408418        0.53973133  C
       atom_frac         0.59581378        0.13660943        0.96516041  C
       atom_frac         0.04244994        0.10144529        0.88066924  C
       atom_frac         0.49665499        0.34378956        0.62737671  C
       atom_frac         1.00327437        0.39456481        0.63283504  C
       atom_frac         0.53050387        0.16907239        0.87547184  C
       atom_frac         0.13672187        0.03071086        0.73935030  H
       atom_frac         0.38310987        0.29842340        0.76892852  H
       atom_frac         0.84828070        0.45591751        0.76405376  H
       atom_frac         0.67261669        0.23102609        0.74258377  H
       atom_frac         0.17862578        0.16173148        0.64196802  H
       atom_frac         0.31672616        0.41802862        0.87012012  H
       atom_frac         0.80155212        0.33729714        0.86734957  H
       atom_frac         0.73124152        0.09373232        0.64687996  H
       atom_frac         0.19599636        0.20697811        1.00231380  H
       atom_frac         0.33219847        0.44225421        0.50388817  H
       atom_frac         0.84383089        0.29688805        0.50462254  H
       atom_frac         0.67843395        0.05660261        0.99605727  H
       atom_frac         0.04400311        0.16108502        0.83216012  H
       atom_frac         0.47283221        0.40187458        0.66934033  H
       atom_frac         0.97233120        0.33331818        0.66914113  H
       atom_frac         0.56079715        0.11577189        0.83341563  H
       atom_frac         0.12477819        0.51653620        0.16901670  C
       atom_frac         0.40077661        0.74307155        0.33473680  C
       atom_frac         0.93955814        0.98169192        0.34202439  C
       atom_frac         0.58665627        0.74611279        0.16008221  C
       atom_frac         0.14531479        0.58763721        0.11085766  C
       atom_frac         0.38043418        0.82349916        0.38660074  C
       atom_frac         0.90351895        0.90984848        0.39511438  C
       atom_frac         0.61691115        0.67148485        0.10692839  C
       atom_frac         0.07248867        0.55516498        0.01896387  C
       atom_frac         0.46411735        0.80087626        0.48329283  C
       atom_frac         0.96873724        0.93865320        0.48805256  C
       atom_frac         0.55574434        0.70054293        0.01383029  C
       atom_frac         0.09018228        0.63056145        0.47462067  C
       atom_frac         0.42998134        0.87999158        0.02943036  C
       atom_frac         0.94638155        0.87957071        0.04352165  C
       atom_frac         0.58771554        0.61648569        0.46855843  C
       atom_frac         0.02201727        0.60784091        0.38287979  C
       atom_frac         0.48908033        0.85058923        0.11927521  C
       atom_frac         1.00470982        0.91177609        0.13193836  C
       atom_frac         0.51375680        0.64568266        0.37823228  C
       atom_frac         0.17255491        0.54930724        0.23858058  H
       atom_frac         0.32912088        0.75136111        0.25918503  H
       atom_frac         0.88657391        0.95851010        0.27039417  H
       atom_frac         0.63531268        0.72204714        0.23307736  H
       atom_frac         0.20860864        0.67171717        0.13388195  H
       atom_frac         0.30727858        0.90611953        0.35804376  H
       atom_frac         0.83586608        0.82800589        0.36833757  H
       atom_frac         0.68917616        0.59082155        0.13489759  H
       atom_frac         0.16073512        0.70944613        0.50758807  H
       atom_frac         0.36182621        0.96110269        0.00216921  H
       atom_frac         0.86314880        0.80075337        0.01047120  H
       atom_frac         0.66174545        0.53635774        0.49734757  H
       atom_frac         0.04873341        0.66688384        0.34248100  H
       atom_frac         0.46741310        0.91257576        0.15914934  H
       atom_frac         0.97007197        0.86095118        0.17510138  H
       atom_frac         0.54159927        0.58699916        0.33656887  H
       atom_frac         0.10885675        0.49852189        0.67716660  C
       atom_frac         0.44047979        0.76090741        0.83034348  C
       atom_frac         0.93674520        1.00027778        0.84348780  C
       atom_frac         0.59841882        0.74712374        0.66873151  C
       atom_frac         0.13966579        0.57830471        0.62634284  C
       atom_frac         0.40241766        0.83387205        0.88113918  C
       atom_frac         0.90447141        0.92926768        0.89668932  C
       atom_frac         0.62694410        0.66884933        0.61795404  C
       atom_frac         0.06604549        0.55572896        0.53032620  C
       atom_frac         0.45923702        0.80646633        0.97452416  C
       atom_frac         0.98222380        0.95271044        0.99048812  C
       atom_frac         0.56469518        0.69335943        0.52443160  C
       atom_frac         0.10122560        0.62174747        0.95891791  C
       atom_frac         0.43558469        0.87615320        0.53754295  C
       atom_frac         0.94998786        0.86467172        0.54664297  C
       atom_frac         0.58380975        0.62633838        0.95806220  C
       atom_frac         0.01749362        0.58743098        0.86859106  C
       atom_frac         0.50515843        0.85189394        0.62929645  C
       atom_frac         1.00956759        0.89538721        0.63571571  C
       atom_frac         0.52452594        0.65503199        0.86584156  C
       atom_frac         0.17241019        0.51290067        0.75296456  H
       atom_frac         0.40110343        0.78956818        0.76285436  H
       atom_frac         0.86782960        0.98315657        0.76978423  H
       atom_frac         0.65556096        0.72843434        0.74081623  H
       atom_frac         0.22865222        0.65266835        0.66192228  H
       atom_frac         0.33253110        0.91352694        0.84917619  H
       atom_frac         0.81836170        0.84872054        0.86375137  H
       atom_frac         0.70884704        0.59190236        0.64893297  H
       atom_frac         0.18856578        0.70038215        0.98282878  H
       atom_frac         0.36481125        0.95651515        0.50778377  H
       atom_frac         0.87869925        0.78284680        0.51993700  H
       atom_frac         0.66663856        0.54837374        0.98721256  H
       atom_frac         0.03711487        0.64000842        0.82224928  H
       atom_frac         0.48730612        0.91346801        0.66880866  H
       atom_frac         0.99227273        0.83181397        0.67742682  H
       atom_frac         0.55784841        0.60191667        0.82618416  H

 
  Finished reading input file 'geometry.in'.
 

 
  Consistency checks for stacksize environment parameter are next.
 
  | Maximum stacksize for task 0: unlimited
  | Maximum stacksize for task 1: unlimited
  | Maximum stacksize for task 2: unlimited
  | Maximum stacksize for task 3: unlimited
  | Maximum stacksize for task 4: unlimited
  | Maximum stacksize for task 5: unlimited
  | Maximum stacksize for task 6: unlimited
  | Maximum stacksize for task 7: unlimited
  | Maximum stacksize for task 8: unlimited
  | Maximum stacksize for task 9: unlimited
  | Maximum stacksize for task 10: unlimited
  | Maximum stacksize for task 11: unlimited
  | Maximum stacksize for task 12: unlimited
  | Maximum stacksize for task 13: unlimited
  | Maximum stacksize for task 14: unlimited
  | Maximum stacksize for task 15: unlimited
  | Maximum stacksize for task 16: unlimited
  | Maximum stacksize for task 17: unlimited
  | Current stacksize for task 0: unlimited
  | Current stacksize for task 1: unlimited
  | Current stacksize for task 2: unlimited
  | Current stacksize for task 3: unlimited
  | Current stacksize for task 4: unlimited
  | Current stacksize for task 5: unlimited
  | Current stacksize for task 6: unlimited
  | Current stacksize for task 7: unlimited
  | Current stacksize for task 8: unlimited
  | Current stacksize for task 9: unlimited
  | Current stacksize for task 10: unlimited
  | Current stacksize for task 11: unlimited
  | Current stacksize for task 12: unlimited
  | Current stacksize for task 13: unlimited
  | Current stacksize for task 14: unlimited
  | Current stacksize for task 15: unlimited
  | Current stacksize for task 16: unlimited
  | Current stacksize for task 17: unlimited
 
  Consistency checks for the contents of control.in are next.
 
  MPI_IN_PLACE appears to work with this MPI implementation.
  | Keeping use_mpi_in_place .true. (see manual).
  Explicit treatment of the Coulomb operator is needed, but the RI method is not specified.
  Coulomb operator: Defaulting to 'LVL fast' resolution of identity - RI_type = LVL_fast
  Species H: Using default value for prodbas_acc =   1.000000E-06.
  Species H: Using default value max_l_prodbas =     6.
  Species C: Using default value for prodbas_acc =   1.000000E-06.
  Species C: Using default value max_l_prodbas =     6.
  Target number of points in a grid batch is not set.  Since GPU acceleration is enabled, defaulting to  200
  Method for grid partitioning is not set. Defaulting to parallel hash+maxmin partitioning.
  Batch size limit is not set. Defaulting to    200
  By default, will store active basis functions for each batch.
  If in need of memory, prune_basis_once .false. can be used to disable this option.
  communication_type for Hartree potential was not specified.
  Defaulting to calc_hartree .
  Defaulting to Pulay charge density mixer.
  Pulay mixer: Number of relevant iterations not set.
  Defaulting to    8 iterations.
  Pulay mixer: Number of initial linear mixing iterations not set.
  Defaulting to    0 iterations.
  Work space size for distributed Hartree potential not set.
  Defaulting to   0.200000E+03 MB.
  Algorithm-dependent basis array size parameters:
  | n_max_pulay                         :        8
  Maximum number of self-consistency iterations not provided.
  Presetting  1000 iterations.
  Presetting      1001 iterations before the initial mixing cycle
  is restarted anyway using the sc_init_iter criterion / keyword.
  Presetting a factor      1.000 between actual scf density residual
  and density convergence criterion sc_accuracy_rho below which sc_init_iter
  takes no effect.
 * No s.c.f. convergence criteria (sc_accuracy_*) were provided in control.in.
 * The run will proceed with a reasonable default guess, but please check whether.
 * the s.c.f. cycles seem to take too much or too little time.
  Geometry relaxation not requested: no relaxation will be performed.
 * Notice: The s.c.f. convergence criterion sc_accuracy_rho was not provided.
 * We used to stop in this case, and ask the user to provide reasonable
 * scf convergence criteria. However, this led some users to employ criteria
 * that led to extremely long run times, e.g., for simple relaxation.
 * We now preset a default value for sc_accuracy_rho if it is not set.
 * You may still wish to check if this setting is too tight or too loose for your needs.
 * Based on n_atoms and forces and force-correction status, FHI-aims chose sc_accuracy_rho =  0.391918E-04 .
  No accuracy limit for integral partition fn. given. Defaulting to  0.1000E-14.
  No threshold value for u(r) in integrations given. Defaulting to  0.1000E-05.
  No occupation type (smearing scheme) given. Defaulting to Gaussian broadening, width =  0.1000E-01 eV.
  The width will be adjusted in iteration number     2 of the first full s.c.f. cycle only.
  S.C.F. convergence parameters will be adjusted in iteration number     2 of the first full s.c.f. cycle only.
  No accuracy for occupation numbers given. Defaulting to  0.1000E-12.
  No threshold value for occupation numbers given. Defaulting to  0.0000E+00.
  No accuracy for fermi level given. Defaulting to  0.1000E-19.
  Maximum # of iterations to find E_F not set. Defaulting to  200.
  Preferred method for the eigenvalue solver ('KS_method') not specified in 'control.in'.
  Calling BLACS routine to test compilation state
  Since ScaLAPACK support is enabled, defaulting to ELPA (via ELSI).
  Will not use alltoall communication since running on < 1024 CPUs.
  Threshold for basis singularities not set.
  Default threshold for basis singularities:  0.1000E-04
  partition_type (choice of integration weights) for integrals was not specified.
  | Using a version of the partition function of Stratmann and coworkers ('stratmann_sparse').
  | At each grid point, the set of atoms used to build the partition table is smoothly restricted to
  | only those atoms whose free-atom density would be non-zero at that grid point.
  Partitioning for Hartree potential was not defined. Using partition_type for integrals.
  | Adjusted default value of keyword multip_moments_threshold to:       0.10000000E-11
  | This value may affect high angular momentum components of the Hartree potential in periodic systems.
  Angular momentum expansion for Kerker preconditioner not set explicitly.
  | Using default value of   0
  No explicit requirement for turning off preconditioner.
  | By default, it will be turned off when the charge convergence reaches
  | sc_accuracy_rho  =   0.391918E-04
  No special mixing parameter while Kerker preconditioner is on.
  Using default: charge_mix_param =     0.7500.
  Threshold for auxiliary basis singularities not set.
  Default threshold for auxiliary basis singularities:  0.1000E-04
  No q(lm)/r^(l+1) cutoff set for long-range Hartree potential.
  | Using default value of  0.100000E-09 .
  | Verify using the multipole_threshold keyword.
  Defaulting to new monopole extrapolation.
  Density update method: automatic selection selected.
  Using density matrix based charge density update.
  Using density matrix based charge density update.
  Using packed matrix style: index .
  Defaulting to use time-reversal symmetry for k-point grid.
  Charge integration errors on the 3D integration grid will be compensated
  by explicit normalization and distribution of residual charges.
  Use the "compensate_multipole_errors" flag to change this behaviour.
  Default to 1D ("use_logsbt") integrations for auxiliary 2-center integrals.
  Default onset of logarithmic r-grid for SBT is -38.000000000000
  Default onset of logarithmic k-grid for SBT is -25.000000000000
  Default range of logarithmic r- and k-grid for SBT is  45.000000000000
  Default number of logarithmic r- and k-grid for SBT is   4096
  Default of use_2d_corr is to use the efficient 2D distribution where possible
 
  Consistency checks for the contents of geometry.in are next.
 

  Range separation radius for Ewald summation (hartree_convergence_parameter):      2.91768261 bohr.
  Number of empty states per atom not set in control.in .
  | Since you are using a method that relies on the unoccupied spectrum
  | (MP2,GW,RPA et al.), will use the full Hamiltonian size (see below)
  | as the max. possible number of states (occupied plus empty).

  Structure-dependent array size parameters: 
  | Maximum number of distinct radial functions  :        9
  | Maximum number of basis functions            :     1440
  | Number of Kohn-Sham states (occupied + empty):     1440
------------------------------------------------------------
CUDA runtime version: 11060
CUDA driver version: 11060
  Initializing GPUs...

  Number of GPUs available to MPI task         0 :   1
  Number of GPUs available to MPI task         1 :   1
  Number of GPUs available to MPI task         2 :   1
  Number of GPUs available to MPI task         3 :   1
  Number of GPUs available to MPI task         4 :   1
  Number of GPUs available to MPI task         5 :   1
  Number of GPUs available to MPI task         6 :   1
  Number of GPUs available to MPI task         7 :   1
  Number of GPUs available to MPI task         8 :   1
  Number of GPUs available to MPI task         9 :   1
  Number of GPUs available to MPI task        10 :   1
  Number of GPUs available to MPI task        11 :   1
  Number of GPUs available to MPI task        12 :   1
  Number of GPUs available to MPI task        13 :   1
  Number of GPUs available to MPI task        14 :   1
  Number of GPUs available to MPI task        15 :   1
  Number of GPUs available to MPI task        16 :   1
  Number of GPUs available to MPI task        17 :   1

  | MPI task         0, GPU activated = T, Device Name = NVIDIA A100-SXM4-80GB
  | MPI task         1, GPU activated = T, Device Name = NVIDIA A100-SXM4-80GB
  | MPI task         2, GPU activated = T, Device Name = NVIDIA A100-SXM4-80GB
  | MPI task         3, GPU activated = T, Device Name = NVIDIA A100-SXM4-80GB
  | MPI task         4, GPU activated = T, Device Name = NVIDIA A100-SXM4-80GB
  | MPI task         5, GPU activated = T, Device Name = NVIDIA A100-SXM4-80GB
  | MPI task         6, GPU activated = T, Device Name = NVIDIA A100-SXM4-80GB
  | MPI task         7, GPU activated = T, Device Name = NVIDIA A100-SXM4-80GB
  | MPI task         8, GPU activated = T, Device Name = NVIDIA A100-SXM4-80GB
  | MPI task         9, GPU activated = T, Device Name = NVIDIA A100-SXM4-80GB
  | MPI task        10, GPU activated = T, Device Name = NVIDIA A100-SXM4-80GB
  | MPI task        11, GPU activated = T, Device Name = NVIDIA A100-SXM4-80GB
  | MPI task        12, GPU activated = T, Device Name = NVIDIA A100-SXM4-80GB
  | MPI task        13, GPU activated = T, Device Name = NVIDIA A100-SXM4-80GB
  | MPI task        14, GPU activated = T, Device Name = NVIDIA A100-SXM4-80GB
  | MPI task        15, GPU activated = T, Device Name = NVIDIA A100-SXM4-80GB
  | MPI task        16, GPU activated = T, Device Name = NVIDIA A100-SXM4-80GB
  | MPI task        17, GPU activated = T, Device Name = NVIDIA A100-SXM4-80GB

------------------------------------------------------------
          Preparing all fixed parts of the calculation.
------------------------------------------------------------
  Determining machine precision:
    2.225073858507201E-308
  Setting up grids for atomic and cluster calculations.

  Creating wave function, potential, and density for free atoms.
  Runtime choices for atomic solver:
  | atomic solver xc        : PW-LDA
  | compute density gradient: 0
  | compute kinetic density : F

  Species: H

  List of occupied orbitals and eigenvalues:
    n    l              occ      energy [Ha]    energy [eV]
    1    0           1.0000        -0.232375        -6.3233


  Species: C

  List of occupied orbitals and eigenvalues:
    n    l              occ      energy [Ha]    energy [eV]
    1    0           2.0000        -9.944615      -270.6068
    2    0           2.0000        -0.498807       -13.5732
    2    1           2.0000        -0.196968        -5.3598


  Adding cutoff potential to free-atom effective potential.
  Creating fixed part of basis set: Ionic, confined, hydrogenic.
 
  H                    hydrogenic:
 
  List of hydrogenic basis orbitals: 
    n    l      effective z      eigenvalue [eV]  inner max. [A]     outer max. [A]     outer radius [A]   
    2    0         2.100000       -14.9728           0.193243           1.317208           4.583499
    2    1         3.500000       -41.6669           0.602369           0.602369           3.723403
 
 
  C                    hydrogenic:
 
  List of hydrogenic basis orbitals: 
    n    l      effective z      eigenvalue [eV]  inner max. [A]     outer max. [A]     outer radius [A]   
    2    1         1.700000        -9.7616           1.230570           1.230570           4.607917
    3    2         6.000000       -54.4224           0.792453           0.792453           3.883070
    2    0         4.900000       -81.6679           0.082559           0.562749           3.078220
 
  Creating atomic-like basis functions for current effective potential.

  Species H                   :

  List of atomic basis orbitals and eigenvalues:
    n    l      energy [Ha]    energy [eV]    outer radius [A]
    1    0        -0.232375        -6.3233       4.527807


  Species C                   :

  List of atomic basis orbitals and eigenvalues:
    n    l      energy [Ha]    energy [eV]    outer radius [A]
    1    0        -9.944615      -270.6068       1.934409
    2    0        -0.498807       -13.5732       4.496620
    2    1        -0.196968        -5.3598       4.551928

  Assembling full basis from fixed parts.
  | Species H :   atomic orbital   1 s accepted.
  | Species H :    hydro orbital   2 s accepted.
  | Species H :    hydro orbital   2 p accepted.
  | Species C :   atomic orbital   1 s accepted.
  | Species C :    hydro orbital   2 s accepted.
  | Species C :   atomic orbital   2 s accepted.
  | Species C :   atomic orbital   2 p accepted.
  | Species C :    hydro orbital   2 p accepted.
  | Species C :    hydro orbital   3 d accepted.
 
  Basis size parameters after reduction:
  | Total number of radial functions:        9
  | Total number of basis functions :     1440
 
  Per-task memory consumption for arrays in subroutine allocate_ext:
  |           2.242384MB.
  Testing on-site integration grid accuracy.
  |  Species  Function  <phi|h_atom|phi> (log., in eV)  <phi|h_atom|phi> (rad., in eV)
           1        1                 -6.3245358373                 -6.3232436907
           1        2                 14.1326137532                 14.1384481100
           1        3                 25.3627025200                 25.3628451197
           2        4               -270.6067544938               -270.6067222788
           2        5                -10.5634280949                -10.5635685736
           2        6                 16.2089822398                 16.2052121796
           2        7                 -5.3613872565                 -5.3627872378
           2        8                  8.5292058327                  8.5051734780
           2        9                 27.4884461005                 27.4884542459

  Preparing densities etc. for the partition functions (integrals / Hartree potential).

  Preparations completed.
  max(cpu_time)          :      0.076 s.
  Wall clock time (cpu1) :      0.070 s.
------------------------------------------------------------

  Initializing index lists of integration centers etc. from given atomic structure:
  Mapping all atomic coordinates to central unit cell.

  Initializing the k-points
  Using symmetry for reducing the k-points
  | k-points reduced from:        2 to        2
  | Number of k-points                             :         2
  | Consuming          0 KiB for k_phase_exx.
  The eigenvectors in the calculations are REAL.
  | Number of basis functions in the Hamiltonian integrals :      8062
  | Number of basis functions in a single unit cell        :      1440
  | Number of centers in hartree potential         :      3341
  | Number of centers in hartree multipole         :      2564
  | Number of centers in electron density summation:      2002
  | Number of centers in basis integrals           :      2133
  | Number of centers in integrals                 :       967
  | Number of centers in hamiltonian               :      2008
  | Consuming          1 KiB for k_phase.
  | Number of super-cells (origin) [n_cells]                     :         175
  | Number of super-cells (after PM_index) [n_cells]             :          38
  | Number of super-cells in hamiltonian [n_cells_in_hamiltonian]:          38
  | Size of matrix packed + index [n_hamiltonian_matrix_size] :     1932084
  | Size of matrix packed + index (no_symmetry):     3861351

------------------------------------------------------------
          Begin self-consistency loop: Initialization.

          Date     :  20230119, Time     :  185129.811
------------------------------------------------------------
  | Estimated reciprocal-space cutoff momentum G_max:         3.24344278 bohr^-1 .
  | Reciprocal lattice points for long-range Hartree potential:    5310
  Using simple linear distribution as default method for k-point parallelism.
  * Using 18 tasks for Scalapack Eigenvalue solver.
  Detailed listing of tasks and assigned k-points:
   Task     0 k-point     1 on adag003
   Task     1 k-point     1 on adag003
   Task     2 k-point     1 on adag003
   Task     3 k-point     1 on adag003
   Task     4 k-point     1 on adag003
   Task     5 k-point     1 on adag003
   Task     6 k-point     1 on adag003
   Task     7 k-point     1 on adag003
   Task     8 k-point     1 on adag003
   Task     9 k-point     2 on adag003
   Task    10 k-point     2 on adag003
   Task    11 k-point     2 on adag003
   Task    12 k-point     2 on adag003
   Task    13 k-point     2 on adag003
   Task    14 k-point     2 on adag003
   Task    15 k-point     2 on adag003
   Task    16 k-point     2 on adag003
   Task    17 k-point     2 on adag003
  K-point:     1 Tasks:     9 split into      3 X      3 BLACS grid
  Calculating block size based on n_basis =         1440  max_nprow =            3  max_npcol =            3
  ScaLAPACK block size set to:           16
  Allocating        1.758 MB for ovlp
  Allocating        1.758 MB for ham
  Allocating        1.758 MB for eigenvec
  Required Scalapack workspace - INTEGER:            1  REAL:             1
  Partitioning the integration grid into batches with parallel hashing+maxmin method.
  | Number of batches:     5632
  | Maximal batch size:     189
  | Minimal batch size:     101
  | Average batch size:     135.625
  | Standard deviation of batch sizes:      29.686

  Integration load balanced across    18 MPI tasks.
  Work distribution over tasks is as follows:
  Task     0 has      42422 integration points.
  Task     1 has      42428 integration points.
  Task     2 has      42424 integration points.
  Task     3 has      42451 integration points.
  Task     4 has      42490 integration points.
  Task     5 has      42433 integration points.
  Task     6 has      42450 integration points.
  Task     7 has      42437 integration points.
  Task     8 has      42440 integration points.
  Task     9 has      42404 integration points.
  Task    10 has      42460 integration points.
  Task    11 has      42461 integration points.
  Task    12 has      42433 integration points.
  Task    13 has      42446 integration points.
  Task    14 has      42408 integration points.
  Task    15 has      42382 integration points.
  Task    16 has      42428 integration points.
  Task    17 has      42443 integration points.
  Initializing partition tables, free-atom densities, potentials, etc. across the integration grid (initialize_grid_storage).
  | initialize_grid_storage: Actual outermost partition radius vs. multipole_radius_free
  | (-- VB: in principle, multipole_radius_free should be larger, hence this output)
  | Species        1: Confinement radius =              4.999999999999999 AA, multipole_radius_free =              5.054417573612229 AA.
  | Species        1: outer_partition_radius set to              5.054417573612229 AA .
  | Species        2: Confinement radius =              4.999999999999999 AA, multipole_radius_free =              5.019602836301480 AA.
  | Species        2: outer_partition_radius set to              5.019602836301480 AA .
  | The sparse table of interatomic distances needs       7683.64 kbyte instead of     36397.51 kbyte of memory.
  | Net number of integration points:   763840
  | of which are non-zero points    :   605462
  | Numerical average free-atom electrostatic potential    :     -8.61470982 eV
  Renormalizing the initial density to the exact electron count on the 3D integration grid.
  | Initial density: Formal number of electrons (from input files) :     544.0000000000
  | Integrated number of electrons on 3D grid     :     543.9985902285
  | Charge integration error                      :      -0.0014097715
  | Normalization factor for density and gradient :       1.0000025915
  Renormalizing the free-atom superposition density to the exact electron count on the 3D integration grid.
  | Formal number of electrons (from input files) :     544.0000000000
  | Integrated number of electrons on 3D grid     :     543.9985902285
  | Charge integration error                      :      -0.0014097715
  | Normalization factor for density and gradient :       1.0000025915
  Obtaining max. number of non-zero basis functions in each batch (get_n_compute_maxes).
  | Maximal number of non-zero basis functions:      542 in task     0
  | Maximal number of non-zero basis functions:      551 in task     1
  | Maximal number of non-zero basis functions:      537 in task     2
  | Maximal number of non-zero basis functions:      525 in task     3
  | Maximal number of non-zero basis functions:      558 in task     4
  | Maximal number of non-zero basis functions:      540 in task     5
  | Maximal number of non-zero basis functions:      549 in task     6
  | Maximal number of non-zero basis functions:      534 in task     7
  | Maximal number of non-zero basis functions:      539 in task     8
  | Maximal number of non-zero basis functions:      534 in task     9
  | Maximal number of non-zero basis functions:      537 in task    10
  | Maximal number of non-zero basis functions:      524 in task    11
  | Maximal number of non-zero basis functions:      552 in task    12
  | Maximal number of non-zero basis functions:      542 in task    13
  | Maximal number of non-zero basis functions:      558 in task    14
  | Maximal number of non-zero basis functions:      550 in task    15
  | Maximal number of non-zero basis functions:      542 in task    16
  | Maximal number of non-zero basis functions:      544 in task    17
  Integrating Hamiltonian matrix: batch-based integration.
  GPU acceleration will be used when integrating the Hamiltonian matrix.
  Reporting GPU memory usage by myid 0.  Note that it is likely not the only MPI task binding to its GPU!
  Allocating        2.350 MB on GPU for hamiltonian_shell
  Allocating        0.820 MB on GPU for wave
  Allocating        0.002 MB on GPU for partition
  Allocating        0.820 MB on GPU for h_times_psi
  Time summed over all CPUs for integration: real work       20.322 s, elapsed       20.727 s
  Deallocating memory used on GPU for Hamiltonian integration.
  Integrating overlap matrix.
  Time summed over all CPUs for integration: real work       17.240 s, elapsed       17.874 s
  Deallocating overlap matrix.

  Updating Kohn-Sham eigenvalues and eigenvectors using ELSI and the ELPA eigensolver.
  Singularity check in k-point 1 (analysis for other k-points may follow below):
  Overlap matrix is not singular
  | Lowest and highest eigenvalues :  0.7910E-03,  0.8254E+01
  Finished singularity check of overlap matrix
  | Time :     0.090 s
  Starting ELPA eigensolver
  Finished Cholesky decomposition
  | Time :     0.016 s
  Finished transformation to standard eigenproblem
  | Time :     0.019 s
  Finished solving standard eigenproblem
  | Time :     0.191 s
  Finished back-transformation of eigenvectors
  | Time :     0.014 s

  Obtaining occupation numbers and electronic chemical potential using ELSI.
  | Note that, for insulating systems, the printed 'chemical potential' value is not uniquely defined.
  | It can be anywhere in the energy gap, as long as it correctly separates occupied and unoccupied states.
  | In systems with a gap, the physically relevant chemical potential is the VBM or HOMO.

  | Chemical potential (Fermi level):    -8.81024034 eV
  Writing Kohn-Sham eigenvalues.
  K-point:       1 at    0.000000    0.000000    0.000000 (in units of recip. lattice)

  State    Occupation    Eigenvalue [Ha]    Eigenvalue [eV]
      1       2.00000         -10.070151         -274.02275
      2       2.00000         -10.068623         -273.98118
      3       2.00000         -10.068412         -273.97544
      4       2.00000         -10.068257         -273.97122
      5       2.00000         -10.068221         -273.97024
      6       2.00000         -10.068016         -273.96467
      7       2.00000         -10.067898         -273.96143
      8       2.00000         -10.067836         -273.95975
      9       2.00000         -10.066954         -273.93575
     10       2.00000         -10.066939         -273.93534
     11       2.00000         -10.066807         -273.93176
     12       2.00000         -10.066704         -273.92895
     13       2.00000         -10.066537         -273.92441
     14       2.00000         -10.066317         -273.91843
     15       2.00000         -10.065942         -273.90822
     16       2.00000         -10.065784         -273.90391
     17       2.00000         -10.065757         -273.90318
     18       2.00000         -10.065748         -273.90294
     19       2.00000         -10.065583         -273.89846
     20       2.00000         -10.065533         -273.89709
     21       2.00000         -10.065487         -273.89584
     22       2.00000         -10.065458         -273.89504
     23       2.00000         -10.065333         -273.89166
     24       2.00000         -10.064888         -273.87954
     25       2.00000         -10.064832         -273.87802
     26       2.00000         -10.064684         -273.87397
     27       2.00000         -10.064654         -273.87317
     28       2.00000         -10.064565         -273.87075
     29       2.00000         -10.064554         -273.87045
     30       2.00000         -10.064476         -273.86834
     31       2.00000         -10.063982         -273.85488
     32       2.00000         -10.063944         -273.85385
     33       2.00000         -10.063486         -273.84139
     34       2.00000         -10.063351         -273.83772
     35       2.00000         -10.063312         -273.83665
     36       2.00000         -10.063207         -273.83379
     37       2.00000         -10.063167         -273.83271
     38       2.00000         -10.063160         -273.83253
     39       2.00000         -10.063071         -273.83009
     40       2.00000         -10.062831         -273.82357
     41       2.00000         -10.062698         -273.81995
     42       2.00000         -10.062536         -273.81552
     43       2.00000         -10.062511         -273.81486
     44       2.00000         -10.062302         -273.80917
     45       2.00000         -10.062268         -273.80824
     46       2.00000         -10.062119         -273.80419
     47       2.00000         -10.062098         -273.80362
     48       2.00000         -10.061984         -273.80050
     49       2.00000         -10.061961         -273.79990
     50       2.00000         -10.061868         -273.79736
     51       2.00000         -10.061547         -273.78862
     52       2.00000         -10.061445         -273.78585
     53       2.00000         -10.061046         -273.77500
     54       2.00000         -10.061021         -273.77432
     55       2.00000         -10.061014         -273.77413
     56       2.00000         -10.060693         -273.76539
     57       2.00000         -10.060544         -273.76133
     58       2.00000         -10.060325         -273.75538
     59       2.00000         -10.060297         -273.75461
     60       2.00000         -10.060081         -273.74873
     61       2.00000         -10.059715         -273.73878
     62       2.00000         -10.058641         -273.70954
     63       2.00000         -10.058456         -273.70450
     64       2.00000         -10.057993         -273.69191
     65       2.00000         -10.057863         -273.68837
     66       2.00000         -10.057861         -273.68833
     67       2.00000         -10.057568         -273.68036
     68       2.00000         -10.057427         -273.67652
     69       2.00000         -10.057384         -273.67533
     70       2.00000         -10.057168         -273.66948
     71       2.00000         -10.056642         -273.65516
     72       2.00000         -10.056183         -273.64267
     73       2.00000         -10.056119         -273.64093
[...]
  |    H      0     4.527807 A      4.583499 A        4.713786E-16 a.u.
  |    H      2     3.678162 A  1.011968E+04 A            0.556529 a.u.
  |    H      1     3.958095 A  1.721251E+06 A            0.841931 a.u.
  |    H      0     4.527807 A  3.866455E+12 A            0.581436 a.u.
  |    C      0     2.562483 A      2.562483 A        6.563029E-17 a.u.
  |    C      0     2.967371 A      2.967371 A        1.352164E-16 a.u.
  |    C      0     3.003870 A      3.003870 A        2.312640E-17 a.u.
  |    C      1     3.272245 A      3.272245 A       -3.835259E-17 a.u.
  |    C      0     3.312494 A      3.312494 A       -2.710381E-16 a.u.
  |    C      3     4.077671 A      4.077671 A       -1.683752E-15 a.u.
  |    C      3     4.077671 A      4.077671 A        1.412852E-15 a.u.
  |    C      1     4.496620 A      4.496620 A       -3.011059E-16 a.u.
  |    C      0     4.496620 A      4.551928 A        2.873903E-17 a.u.
  |    C      2     4.551928 A      4.551928 A       -4.610785E-16 a.u.
  |    C      2     4.551928 A      4.551928 A        7.440584E-16 a.u.
  |    C      2     4.551928 A      4.551928 A       -7.110458E-16 a.u.
  |    C      2     4.551928 A      4.551928 A       -1.935424E-16 a.u.
  |    C      0     4.551928 A      4.607917 A        2.067142E-16 a.u.
  |    C      0     4.551928 A      4.607917 A       -1.109786E-16 a.u.
  |    C      1     4.551928 A      4.607917 A       -9.951742E-17 a.u.
  |    C      1     4.551928 A      4.607917 A        1.937809E-16 a.u.
  |    C      1     4.607917 A      4.607917 A       -2.813308E-16 a.u.
  |    C      1     4.607917 A      4.607917 A       -7.330363E-17 a.u.
  |    C      2     4.607917 A      4.607917 A        1.318462E-15 a.u.
  |    C      2     4.607917 A      4.607917 A       -1.318397E-15 a.u.
  |    C      0     4.607917 A      4.664595 A        3.157826E-16 a.u.
  |    C      1     4.607917 A      4.664595 A        7.356967E-16 a.u.
  |    C      4     3.835889 A  2.962973E+02 A            4.379483 a.u.
  |    C      3     4.127827 A  1.725964E+03 A            9.005588 a.u.
  |    C      2     4.607917 A  2.608475E+04 A            9.531178 a.u.
  |    C      1     4.607917 A  2.736013E+06 A            2.127278 a.u.
  |    C      0     4.607917 A  4.399765E+12 A            0.661635 a.u.

  | Shrink_full_auxil_basis : there are       36  radial auxiliary wave functions
                            accepted and       7 rejected.
  | Shrink_full_auxil_basis : there are totally                8992 partial auxiliary wave functions.
 
  | Maximal number of product basis functions per thread :   512   512
 
  | Minimal total memory requirement for three-center overlap :      72.476 Gbs
  | Number of local auxiliary basis functions on task:      0   512
  | Number of local auxiliary basis functions on task:      1   512
  | Number of local auxiliary basis functions on task:      2   512
  | Number of local auxiliary basis functions on task:      3   512
  | Number of local auxiliary basis functions on task:      4   496
  | Number of local auxiliary basis functions on task:      5   496
  | Number of local auxiliary basis functions on task:      6   496
  | Number of local auxiliary basis functions on task:      7   496
  | Number of local auxiliary basis functions on task:      8   496
  | Number of local auxiliary basis functions on task:      9   496
  | Number of local auxiliary basis functions on task:     10   496
  | Number of local auxiliary basis functions on task:     11   496
  | Number of local auxiliary basis functions on task:     12   496
  | Number of local auxiliary basis functions on task:     13   496
  | Number of local auxiliary basis functions on task:     14   496
  | Number of local auxiliary basis functions on task:     15   496
  | Number of local auxiliary basis functions on task:     16   496
  | Number of local auxiliary basis functions on task:     17   496
  | 2D aux task distribution:      3 X      6
  | 2D block size (nb_aux_2d):     64
 
  Basis pair condensation :   1037520  -->     545297
 
 --------------------------------------------
  Constructing auxiliary basis (full product) ...
 
  Product basis:
  | charge radius: extent of product basis function
  | field radius: extent of its Coulomb potential
  | Species   l  charge radius    field radius  multipol momen
  |    H      1     3.910002 A      3.910002 A       -2.487223E-16 a.u.
  |    H      1     3.958095 A      3.958095 A       -2.441841E-16 a.u.
  |    H      0     4.527807 A      4.527807 A        1.268855E-16 a.u.
  |    H      0     4.527807 A      4.583499 A       -4.900954E-17 a.u.
  |    H      0     4.527807 A      4.583499 A        4.713786E-16 a.u.
  |    H      2     3.678162 A  1.011968E+04 A            0.556529 a.u.
  |    H      1     3.958095 A  1.721251E+06 A            0.841931 a.u.
  |    H      0     4.527807 A  3.866455E+12 A            0.581436 a.u.
  |    C      0     2.562483 A      2.562483 A        6.563029E-17 a.u.
  |    C      0     2.967371 A      2.967371 A        1.352164E-16 a.u.
  |    C      0     3.003870 A      3.003870 A        2.312640E-17 a.u.
  |    C      1     3.272245 A      3.272245 A       -3.835259E-17 a.u.
  |    C      0     3.312494 A      3.312494 A       -2.710381E-16 a.u.
  |    C      3     4.077671 A      4.077671 A       -1.683752E-15 a.u.
  |    C      3     4.077671 A      4.077671 A        1.412852E-15 a.u.
  |    C      1     4.496620 A      4.496620 A       -3.011059E-16 a.u.
  |    C      0     4.496620 A      4.551928 A        2.873903E-17 a.u.
  |    C      2     4.551928 A      4.551928 A       -4.610785E-16 a.u.
  |    C      2     4.551928 A      4.551928 A        7.440584E-16 a.u.
  |    C      2     4.551928 A      4.551928 A       -7.110458E-16 a.u.
  |    C      2     4.551928 A      4.551928 A       -1.935424E-16 a.u.
  |    C      0     4.551928 A      4.607917 A        2.067142E-16 a.u.
  |    C      0     4.551928 A      4.607917 A       -1.109786E-16 a.u.
  |    C      1     4.551928 A      4.607917 A       -9.951742E-17 a.u.
  |    C      1     4.551928 A      4.607917 A        1.937809E-16 a.u.
  |    C      1     4.607917 A      4.607917 A       -2.813308E-16 a.u.
  |    C      1     4.607917 A      4.607917 A       -7.330363E-17 a.u.
  |    C      2     4.607917 A      4.607917 A        1.318462E-15 a.u.
  |    C      2     4.607917 A      4.607917 A       -1.318397E-15 a.u.
  |    C      0     4.607917 A      4.664595 A        3.157826E-16 a.u.
  |    C      1     4.607917 A      4.664595 A        7.356967E-16 a.u.
  |    C      4     3.835889 A  2.962973E+02 A            4.379483 a.u.
  |    C      3     4.127827 A  1.725964E+03 A            9.005588 a.u.
  |    C      2     4.607917 A  2.608475E+04 A            9.531178 a.u.
  |    C      1     4.607917 A  2.736013E+06 A            2.127278 a.u.
  |    C      0     4.607917 A  4.399765E+12 A            0.661635 a.u.

  | Shrink_full_auxil_basis : there are       36  radial auxiliary wave functions
                            accepted and       7 rejected.
  | Shrink_full_auxil_basis : there are totally                8992 partial auxiliary wave functions.
 
  | Maximal number of product basis functions per thread :   512   512
 
  | Minimal total memory requirement for three-center overlap :      72.476 Gbs
  | Number of local auxiliary basis functions on task:      0   512
  | Number of local auxiliary basis functions on task:      1   512
  | Number of local auxiliary basis functions on task:      2   512
  | Number of local auxiliary basis functions on task:      3   512
  | Number of local auxiliary basis functions on task:      4   496
  | Number of local auxiliary basis functions on task:      5   496
  | Number of local auxiliary basis functions on task:      6   496
  | Number of local auxiliary basis functions on task:      7   496
  | Number of local auxiliary basis functions on task:      8   496
  | Number of local auxiliary basis functions on task:      9   496
  | Number of local auxiliary basis functions on task:     10   496
  | Number of local auxiliary basis functions on task:     11   496
  | Number of local auxiliary basis functions on task:     12   496
  | Number of local auxiliary basis functions on task:     13   496
  | Number of local auxiliary basis functions on task:     14   496
  | Number of local auxiliary basis functions on task:     15   496
  | Number of local auxiliary basis functions on task:     16   496
  | Number of local auxiliary basis functions on task:     17   496
  | 2D aux task distribution:      3 X      6
  | 2D block size (nb_aux_2d):     64
 
  Basis pair condensation :   1037520  -->     545297
  Allocating        0.069 MB for t_coeff
  Allocating        0.034 MB for basbas_idx
  Allocating        0.069 MB for wave
  Allocating        0.069 MB for total_wave
  Allocating        0.206 MB for wave_gradient
  Allocating        0.206 MB for total_wave_grad
 HERE1
 HERE2
  Deallocating        0.069 MB for t_coeff
  Deallocating        0.034 MB for basbas_idx
  Deallocating        0.069 MB for wave
  Deallocating        0.206 MB for wave_gradient
  Deallocating        0.206 MB for total_wave_grad
dP_dE (Bohr^3) at every cycle:--->
 (998.989690876105,0.000000000000000E+000) (2.53876567086614,0.000000000000000E+000) (-446.610525396044,0.000000000000000E+000)
 (2.59218081627131,0.000000000000000E+000) (1343.18365739145,0.000000000000000E+000) (-1.51040790969928,0.000000000000000E+000)
 (-446.821739478753,0.000000000000000E+000) (-1.53372523449372,0.000000000000000E+000) (1712.76334876106,0.000000000000000E+000)
DFPT polarizability (Bohr^3)        xx        yy        zz        xy        xz        yz
  | Polarizability:--->                       998.989690876                 1343.183657391                 1712.763348761                    2.538765671                 -446.610525396                   -1.510407910

DFPT for dielectric_constant:--->  # PARSE DFPT_dielectric_tensor
               2.355607701635598             0.003445050862393            -0.606040956566271
               0.003517534075339             2.822671572390362            -0.002049591315806
              -0.606327569571219            -0.002081232428184             3.324183330283859

                                               :  max(cpu_time)    wall_clock(cpu1)
  | Time for  dielectric calculation            :        0.001 s           0.001 s
===========================================================================

------------------------------------------------------------------------------
  Final output of selected total energy values:

  The following output summarizes some interesting total energy values
  at the end of a run (AFTER all relaxation, molecular dynamics, etc.).

  | Total energy of the DFT / Hartree-Fock s.c.f. calculation      :         -83267.465301994 eV
  | Final zero-broadening corrected energy (caution - metals only) :         -83267.465301994 eV
  | For reference only, the value of 1 Hartree used in FHI-aims is :             27.211384500 eV
  | For reference only, the overall average (free atom contribution
  | + realspace contribution) of the electrostatic potential after
  | s.c.f. convergence is                                          :             -7.700501610 eV

  Before relying on these values, please be sure to understand exactly which
  total energy value is referred to by a given number. Different objects may
  all carry the same name 'total energy'. Definitions:

  Total energy of the DFT / Hartree-Fock s.c.f. calculation:
  | Note that this energy does not include ANY quantities calculated after the
  | s.c.f. cycle, in particular not ANY RPA, MP2, etc. many-body perturbation terms.

  Final zero-broadening corrected energy:
  | For metallic systems only, a broadening of the occupation numbers at the Fermi
  | level can be extrapolated back to zero broadening by an electron-gas inspired
  | formula. For all systems that are not real metals, this value can be
  | meaningless and should be avoided.

------------------------------------------------------------------------------
  Methods described in the following list of references were used in this FHI-aims run.
  If you publish the results, please make sure to cite these reference if they apply.
  FHI-aims is an academic code, and for our developers (often, Ph.D. students
  and postdocs), scientific credit in the community is essential.
  Thank you for helping us!

  For any use of FHI-aims, please cite:

    Volker Blum, Ralf Gehrke, Felix Hanke, Paula Havu, Ville Havu,
    Xinguo Ren, Karsten Reuter, and Matthias Scheffler
    'Ab initio molecular simulations with numeric atom-centered orbitals'
    Computer Physics Communications 180, 2175-2196 (2009)
    http://doi.org/10.1016/j.cpc.2009.06.022


  For Hartree-Fock, hybrid functionals, or many-body perturbation theory used in your run, please cite:

    Xinguo Ren, Patrick Rinke, Volker Blum, Juergen Wieferink, Alex Tkatchenko,
    Andrea Sanfilippo, Karsten Reuter, and Matthias Scheffler,
    'Resolution-of-identity approach to Hartree-Fock, hybrid density functionals,
    RPA, MP2, and GW with numeric atom-centered orbital basis functions'
    New Journal of Physics 14, 053020 (2012).
    http://doi.org/10.1088/1367-2630/14/5/053020


  The provided symmetry information was generated with SPGlib:

    Atsushi Togo, Yusuke Seto, Dimitar Pashov
    SPGlib 1.7.3 obtained from http://spglib.sourceforge.net
    Copyright (C) 2008 Atsushi Togo


  The DFPT (perturbation by an electric field) part of the code was used.
  Here is the corresponding reference:

    Honghui Shang, Nathaniel Raimbault, Mariana Rossi,
    Christian Carbogno, Patrick Rinke and Matthias Scheffler,
    'All-Electron, Real-Space Perturbation Theory for Homogeneous
    Electric Fields: Theory, Implementation, and Application within dft'
    New Journal of Physics, 20(7):073040, 2018


  The ELSI infrastructure was used in your run to solve the Kohn-Sham electronic structure.
  Please check out http://elsi-interchange.org to learn more.
  If scalability is important for your project, please acknowledge ELSI by citing:

    V. W-z. Yu, F. Corsetti, A. Garcia, W. P. Huhn, M. Jacquelin, W. Jia,
    B. Lange, L. Lin, J. Lu, W. Mi, A. Seifitokaldani, A. Vazquez-Mayagoitia,
    C. Yang, H. Yang, and V. Blum
    'ELSI: A unified software interface for Kohn-Sham electronic structure solvers'
    Computer Physics Communications 222, 267-285 (2018).
    http://doi.org/10.1016/j.cpc.2017.09.007


  For the real-space grid partitioning and parallelization used in this calculation, please cite:

    Ville Havu, Volker Blum, Paula Havu, and Matthias Scheffler,
    'Efficient O(N) integration for all-electron electronic structure calculation'
    'using numerically tabulated basis functions'
    Journal of Computational Physics 228, 8367-8379 (2009).
    http://doi.org/10.1016/j.jcp.2009.08.008


  The high-level electronic structure method used in your calculation
  employed our efficient localized resolution of identity for the Coulomb operator.
  Some calculations, especially large-scale hybrid density functional theory,
  are only possible thanks to this development. For this feature, please cite:

    Arvid Ihrig, Juergen Wieferink, Igor Ying Zhang, Matti Ropo, Xinguo Ren,
    Patrick Rinke, Matthias Scheffler, and Volker Blum,
    'Accurate localized resolution of identity approach for linear-scaling
    hybrid density functionals and for many-body perturbation theory'
    New Journal of Physics 117, 093020 (2015).
    http://doi.org/10.1088/1367-2630/17/9/093020

  Of course, there are many other important community references, e.g., those cited in the
  above references. Our list is limited to references that describe implementations in the
  FHI-aims code. The reason is purely practical (length of this list) - please credit others as well.

------------------------------------------------------------
          Leaving FHI-aims.
          Date     :  20230119, Time     :  191631.607

          Computational steps:
          | Number of self-consistency cycles          :           47
          | Number of SCF (re)initializations          :            1
          | Number of coupled perturbed self-consistency cycles          :            0
          | Number of CPSCF (re)initializations          :            0

          Detailed time accounting                     :  max(cpu_time)    wall_clock(cpu1)
          | Total time                                  :     1502.299 s        1512.359 s
          | GPU initialization                          :        1.837 s           9.456 s
          | Preparation time                            :        0.076 s           0.070 s
          | Boundary condition initalization            :        0.965 s           0.964 s
          | Grid partitioning                           :        1.277 s           1.278 s
          | Preloading free-atom quantities on grid     :        3.684 s           3.684 s
          | Free-atom superposition energy              :        0.452 s           0.452 s
          | Total time for integrations                 :       17.540 s          18.204 s
          | Product basis setup: Total time             :        0.000 s           0.000 s
          | Product basis: | 2-center integrations     :(       0.000 s)  (       0.000 s)
          | Product basis: | LVL 3-center & coefficient:(       0.000 s)  (       0.000 s)
          | Total time for solution of K.-S. equations  :        3.234 s           3.238 s
          | Total time for density update               :       11.876 s          13.313 s
          | Total time for mixing & preconditioning     :       11.482 s          11.484 s
          | Total time for Hartree multipole update     :        0.098 s           0.099 s
          | Total time for Hartree multipole sum        :       43.148 s          43.160 s
          | Total time for total energy evaluation      :        0.007 s           0.000 s
          | Total time first_order_DM                   :        1.923 s           1.919 s
          | Total time first_order_density              :      306.758 s         306.791 s
          | Total time first_order_potential            :      121.919 s         121.959 s
          | Total time first_order_H                    :      585.112 s         585.269 s
          | Total time solving of Sternheimer equations :        1.873 s           1.875 s
          | Total time for dielectric constant          :        0.001 s           0.001 s
          | Total time momentum matrix                  :        0.000 s           0.000 s

          GPU acceleration has been used for charge density update.
          GPU acceleration has been used for real-space Hamiltonian integration.
          Due to GPU usage, wall_clock(cpu1) will give a more reliable estimate for timings.

          Partial memory accounting:
          | Residual value for overall tracked memory usage across tasks:     1.234863 MB (should be 0.000000 MB)
          |
          | Largest tracked array allocation:
          |   Minimum:      103.184 MB (DFPT_pulay_mixing::initialize_pulay_mixing::X_in_diffs on task  0)
          |   Maximum:      103.184 MB (DFPT_pulay_mixing::initialize_pulay_mixing::X_in_diffs on task  0)
          |   Average:      103.184 MB
          |
          | Because the residual tracked memory usage was not zero, the peak value for overall
          | tracked memory usage was not output, as it is probably incorrect.  This is likely due
          | to a missing aims_deallocate statement in the source code, which should be otherwise
          | harmless.
          |
          Note:  These values currently only include a subset of arrays which are explicitly tracked.
          The "true" memory usage will be greater.

          Have a nice day.
------------------------------------------------------------
