------------------------------------------------------------
          Invoking FHI-aims ...

          When using FHI-aims, please cite the following reference:

            Volker Blum, Ralf Gehrke, Felix Hanke, Paula Havu,
            Ville Havu, Xinguo Ren, Karsten Reuter, and Matthias Scheffler,
            'Ab Initio Molecular Simulations with Numeric Atom-Centered Orbitals',
            Computer Physics Communications 180, 2175-2196 (2009)

          In addition, many other developments in FHI-aims are likely important for
          your particular application. A partial list of references is given at the end of
          this file. Thank you for giving credit to the authors of these developments.

          For any questions about FHI-aims, please visit our slack channel at

            https://fhi-aims.slack.com

          and our main development and support site at

            https://aims-git.rz-berlin.mpg.de .

          The latter site, in particular, has a wiki to collect information, as well
          as an issue tracker to log discussions, suggest improvements, and report issues
          or bugs. https://aims-git.rz-berlin.mpg.de is also the main development site
          of the project and all new and updated code versions can be obtained there.
          Please send an email to aims-coordinators@fhi-berlin.mpg.de and we will add
          you to these sites. They are for you and everyone is welcome there.

------------------------------------------------------------



  Date     :  20230119, Time     :  154442.539
  Time zero on CPU 1             :   0.658277000000000E+00  s.
  Internal wall clock time zero  :           443375082.539  s.

  FHI-aims created a unique identifier for this run for later identification
  aims_uuid : D6076F76-6C72-443C-A3DE-E15C7E3759A4

  Build configuration of the current instance of FHI-aims
  -------------------------------------------------------
  FHI-aims version      : 220829
  Commit number         : 9895fc21d
  CMake host system     : Linux-5.3.18-150300.59.68-default
  CMake version         : 3.17.0
  Fortran compiler      : /mpcdf/soft/SLE_15/packages/x86_64/intel_oneapi/2021.3/mpi/2021.3.0/bin/mpiifort (Intel) version 20.2.3.20210609
  Fortran compiler flags: -O3 -ip -fp-model precise
  C compiler            : /mpcdf/soft/SLE_15/packages/x86_64/intel/2021.3.0/bin/icc (Intel) version 20.2.3.20210609
  C compiler flags      : -O3 -ip -fp-model precise -std=gnu99
  CUDA compiler         : /mpcdf/soft/SLE_15/packages/x86_64/cuda/11.6.2/bin/nvcc
  CUDA compiler flags   : -O3 -DAdd_ -lcublas
  ELPA2 kernel          : AVX512
  Using MPI
  Using ScaLAPACK
  Using LibXC
  Using CUDA
  Using i-PI
  Using RLSY
  Linking against: /mpcdf/soft/SLE_15/packages/x86_64/cuda/11.6.2/lib64/libcublas.so
                   /mpcdf/soft/SLE_15/packages/x86_64/cuda/11.6.2/lib64/libcudart.so
                   /mpcdf/soft/SLE_15/packages/x86_64/intel_oneapi/2021.3/mkl/latest/lib/intel64/libmkl_intel_lp64.so
                   /mpcdf/soft/SLE_15/packages/x86_64/intel_oneapi/2021.3/mkl/latest/lib/intel64/libmkl_sequential.so
                   /mpcdf/soft/SLE_15/packages/x86_64/intel_oneapi/2021.3/mkl/latest/lib/intel64/libmkl_core.so
                   /mpcdf/soft/SLE_15/packages/x86_64/intel_oneapi/2021.3/mkl/latest/lib/intel64/libmkl_blacs_intelmpi_lp64.so
                   /mpcdf/soft/SLE_15/packages/x86_64/intel_oneapi/2021.3/mkl/latest/lib/intel64/libmkl_scalapack_lp64.so

  Using       18 parallel tasks.
  Task        0 on host adag008 reporting.
  Task        1 on host adag008 reporting.
  Task        2 on host adag008 reporting.
  Task        3 on host adag008 reporting.
  Task        4 on host adag008 reporting.
  Task        5 on host adag008 reporting.
  Task        6 on host adag008 reporting.
  Task        7 on host adag008 reporting.
  Task        8 on host adag008 reporting.
  Task        9 on host adag008 reporting.
  Task       10 on host adag008 reporting.
  Task       11 on host adag008 reporting.
  Task       12 on host adag008 reporting.
  Task       13 on host adag008 reporting.
  Task       14 on host adag008 reporting.
  Task       15 on host adag008 reporting.
  Task       16 on host adag008 reporting.
  Task       17 on host adag008 reporting.

  Performing system and environment tests:
  | Environment variable OMP_NUM_THREADS correctly set to 1.
  | Checking for ScaLAPACK...
  | Testing pdtran()...
  | All pdtran() tests passed.

  Obtaining array dimensions for all initial allocations:
  
  -----------------------------------------------------------------------
  Parsing control.in (first pass over file, find array dimensions only).
  The contents of control.in will be repeated verbatim below
  unless switched off by setting 'verbatim_writeout .false.' .
  in the first line of control.in .
  -----------------------------------------------------------------------
  
  #
  # Input for polarizability replays on generic oligoacene molecular crystals (light settings,  LDA+MBD).
  #
  #########################################################################################
  #
  #  Physical model
  #
    xc                 pw-lda
    spin               none
    relativistic       none
    charge             0.0
    k_grid 	     2 1 1
    DFPT dielectric
  #
  #  GPU acceleration
  #
  # Turns on GPU acceleration everywhere
    use_gpu
  
  # Turns OFF GPU acceleration of ELPA - may be necessary if GPU ELPA is slow
    elsi_elpa_gpu 0
  #
  #  Relaxation
  #
  #  relax_geometry trm 1E-3
  #  relax_unit_cell fixed_angles
  #
  #  SCF convergence        #
    charge_mix_param   0.75
    #sc_accuracy_rho 1E-4
  #
  # i-PI communication
  #
  compute_forces .false.
  # use_pimd_wrapper 130.183.223.27 26118
  #communicate_pimd_wrapper polarizability
  #output_level MD_light
  #
  # Output SALTED info
    ri_density_restart write
    ri_rho1 write
    ri_full_output .true.
  #  sc_accuracy_rho    1d-6
    default_prodbas_acc 1e-6
    default_max_l_prodbas 6
  #
  #
  ################################################################################
  #
  #  FHI-aims code project
  #  VB, Fritz-Haber Institut, 2009
  #
  #  Suggested "light" defaults for H atom (to be pasted into control.in file)
  #  Be sure to double-check any results obtained with these settings for post-processing,
  #  e.g., with the "tight" defaults and larger basis sets.
  #
  ################################################################################
    species        H
  #     global species definitions
      nucleus             1
      mass                1.00794
  #
      l_hartree           4
  #
      cut_pot             3.5  1.5  1.0
      basis_dep_cutoff    1e-4
  #
      radial_base         24 5.0
      radial_multiplier   1
      angular_grids       specified
        division   0.2421   50
        division   0.3822  110
        division   0.4799  194
        division   0.5341  302
  #      division   0.5626  434
  #      division   0.5922  590
  #      division   0.6542  770
  #      division   0.6868 1202
  #      outer_grid  770
        outer_grid  302
  ################################################################################
  #
  #  Definition of "minimal" basis
  #
  ################################################################################
  #     valence basis states
      valence      1  s   1.
  #     ion occupancy
      ion_occ      1  s   0.5
  ################################################################################
  #
  #  Suggested additional basis functions. For production calculations,
  #  uncomment them one after another (the most important basis functions are
  #  listed first).
  #
  #  Basis constructed for dimers: 0.5 A, 0.7 A, 1.0 A, 1.5 A, 2.5 A
  #
  ################################################################################
  #  "First tier" - improvements: -1014.90 meV to -62.69 meV
       hydro 2 s 2.1
       hydro 2 p 3.5
  #  "Second tier" - improvements: -12.89 meV to -1.83 meV
  #     hydro 1 s 0.85
  #     hydro 2 p 3.7
  #     hydro 2 s 1.2
  #     hydro 3 d 7
  #  "Third tier" - improvements: -0.25 meV to -0.12 meV
  #     hydro 4 f 11.2
  #     hydro 3 p 4.8
  #     hydro 4 d 9
  #     hydro 3 s 3.2
  ################################################################################
  ################################################################################
  #
  #  FHI-aims code project
  #  VB, Fritz-Haber Institut, 2009
  #
  #  Suggested "light" defaults for C atom (to be pasted into control.in file)
  #  Be sure to double-check any results obtained with these settings for post-processing,
  #  e.g., with the "tight" defaults and larger basis sets.
  #
  ################################################################################
    species        C
  #     global species definitions
      nucleus             6
      mass                12.0107
  #
      l_hartree           4
  #
      cut_pot             3.5  1.5  1.0
      basis_dep_cutoff    1e-4
  #
      radial_base         34 5.0
      radial_multiplier   1
      angular_grids specified
        division   0.3326   50
        division   0.5710  110
        division   0.7727  194
        division   0.8772  302
  #      division   0.9334  434
  #      division   0.9625  590
  #      division   0.9924  770
  #      division   1.0230  974
  #      division   1.4589 1202
  #     outer_grid  974
       outer_grid 302
  ################################################################################
  #
  #  Definition of "minimal" basis
  #
  ################################################################################
  #     valence basis states
      valence      2  s   2.
      valence      2  p   2.
  #     ion occupancy
      ion_occ      2  s   1.
      ion_occ      2  p   1.
  ################################################################################
  #
  #  Suggested additional basis functions. For production calculations,
  #  uncomment them one after another (the most important basis functions are
  #  listed first).
  #
  #  Constructed for dimers: 1.0 A, 1.25 A, 1.5 A, 2.0 A, 3.0 A
  #
  ################################################################################
  #  "First tier" - improvements: -1214.57 meV to -155.61 meV
       hydro 2 p 1.7
       hydro 3 d 6
       hydro 2 s 4.9
  #  "Second tier" - improvements: -67.75 meV to -5.23 meV
  #     hydro 4 f 9.8
  #     hydro 3 p 5.2
  #     hydro 3 s 4.3
  #     hydro 5 g 14.4
  #     hydro 3 d 6.2
  #  "Third tier" - improvements: -2.43 meV to -0.60 meV
  #     hydro 2 p 5.6
  #     hydro 2 s 1.4
  #     hydro 3 d 4.9
  #     hydro 4 f 11.2
  #  "Fourth tier" - improvements: -0.39 meV to -0.18 meV
  #     hydro 2 p 2.1
  #     hydro 5 g 16.4
  #     hydro 4 d 13.2
  #     hydro 3 s 13.6
  #     hydro 4 f 17.6
  #  Further basis functions - improvements: -0.08 meV and below
  #     hydro 3 s 2
  #     hydro 3 p 6
  #     hydro 4 d 20
  
  -----------------------------------------------------------------------
  Completed first pass over input file control.in .
  -----------------------------------------------------------------------
  
  
  -----------------------------------------------------------------------
  Parsing geometry.in (first pass over file, find array dimensions only).
  The contents of geometry.in will be repeated verbatim below
  unless switched off by setting 'verbatim_writeout .false.' .
  in the first line of geometry.in .
  -----------------------------------------------------------------------
  
  #=======================================================
  # FHI-aims file: /ada/ptmp/mpsd/alewis/naphthalene/qmdata/data/geoms/1.in
  # Created using the Atomic Simulation Environment (ASE)
  # Thu Jan 19 15:19:16 2023
  #=======================================================
  lattice_vector 8.1020000000000003 0.0000000000000000 0.0000000000000000
  lattice_vector 0.0000000000000000 11.8800000000000008 0.0000000000000000
  lattice_vector -9.7850918486534706 0.0000000000000000 14.2571119625755713
  atom -0.6003070000000000 0.0854750000000000 2.5594999999999999 C
  atom 0.3308690000000000 3.1981000000000002 4.6866199999999996 C
  atom 4.2830399999999997 5.9238000000000000 4.9123799999999997 C
  atom 3.2763200000000001 2.8263300000000000 2.4523600000000001 C
  atom 0.0914352000000000 0.9391530000000000 1.7322700000000000 C
  atom -0.4968630000000000 3.9921500000000001 5.4405799999999997 C
  atom 3.4523799999999998 5.0469700000000000 5.5674599999999996 C
  atom 4.0460900000000004 1.9983200000000001 1.6878299999999999 C
  atom 0.3607070000000000 0.5953680000000000 0.3538490000000000 C
  atom -0.9396910000000001 3.6032000000000002 6.7675799999999997 C
  atom 3.0694300000000001 5.2887100000000000 6.8838900000000001 C
  atom 4.3677299999999999 2.3488899999999999 0.3835210000000000 C
  atom -3.7744599999999999 1.5038199999999999 6.6621499999999996 C
  atom 3.1595300000000002 4.4635300000000004 0.7175810000000000 C
  atom 7.2822699999999996 4.4110300000000002 0.6181030000000000 C
  atom 0.2749180000000000 1.4955200000000000 6.4446099999999999 C
  atom -3.3449100000000000 1.1053700000000000 5.4102300000000003 C
  atom 2.8484699999999998 4.0668800000000003 2.0125299999999999 C
  atom 6.9542200000000003 4.7904499999999999 1.8914400000000000 C
  atom 0.6939640000000000 1.9008400000000001 5.1954399999999996 C
  atom -0.8299960000000000 0.4147960000000000 3.5738200000000000 H
  atom 0.6848530000000000 3.4872600000000000 3.7066499999999998 H
  atom 4.5722899999999997 5.6536700000000000 3.8949300000000000 H
  atom 3.0244499999999999 2.4892300000000001 3.4542299999999999 H
  atom 0.4656600000000000 1.9019600000000001 2.0807799999999999 H
  atom -0.8016630000000000 4.9501400000000002 5.0734000000000004 H
  atom 3.1851799999999999 4.0957299999999996 5.1577900000000003 H
  atom 4.3655700000000000 1.0211100000000000 2.0816599999999998 H
  atom -3.4111799999999999 2.4666399999999999 6.9621000000000004 H
  atom 2.7827099999999998 5.4278300000000002 0.3375840000000000 H
  atom 7.0138100000000003 3.3808799999999999 0.2301180000000000 H
  atom 0.5853260000000000 0.5113520000000000 6.8460000000000001 H
  atom -2.7343799999999998 1.7424700000000000 4.7785599999999997 H
  atom 2.3347500000000001 4.7392000000000003 2.6589999999999998 H
  atom 6.4009700000000000 4.0937299999999999 2.5362900000000002 H
  atom 1.3645799999999999 1.2686999999999999 4.6024900000000004 H
  atom -5.9049699999999996 0.3835910000000000 9.5177300000000002 C
  atom -4.7391800000000002 3.1749200000000002 12.0433000000000003 C
  atom -0.6917140000000001 5.7875399999999999 11.8986999999999998 C
  atom -1.8199799999999999 2.6969799999999999 9.3017800000000008 C
  atom -5.1053499999999996 1.2026500000000000 8.7440899999999999 C
  atom -5.5251299999999999 4.0033399999999997 12.8429000000000002 C
  atom -1.4465800000000000 4.9247300000000003 12.6849000000000007 C
  atom -0.9994030000000000 1.8737100000000000 8.5094999999999992 C
  atom -4.6354800000000003 0.7320880000000000 7.4919500000000001 C
  atom -5.8535800000000000 3.6169600000000002 14.1580999999999992 C
  atom -1.7791800000000000 5.2675200000000002 14.0216999999999992 C
  atom -0.5323230000000000 2.3254100000000002 7.2459499999999997 C
  atom -8.7425599999999992 1.5112800000000000 13.7260000000000009 C
  atom -1.7774200000000000 4.4102399999999999 7.5818199999999996 C
  atom 2.2654399999999999 4.3679800000000002 7.6126600000000000 C
  atom -4.5998000000000001 1.5321600000000000 13.8198000000000008 C
  atom -8.5051100000000002 1.1674700000000000 12.4100999999999999 C
  atom -2.2118199999999999 3.9594100000000001 8.8179099999999995 C
  atom 1.8286899999999999 4.6789100000000001 8.8780199999999994 C
  atom -4.2059400000000000 1.9782400000000000 12.5643999999999991 C
  atom -6.3328499999999996 0.8012800000000000 10.4532000000000007 H
  atom -4.5083500000000001 3.5377600000000000 11.0297999999999998 H
  atom -0.3985720000000000 5.4330200000000000 10.9289000000000005 H
  atom -2.1599699999999999 2.3290600000000001 10.2661999999999995 H
  atom -4.8955399999999996 2.2014700000000000 9.0832300000000004 H
  atom -5.9711200000000000 4.9204600000000003 12.4480000000000004 H
  atom -1.7451000000000001 3.9488400000000001 12.3018000000000001 H
  atom -0.7361340000000000 0.8750599999999999 8.9113299999999995 H
  atom -8.4330400000000001 2.4717799999999999 14.1224000000000007 H
  atom -2.0647700000000002 5.4086400000000001 7.2305400000000004 H
  atom 1.9171499999999999 3.4062000000000001 7.1630500000000001 H
  atom -4.2014600000000000 0.6168560000000000 14.2777999999999992 H
  atom -7.9807399999999999 1.8500799999999999 11.7233999999999998 H
  atom -2.8663799999999999 4.6041600000000003 9.4126499999999993 H
  atom 1.1433000000000000 4.0034500000000000 9.3990399999999994 H
  atom -3.5355799999999999 1.3457200000000000 11.9974000000000007 H
  atom -0.8308110000000000 6.0716200000000002 2.3984700000000001 C
  atom 0.3491530000000000 9.1126600000000000 4.9026500000000004 C
  atom 4.2994300000000001 11.7120999999999995 4.9340999999999999 C
  atom 3.3281200000000002 8.8390100000000000 2.4392600000000000 C
  atom -0.0632498000000000 6.9284999999999997 1.6062799999999999 C
  atom -0.5582530000000000 9.9233799999999999 5.6386500000000002 C
  atom 3.4816600000000002 10.8926999999999996 5.7012400000000003 C
  atom 4.1237800000000000 8.0039499999999997 1.6841500000000000 C
  atom 0.2747700000000000 6.5584800000000003 0.2605840000000000 C
  atom -1.0427800000000000 9.5239999999999991 6.9221700000000004 C
  atom 3.0542300000000000 11.3338000000000001 7.0045900000000003 C
  atom 4.4044100000000004 8.2858599999999996 0.3276470000000000 C
  atom -3.7036600000000002 7.3622699999999996 6.8288099999999998 C
  atom 3.2367100000000000 10.4319000000000006 0.5913490000000000 C
  atom 7.2877900000000002 10.3561999999999994 0.7235400000000000 C
  atom 0.2328490000000000 7.4384300000000003 6.6666900000000000 C
  atom -3.3498299999999999 7.1267800000000001 5.5075700000000003 C
  atom 2.9187099999999999 10.0763999999999996 1.8972500000000001 C
  atom 7.0432100000000002 10.7311999999999994 2.0463900000000002 C
  atom 0.7119490000000001 7.8671100000000003 5.4286799999999999 C
  atom -1.1686700000000001 6.3249700000000004 3.3999700000000002 H
  atom 0.7388220000000000 9.4375400000000003 3.9241400000000000 H
  atom 4.6001300000000001 11.3632000000000009 3.9240900000000001 H
  atom 3.1458599999999999 8.5819600000000005 3.4827499999999998 H
  atom 0.1987200000000000 7.8976600000000001 2.0169800000000002 H
  atom -0.9026100000000000 10.8605999999999998 5.2398899999999999 H
  atom 3.0855299999999999 9.9268000000000001 5.3013700000000004 H
  atom 4.4008099999999999 7.0350200000000003 2.0664600000000002 H
  atom -3.3610300000000000 8.2989599999999992 7.2987700000000002 H
  atom 2.9453600000000000 11.4321000000000002 0.2242440000000000 H
  atom 6.8820100000000002 9.4123900000000003 0.3609500000000000 H
  atom 0.6198020000000000 6.5163099999999998 7.0722500000000004 H
  atom -2.6651300000000000 7.7971000000000004 4.9879300000000004 H
  atom 2.4515400000000001 10.7805999999999997 2.5580599999999998 H
  atom 6.5033599999999998 10.0679999999999996 2.6656399999999998 H
  atom 1.4001900000000000 7.2354300000000000 4.8673500000000001 H
  atom -5.8176699999999997 5.8606900000000000 9.5150000000000006 C
  atom -4.8467599999999997 8.9460899999999999 11.8999000000000006 C
  atom -0.7653390000000000 11.7436000000000007 11.9548000000000005 C
  atom -1.7287200000000000 8.7800499999999992 9.5577299999999994 C
  atom -4.9757699999999998 6.7618499999999999 8.8598300000000005 C
  atom -5.5726100000000001 9.8154299999999992 12.6511999999999993 C
  atom -1.4278800000000000 10.8262000000000000 12.7711000000000006 C
  atom -0.9529460000000000 7.9065700000000003 8.7859099999999994 C
  atom -4.5556799999999997 6.4939299999999998 7.5385700000000000 C
  atom -5.8514900000000001 9.5242900000000006 14.0297999999999998 C
  atom -1.7424500000000001 11.2233000000000001 14.1023999999999994 C
  atom -0.5991080000000000 8.2514699999999994 7.4623499999999998 C
  atom -8.7694100000000006 7.4364600000000003 13.6600000000000001 C
  atom -1.8783799999999999 10.3384999999999998 7.7361199999999997 C
  atom 2.2194799999999999 10.4931999999999999 7.8157899999999998 C
  atom -4.6623200000000002 7.3591400000000000 13.7285000000000004 C
  atom -8.3798200000000005 7.0432399999999999 12.3821999999999992 C
  atom -2.2302300000000002 9.9795700000000007 9.0255200000000002 C
  atom 1.7982499999999999 11.0082000000000004 9.0561399999999992 C
  atom -4.3477899999999998 7.7057700000000002 12.4270999999999994 C
  atom -6.1985500000000000 6.0946400000000001 10.4970999999999997 H
  atom -4.6470799999999999 9.1876200000000008 10.8462999999999994 H
  atom -0.4868710000000000 11.4600000000000009 10.9460999999999995 H
  atom -1.8949199999999999 8.5409299999999995 10.6120999999999999 H
  atom -4.5885699999999998 7.6347600000000000 9.3701399999999992 H
  atom -5.9597600000000002 10.7353000000000005 12.1666000000000007 H
  atom -1.7685500000000001 9.8617000000000008 12.3059999999999992 H
  atom -0.5323010000000000 7.0031800000000004 9.1886600000000005 H
  atom -8.4062199999999994 8.3924900000000004 14.0739000000000001 H
  atom -2.1760999999999999 11.3140999999999998 7.3846299999999996 H
  atom 1.9337899999999999 9.4952699999999997 7.4696100000000003 H
  atom -4.3246099999999998 6.4031700000000003 14.1608000000000001 H
  atom -7.6874300000000000 7.6510800000000003 11.7944999999999993 H
  atom -2.8217400000000001 10.6997999999999998 9.6011000000000006 H
  atom 1.1009199999999999 10.4223999999999997 9.6157599999999999 H
  atom -3.7721600000000000 7.0450299999999997 11.8093000000000004 H
  
  -----------------------------------------------------------------------
  Completed first pass over input file geometry.in .
  -----------------------------------------------------------------------
  

  Basic array size parameters:
  | Number of species                 :        2
  | Number of atoms                   :      144
  | Number of lattice vectors         :        3
  | Max. basis fn. angular momentum   :        2
  | Max. atomic/ionic basis occupied n:        2
  | Max. number of basis fn. types    :        2
  | Max. radial fns per species/type  :        3
  | Max. logarithmic grid size        :     1277
  | Max. radial integration grid size :       34
  | Max. angular integration grid size:      302
  | Max. angular grid division number :        8
  | Radial grid for Hartree potential :     1277
  | Number of spin channels           :        1

------------------------------------------------------------
          Reading file control.in.
------------------------------------------------------------
  XC: Using Perdew-Wang parametrisation of Ceperley-Alder LDA.
  Spin treatment: No spin polarisation.
  Non-relativistic treatment of kinetic energy.
  Charge =   0.000000E+00: Neutral system requested explicitly.
  Found k-point grid:         2         1         1
  DFPT calculation will begin after the DFT/HF calculation.
  Charge density mixing - mixing parameter:     0.7500
  Forces will not be computed.
 
  Reading configuration options for species H                   .
  | Found nuclear charge :   1.0000
  | Found atomic mass :    1.00794000000000      amu
  | Found l_max for Hartree potential  :   4
  | Found cutoff potl. onset [A], width [A], scale factor :    3.50000    1.50000    1.00000
  | Threshold for basis-dependent cutoff potential is   0.100000E-03
  | Found data for basic radial integration grid :    24 points, outermost radius =    5.000 A
  | Found multiplier for basic radial grid :   1
  | Found angular grid specification: user-specified.
  | Specified grid contains     5 separate shells.
  | Check grid settings after all constraints further below.
  | Found free-atom valence shell :  1 s   1.000
  | No ionic wave fns used. Skipping ion_occ.
  | Found hydrogenic basis function :  2 s   2.100
  | Found hydrogenic basis function :  2 p   3.500
  Species H                   : Missing cutoff potential type.
  Defaulting to exp(1/x)/(1-x)^2 type cutoff potential.
  Species H : No 'logarithmic' tag. Using default grid for free atom:
  | Default logarithmic grid data [bohr] : 0.1000E-03 0.1000E+03 0.1012E+01
  Species H : On-site basis accuracy parameter (for Gram-Schmidt orthonormalisation) not specified.
  Using default value basis_acc =  0.1000000E-03.
  Species H                   : Using default innermost maximum threshold i_radial=  2 for radial functions.
  Species H                   : Default cutoff onset for free atom density etc. : 0.35000000E+01 AA.
  Species H                   : Basic radial grid will be enhanced according to radial_multiplier =   1, to contain    24 grid points.
 
  Reading configuration options for species C                   .
  | Found nuclear charge :   6.0000
  | Found atomic mass :    12.0107000000000      amu
  | Found l_max for Hartree potential  :   4
  | Found cutoff potl. onset [A], width [A], scale factor :    3.50000    1.50000    1.00000
  | Threshold for basis-dependent cutoff potential is   0.100000E-03
  | Found data for basic radial integration grid :    34 points, outermost radius =    5.000 A
  | Found multiplier for basic radial grid :   1
  | Found angular grid specification: user-specified.
  | Specified grid contains     5 separate shells.
  | Check grid settings after all constraints further below.
  | Found free-atom valence shell :  2 s   2.000
  | Found free-atom valence shell :  2 p   2.000
  | No ionic wave fns used. Skipping ion_occ.
  | No ionic wave fns used. Skipping ion_occ.
  | Found hydrogenic basis function :  2 p   1.700
  | Found hydrogenic basis function :  3 d   6.000
  | Found hydrogenic basis function :  2 s   4.900
  Species C                   : Missing cutoff potential type.
  Defaulting to exp(1/x)/(1-x)^2 type cutoff potential.
  Species C : No 'logarithmic' tag. Using default grid for free atom:
  | Default logarithmic grid data [bohr] : 0.1000E-03 0.1000E+03 0.1012E+01
  Species C : On-site basis accuracy parameter (for Gram-Schmidt orthonormalisation) not specified.
  Using default value basis_acc =  0.1000000E-03.
  Species C                   : Using default innermost maximum threshold i_radial=  2 for radial functions.
  Species C                   : Default cutoff onset for free atom density etc. : 0.35000000E+01 AA.
  Species C                   : Basic radial grid will be enhanced according to radial_multiplier =   1, to contain    34 grid points.
 
  Finished reading input file 'control.in'.
 
------------------------------------------------------------


------------------------------------------------------------
          Reading geometry description geometry.in.
------------------------------------------------------------
  | The smallest distance between any two atoms is         1.05581382 AA.
  | The first atom of this pair is atom number                     91 .
  | The second atom of this pair is atom number                   107 .
  | Wigner-Seitz cell of the first atom image           0     0     0 .
  | (The Wigner-Seitz cell of the second atom is 0 0 0  by definition.)

  Symmetry information by spglib:
  | Precision set to  0.1E-04
  | Number of Operations  : 1
  | Space group           : 1
  | International         : P1
  | Schoenflies           : C1^1
  Input structure read successfully.
  The structure contains      144 atoms,  and a total of        544.000 electrons.

  Input geometry:
  | Unit cell:
  |        8.10200000        0.00000000        0.00000000
  |        0.00000000       11.88000000        0.00000000
  |       -9.78509185        0.00000000       14.25711196
  | Atomic structure:
  |       Atom                x [A]            y [A]            z [A]
  |    1: Species C            -0.60030700        0.08547500        2.55950000
  |    2: Species C             0.33086900        3.19810000        4.68662000
  |    3: Species C             4.28304000        5.92380000        4.91238000
  |    4: Species C             3.27632000        2.82633000        2.45236000
  |    5: Species C             0.09143520        0.93915300        1.73227000
  |    6: Species C            -0.49686300        3.99215000        5.44058000
  |    7: Species C             3.45238000        5.04697000        5.56746000
  |    8: Species C             4.04609000        1.99832000        1.68783000
  |    9: Species C             0.36070700        0.59536800        0.35384900
  |   10: Species C            -0.93969100        3.60320000        6.76758000
  |   11: Species C             3.06943000        5.28871000        6.88389000
  |   12: Species C             4.36773000        2.34889000        0.38352100
  |   13: Species C            -3.77446000        1.50382000        6.66215000
  |   14: Species C             3.15953000        4.46353000        0.71758100
  |   15: Species C             7.28227000        4.41103000        0.61810300
  |   16: Species C             0.27491800        1.49552000        6.44461000
  |   17: Species C            -3.34491000        1.10537000        5.41023000
  |   18: Species C             2.84847000        4.06688000        2.01253000
  |   19: Species C             6.95422000        4.79045000        1.89144000
  |   20: Species C             0.69396400        1.90084000        5.19544000
  |   21: Species H            -0.82999600        0.41479600        3.57382000
  |   22: Species H             0.68485300        3.48726000        3.70665000
  |   23: Species H             4.57229000        5.65367000        3.89493000
  |   24: Species H             3.02445000        2.48923000        3.45423000
  |   25: Species H             0.46566000        1.90196000        2.08078000
  |   26: Species H            -0.80166300        4.95014000        5.07340000
  |   27: Species H             3.18518000        4.09573000        5.15779000
  |   28: Species H             4.36557000        1.02111000        2.08166000
  |   29: Species H            -3.41118000        2.46664000        6.96210000
  |   30: Species H             2.78271000        5.42783000        0.33758400
  |   31: Species H             7.01381000        3.38088000        0.23011800
  |   32: Species H             0.58532600        0.51135200        6.84600000
  |   33: Species H            -2.73438000        1.74247000        4.77856000
  |   34: Species H             2.33475000        4.73920000        2.65900000
  |   35: Species H             6.40097000        4.09373000        2.53629000
  |   36: Species H             1.36458000        1.26870000        4.60249000
  |   37: Species C            -5.90497000        0.38359100        9.51773000
  |   38: Species C            -4.73918000        3.17492000       12.04330000
  |   39: Species C            -0.69171400        5.78754000       11.89870000
  |   40: Species C            -1.81998000        2.69698000        9.30178000
  |   41: Species C            -5.10535000        1.20265000        8.74409000
  |   42: Species C            -5.52513000        4.00334000       12.84290000
  |   43: Species C            -1.44658000        4.92473000       12.68490000
  |   44: Species C            -0.99940300        1.87371000        8.50950000
  |   45: Species C            -4.63548000        0.73208800        7.49195000
  |   46: Species C            -5.85358000        3.61696000       14.15810000
  |   47: Species C            -1.77918000        5.26752000       14.02170000
  |   48: Species C            -0.53232300        2.32541000        7.24595000
  |   49: Species C            -8.74256000        1.51128000       13.72600000
  |   50: Species C            -1.77742000        4.41024000        7.58182000
  |   51: Species C             2.26544000        4.36798000        7.61266000
  |   52: Species C            -4.59980000        1.53216000       13.81980000
  |   53: Species C            -8.50511000        1.16747000       12.41010000
  |   54: Species C            -2.21182000        3.95941000        8.81791000
  |   55: Species C             1.82869000        4.67891000        8.87802000
  |   56: Species C            -4.20594000        1.97824000       12.56440000
  |   57: Species H            -6.33285000        0.80128000       10.45320000
  |   58: Species H            -4.50835000        3.53776000       11.02980000
  |   59: Species H            -0.39857200        5.43302000       10.92890000
  |   60: Species H            -2.15997000        2.32906000       10.26620000
  |   61: Species H            -4.89554000        2.20147000        9.08323000
  |   62: Species H            -5.97112000        4.92046000       12.44800000
  |   63: Species H            -1.74510000        3.94884000       12.30180000
  |   64: Species H            -0.73613400        0.87506000        8.91133000
  |   65: Species H            -8.43304000        2.47178000       14.12240000
  |   66: Species H            -2.06477000        5.40864000        7.23054000
  |   67: Species H             1.91715000        3.40620000        7.16305000
  |   68: Species H            -4.20146000        0.61685600       14.27780000
  |   69: Species H            -7.98074000        1.85008000       11.72340000
  |   70: Species H            -2.86638000        4.60416000        9.41265000
  |   71: Species H             1.14330000        4.00345000        9.39904000
  |   72: Species H            -3.53558000        1.34572000       11.99740000
  |   73: Species C            -0.83081100        6.07162000        2.39847000
  |   74: Species C             0.34915300        9.11266000        4.90265000
  |   75: Species C             4.29943000       11.71210000        4.93410000
  |   76: Species C             3.32812000        8.83901000        2.43926000
  |   77: Species C            -0.06324980        6.92850000        1.60628000
  |   78: Species C            -0.55825300        9.92338000        5.63865000
  |   79: Species C             3.48166000       10.89270000        5.70124000
  |   80: Species C             4.12378000        8.00395000        1.68415000
  |   81: Species C             0.27477000        6.55848000        0.26058400
  |   82: Species C            -1.04278000        9.52400000        6.92217000
  |   83: Species C             3.05423000       11.33380000        7.00459000
  |   84: Species C             4.40441000        8.28586000        0.32764700
  |   85: Species C            -3.70366000        7.36227000        6.82881000
  |   86: Species C             3.23671000       10.43190000        0.59134900
  |   87: Species C             7.28779000       10.35620000        0.72354000
  |   88: Species C             0.23284900        7.43843000        6.66669000
  |   89: Species C            -3.34983000        7.12678000        5.50757000
  |   90: Species C             2.91871000       10.07640000        1.89725000
  |   91: Species C             7.04321000       10.73120000        2.04639000
  |   92: Species C             0.71194900        7.86711000        5.42868000
  |   93: Species H            -1.16867000        6.32497000        3.39997000
  |   94: Species H             0.73882200        9.43754000        3.92414000
  |   95: Species H             4.60013000       11.36320000        3.92409000
  |   96: Species H             3.14586000        8.58196000        3.48275000
  |   97: Species H             0.19872000        7.89766000        2.01698000
  |   98: Species H            -0.90261000       10.86060000        5.23989000
  |   99: Species H             3.08553000        9.92680000        5.30137000
  |  100: Species H             4.40081000        7.03502000        2.06646000
  |  101: Species H            -3.36103000        8.29896000        7.29877000
  |  102: Species H             2.94536000       11.43210000        0.22424400
  |  103: Species H             6.88201000        9.41239000        0.36095000
  |  104: Species H             0.61980200        6.51631000        7.07225000
  |  105: Species H            -2.66513000        7.79710000        4.98793000
  |  106: Species H             2.45154000       10.78060000        2.55806000
  |  107: Species H             6.50336000       10.06800000        2.66564000
  |  108: Species H             1.40019000        7.23543000        4.86735000
  |  109: Species C            -5.81767000        5.86069000        9.51500000
  |  110: Species C            -4.84676000        8.94609000       11.89990000
  |  111: Species C            -0.76533900       11.74360000       11.95480000
  |  112: Species C            -1.72872000        8.78005000        9.55773000
  |  113: Species C            -4.97577000        6.76185000        8.85983000
  |  114: Species C            -5.57261000        9.81543000       12.65120000
  |  115: Species C            -1.42788000       10.82620000       12.77110000
  |  116: Species C            -0.95294600        7.90657000        8.78591000
  |  117: Species C            -4.55568000        6.49393000        7.53857000
  |  118: Species C            -5.85149000        9.52429000       14.02980000
  |  119: Species C            -1.74245000       11.22330000       14.10240000
  |  120: Species C            -0.59910800        8.25147000        7.46235000
  |  121: Species C            -8.76941000        7.43646000       13.66000000
  |  122: Species C            -1.87838000       10.33850000        7.73612000
  |  123: Species C             2.21948000       10.49320000        7.81579000
  |  124: Species C            -4.66232000        7.35914000       13.72850000
  |  125: Species C            -8.37982000        7.04324000       12.38220000
  |  126: Species C            -2.23023000        9.97957000        9.02552000
  |  127: Species C             1.79825000       11.00820000        9.05614000
  |  128: Species C            -4.34779000        7.70577000       12.42710000
  |  129: Species H            -6.19855000        6.09464000       10.49710000
  |  130: Species H            -4.64708000        9.18762000       10.84630000
  |  131: Species H            -0.48687100       11.46000000       10.94610000
  |  132: Species H            -1.89492000        8.54093000       10.61210000
  |  133: Species H            -4.58857000        7.63476000        9.37014000
  |  134: Species H            -5.95976000       10.73530000       12.16660000
  |  135: Species H            -1.76855000        9.86170000       12.30600000
  |  136: Species H            -0.53230100        7.00318000        9.18866000
  |  137: Species H            -8.40622000        8.39249000       14.07390000
  |  138: Species H            -2.17610000       11.31410000        7.38463000
  |  139: Species H             1.93379000        9.49527000        7.46961000
  |  140: Species H            -4.32461000        6.40317000       14.16080000
  |  141: Species H            -7.68743000        7.65108000       11.79450000
  |  142: Species H            -2.82174000       10.69980000        9.60110000
  |  143: Species H             1.10092000       10.42240000        9.61576000
  |  144: Species H            -3.77216000        7.04503000       11.80930000

  Lattice parameters for 3D lattice (in Angstroms) :     8.102000   11.880000   17.292000
  Angle(s) between unit vectors (in degrees)       :    90.000000  124.463000   90.000000


  Quantities derived from the lattice vectors (in Angstrom^-1):
  | Reciprocal lattice vector 1:  0.775510  0.000000  0.532257
  | Reciprocal lattice vector 2:  0.000000  0.528888  0.000000
  | Reciprocal lattice vector 3: -0.000000  0.000000  0.440705
  | Unit cell volume                               :   0.137227E+04  Angstrom^3

  Fractional coordinates:
                         L1                L2                L3
       atom_frac         0.14272477        0.00719487        0.17952444  C
       atom_frac         0.43784740        0.26920034        0.32872155  C
       atom_frac         0.94477371        0.49863636        0.34455646  C
       atom_frac         0.61212659        0.23790657        0.17200959  C
       atom_frac         0.15802827        0.07905328        0.12150217  C
       atom_frac         0.39955238        0.33603956        0.38160463  C
       atom_frac         0.89774105        0.42482912        0.39050405  C
       atom_frac         0.64237217        0.16820875        0.11838513  C
       atom_frac         0.07449573        0.05011515        0.02481912  C
       atom_frac         0.45730759        0.30329966        0.47468099  C
       atom_frac         0.96199138        0.44517761        0.48283902  C
       atom_frac         0.57158136        0.19771801        0.02690033  C
       atom_frac         0.09849139        0.12658418        0.46728608  C
       atom_frac         0.45075633        0.37571801        0.05033144  C
       atom_frac         0.95118403        0.37129882        0.04335401  C
       atom_frac         0.57986311        0.12588552        0.45202773  C
       atom_frac         0.04545745        0.09304461        0.37947587  C
       atom_frac         0.52206009        0.34232997        0.14115972  C
       atom_frac         1.01856000        0.40323653        0.13266642  C
       atom_frac         0.52576565        0.16000337        0.36441041  C
       atom_frac         0.20029942        0.03491549        0.25066928  H
       atom_frac         0.39852385        0.29354040        0.25998603  H
       atom_frac         0.89428531        0.47589815        0.27319207  H
       atom_frac         0.66590887        0.20953114        0.24228119  H
       atom_frac         0.23374018        0.16009764        0.14594681  H
       atom_frac         0.33082776        0.41667845        0.35585047  H
       atom_frac         0.83005788        0.34475842        0.36176962  H
       atom_frac         0.71516624        0.08595202        0.14600853  H
       atom_frac         0.16873884        0.20762963        0.48832471  H
       atom_frac         0.37205680        0.45688805        0.02367829  H
       atom_frac         0.88518230        0.28458586        0.01614058  H
       atom_frac         0.65217787        0.04304310        0.48018140  H
       atom_frac         0.06730336        0.14667256        0.33517027  H
       atom_frac         0.51341681        0.39892256        0.18650341  H
       atom_frac         1.00490044        0.34459007        0.17789648  H
       atom_frac         0.55830778        0.10679293        0.32282064  H
       atom_frac         0.07743015        0.03228880        0.66757770  C
       atom_frac         0.43526352        0.26724916        0.84472227  C
       atom_frac         0.92257808        0.48716667        0.83457996  C
       atom_frac         0.56333202        0.22701852        0.65243087  C
       atom_frac         0.11058829        0.10123316        0.61331425  C
       atom_frac         0.40599172        0.33698148        0.90080656  C
       atom_frac         0.89600774        0.41453956        0.88972437  C
       atom_frac         0.59749778        0.15771970        0.59686001  C
       atom_frac         0.06251226        0.06162357        0.52548861  C
       atom_frac         0.47686459        0.30445791        0.99305526  C
       atom_frac         0.96819815        0.44339394        0.98348810  C
       atom_frac         0.54811084        0.19574158        0.50823407  C
       atom_frac         0.08368470        0.12721212        0.96274758  C
       atom_frac         0.42288508        0.37123232        0.53179213  C
       atom_frac         0.92449288        0.36767508        0.53395527  C
       atom_frac         0.60295622        0.12896970        0.96932675  C
       atom_frac         0.00152074        0.09827189        0.87044978  C
       atom_frac         0.47397942        0.33328367        0.61849202  C
       atom_frac         0.97777667        0.39384764        0.62270816  C
       atom_frac         0.54522240        0.16651852        0.88127245  C
       atom_frac         0.10386334        0.06744781        0.73319197  H
       atom_frac         0.37789916        0.29779125        0.77363494  H
       atom_frac         0.87660654        0.45732492        0.76655777  H
       atom_frac         0.60306553        0.19604882        0.72007571  H
       atom_frac         0.16521334        0.18530892        0.63710168  H
       atom_frac         0.31749235        0.41418013        0.87310810  H
       atom_frac         0.82670964        0.33239394        0.86285357  H
       atom_frac         0.66403163        0.07365825        0.62504454  H
       atom_frac         0.15546716        0.20806229        0.99055124  H
       atom_frac         0.35766115        0.45527273        0.50715320  H
       atom_frac         0.84341770        0.28671717        0.50241943  H
       atom_frac         0.69091961        0.05192391        1.00145107  H
       atom_frac         0.00807058        0.15573064        0.82228435  H
       atom_frac         0.44357066        0.38755556        0.66020734  H
       atom_frac         0.93731776        0.33699074        0.65925273  H
       atom_frac         0.57993118        0.11327609        0.84150283  H
       atom_frac         0.10063346        0.51107912        0.16822972  C
       atom_frac         0.45840429        0.76705892        0.34387399  C
       atom_frac         0.94863659        0.98586700        0.34607991  C
       atom_frac         0.61741036        0.74402441        0.17109075  C
       atom_frac         0.12826330        0.58320707        0.11266517  C
       atom_frac         0.40875400        0.83530135        0.39549735  C
       atom_frac         0.91268765        0.91689394        0.39988744  C
       atom_frac         0.65164942        0.67373316        0.11812701  C
       atom_frac         0.05598825        0.55206061        0.01827747  C
       atom_frac         0.45767920        0.80168350        0.48552400  C
       atom_frac         0.97033995        0.95402357        0.49130497  C
       atom_frac         0.57137548        0.69746296        0.02298130  C
       atom_frac         0.12134795        0.61971970        0.47897569  C
       atom_frac         0.44958910        0.87810606        0.04147747  C
       atom_frac         0.96079704        0.87173401        0.05074941  C
       atom_frac         0.59348336        0.62613047        0.46760452  C
       atom_frac         0.05309599        0.59989731        0.38630334  C
       atom_frac         0.52096404        0.84818182        0.13307394  C
       atom_frac         1.04266971        0.90329966        0.14353468  C
       atom_frac         0.54774353        0.66221465        0.38076996  C
       atom_frac         0.14377109        0.53240488        0.23847537  H
       atom_frac         0.42360889        0.79440572        0.27524088  H
       atom_frac         0.90019167        0.95649832        0.27523737  H
       atom_frac         0.68331002        0.72238721        0.24428159  H
       atom_frac         0.19538818        0.66478620        0.14147185  H
       atom_frac         0.33247182        0.91419192        0.36752815  H
       atom_frac         0.82992129        0.83558923        0.37184038  H
       atom_frac         0.71822818        0.59217340        0.14494240  H
       atom_frac         0.20344841        0.69856566        0.51193888  H
       atom_frac         0.38253092        0.96229798        0.01572857  H
       atom_frac         0.87999766        0.79228872        0.02531719  H
       atom_frac         0.67559904        0.54851094        0.49605067  H
       atom_frac         0.09358663        0.65632155        0.34985557  H
       atom_frac         0.51928102        0.90745791        0.17942343  H
       atom_frac         1.02849546        0.84747475        0.18696914  H
       atom_frac         0.58513961        0.60904293        0.34139803  H
       atom_frac         0.08797401        0.49332407        0.66738622  C
       atom_frac         0.40983772        0.75303788        0.83466413  C
       atom_frac         0.91824312        0.98851852        0.83851484  C
       atom_frac         0.59627775        0.73906145        0.67038332  C
       atom_frac         0.13638635        0.56917929        0.62143231  C
       atom_frac         0.38389229        0.82621465        0.88736064  C
       atom_frac         0.90561792        0.91129630        0.89577048  C
       atom_frac         0.62664684        0.66553620        0.61624753  C
       atom_frac         0.07631092        0.54662710        0.52875856  C
       atom_frac         0.46625410        0.80170791        0.98405624  C
       atom_frac         0.97956780        0.94472222        0.98914844  C
       atom_frac         0.55819933        0.69456818        0.52341246  C
       atom_frac         0.07477976        0.62596465        0.95811831  C
       atom_frac         0.42349490        0.87024411        0.54261480  C
       atom_frac         0.93602760        0.88326599        0.54820289  C
       atom_frac         0.58750547        0.61945623        0.96292293  C
       atom_frac         0.01462138        0.59286532        0.86849286  C
       atom_frac         0.48929404        0.84003114        0.63305388  C
       atom_frac         0.98910834        0.92661616        0.63520158  C
       atom_frac         0.51608352        0.64863384        0.87164217  C
       atom_frac         0.12415832        0.51301684        0.73627113  H
       atom_frac         0.34523171        0.77336869        0.76076417  H
       atom_frac         0.86716516        0.96464646        0.76776419  H
       atom_frac         0.66508130        0.71893350        0.74433728  H
       atom_frac         0.22740602        0.64265657        0.65722567  H
       atom_frac         0.29505672        0.90364478        0.85337059  H
       atom_frac         0.82417108        0.83010943        0.86314816  H
       atom_frac         0.71268295        0.58949327        0.64449659  H
       atom_frac         0.15466896        0.70643855        0.98714943  H
       atom_frac         0.35697326        0.95236532        0.51796114  H
       atom_frac         0.87144060        0.79926515        0.52392168  H
       atom_frac         0.66580844        0.53898737        0.99324464  H
       atom_frac         0.05029573        0.64403030        0.82727133  H
       atom_frac         0.46504425        0.90065657        0.67342531  H
       atom_frac         0.95044558        0.87730640        0.67445357  H
       atom_frac         0.53479680        0.59301599        0.82830941  H

 
  Finished reading input file 'geometry.in'.
 

 
  Consistency checks for stacksize environment parameter are next.
 
  | Maximum stacksize for task 0: unlimited
  | Maximum stacksize for task 1: unlimited
  | Maximum stacksize for task 2: unlimited
  | Maximum stacksize for task 3: unlimited
  | Maximum stacksize for task 4: unlimited
  | Maximum stacksize for task 5: unlimited
  | Maximum stacksize for task 6: unlimited
  | Maximum stacksize for task 7: unlimited
  | Maximum stacksize for task 8: unlimited
  | Maximum stacksize for task 9: unlimited
  | Maximum stacksize for task 10: unlimited
  | Maximum stacksize for task 11: unlimited
  | Maximum stacksize for task 12: unlimited
  | Maximum stacksize for task 13: unlimited
  | Maximum stacksize for task 14: unlimited
  | Maximum stacksize for task 15: unlimited
  | Maximum stacksize for task 16: unlimited
  | Maximum stacksize for task 17: unlimited
  | Current stacksize for task 0: unlimited
  | Current stacksize for task 1: unlimited
  | Current stacksize for task 2: unlimited
  | Current stacksize for task 3: unlimited
  | Current stacksize for task 4: unlimited
  | Current stacksize for task 5: unlimited
  | Current stacksize for task 6: unlimited
  | Current stacksize for task 7: unlimited
  | Current stacksize for task 8: unlimited
  | Current stacksize for task 9: unlimited
  | Current stacksize for task 10: unlimited
  | Current stacksize for task 11: unlimited
  | Current stacksize for task 12: unlimited
  | Current stacksize for task 13: unlimited
  | Current stacksize for task 14: unlimited
  | Current stacksize for task 15: unlimited
  | Current stacksize for task 16: unlimited
  | Current stacksize for task 17: unlimited
 
  Consistency checks for the contents of control.in are next.
 
  MPI_IN_PLACE appears to work with this MPI implementation.
  | Keeping use_mpi_in_place .true. (see manual).
  Explicit treatment of the Coulomb operator is needed, but the RI method is not specified.
  Coulomb operator: Defaulting to 'LVL fast' resolution of identity - RI_type = LVL_fast
  Species H: Using default value for prodbas_acc =   1.000000E-06.
  Species H: Using default value max_l_prodbas =     6.
  Species C: Using default value for prodbas_acc =   1.000000E-06.
  Species C: Using default value max_l_prodbas =     6.
  Target number of points in a grid batch is not set.  Since GPU acceleration is enabled, defaulting to  200
  Method for grid partitioning is not set. Defaulting to parallel hash+maxmin partitioning.
  Batch size limit is not set. Defaulting to    200
  By default, will store active basis functions for each batch.
  If in need of memory, prune_basis_once .false. can be used to disable this option.
  communication_type for Hartree potential was not specified.
  Defaulting to calc_hartree .
  Defaulting to Pulay charge density mixer.
  Pulay mixer: Number of relevant iterations not set.
  Defaulting to    8 iterations.
  Pulay mixer: Number of initial linear mixing iterations not set.
  Defaulting to    0 iterations.
  Work space size for distributed Hartree potential not set.
  Defaulting to   0.200000E+03 MB.
  Algorithm-dependent basis array size parameters:
  | n_max_pulay                         :        8
  Maximum number of self-consistency iterations not provided.
  Presetting  1000 iterations.
  Presetting      1001 iterations before the initial mixing cycle
  is restarted anyway using the sc_init_iter criterion / keyword.
  Presetting a factor      1.000 between actual scf density residual
  and density convergence criterion sc_accuracy_rho below which sc_init_iter
  takes no effect.
 * No s.c.f. convergence criteria (sc_accuracy_*) were provided in control.in.
 * The run will proceed with a reasonable default guess, but please check whether.
 * the s.c.f. cycles seem to take too much or too little time.
  Geometry relaxation not requested: no relaxation will be performed.
 * Notice: The s.c.f. convergence criterion sc_accuracy_rho was not provided.
 * We used to stop in this case, and ask the user to provide reasonable
 * scf convergence criteria. However, this led some users to employ criteria
 * that led to extremely long run times, e.g., for simple relaxation.
 * We now preset a default value for sc_accuracy_rho if it is not set.
 * You may still wish to check if this setting is too tight or too loose for your needs.
 * Based on n_atoms and forces and force-correction status, FHI-aims chose sc_accuracy_rho =  0.391918E-04 .
  No accuracy limit for integral partition fn. given. Defaulting to  0.1000E-14.
  No threshold value for u(r) in integrations given. Defaulting to  0.1000E-05.
  No occupation type (smearing scheme) given. Defaulting to Gaussian broadening, width =  0.1000E-01 eV.
  The width will be adjusted in iteration number     2 of the first full s.c.f. cycle only.
  S.C.F. convergence parameters will be adjusted in iteration number     2 of the first full s.c.f. cycle only.
  No accuracy for occupation numbers given. Defaulting to  0.1000E-12.
  No threshold value for occupation numbers given. Defaulting to  0.0000E+00.
  No accuracy for fermi level given. Defaulting to  0.1000E-19.
  Maximum # of iterations to find E_F not set. Defaulting to  200.
  Preferred method for the eigenvalue solver ('KS_method') not specified in 'control.in'.
  Calling BLACS routine to test compilation state
  Since ScaLAPACK support is enabled, defaulting to ELPA (via ELSI).
  Will not use alltoall communication since running on < 1024 CPUs.
  Threshold for basis singularities not set.
  Default threshold for basis singularities:  0.1000E-04
  partition_type (choice of integration weights) for integrals was not specified.
  | Using a version of the partition function of Stratmann and coworkers ('stratmann_sparse').
  | At each grid point, the set of atoms used to build the partition table is smoothly restricted to
  | only those atoms whose free-atom density would be non-zero at that grid point.
  Partitioning for Hartree potential was not defined. Using partition_type for integrals.
  | Adjusted default value of keyword multip_moments_threshold to:       0.10000000E-11
  | This value may affect high angular momentum components of the Hartree potential in periodic systems.
  Angular momentum expansion for Kerker preconditioner not set explicitly.
  | Using default value of   0
  No explicit requirement for turning off preconditioner.
  | By default, it will be turned off when the charge convergence reaches
  | sc_accuracy_rho  =   0.391918E-04
  No special mixing parameter while Kerker preconditioner is on.
  Using default: charge_mix_param =     0.7500.
  Threshold for auxiliary basis singularities not set.
  Default threshold for auxiliary basis singularities:  0.1000E-04
  No q(lm)/r^(l+1) cutoff set for long-range Hartree potential.
  | Using default value of  0.100000E-09 .
  | Verify using the multipole_threshold keyword.
  Defaulting to new monopole extrapolation.
  Density update method: automatic selection selected.
  Using density matrix based charge density update.
  Using density matrix based charge density update.
  Using packed matrix style: index .
  Defaulting to use time-reversal symmetry for k-point grid.
  Charge integration errors on the 3D integration grid will be compensated
  by explicit normalization and distribution of residual charges.
  Use the "compensate_multipole_errors" flag to change this behaviour.
  Default to 1D ("use_logsbt") integrations for auxiliary 2-center integrals.
  Default onset of logarithmic r-grid for SBT is -38.000000000000
  Default onset of logarithmic k-grid for SBT is -25.000000000000
  Default range of logarithmic r- and k-grid for SBT is  45.000000000000
  Default number of logarithmic r- and k-grid for SBT is   4096
  Default of use_2d_corr is to use the efficient 2D distribution where possible
 
  Consistency checks for the contents of geometry.in are next.
 

  Range separation radius for Ewald summation (hartree_convergence_parameter):      2.91768261 bohr.
  Number of empty states per atom not set in control.in .
  | Since you are using a method that relies on the unoccupied spectrum
  | (MP2,GW,RPA et al.), will use the full Hamiltonian size (see below)
  | as the max. possible number of states (occupied plus empty).

  Structure-dependent array size parameters: 
  | Maximum number of distinct radial functions  :        9
  | Maximum number of basis functions            :     1440
  | Number of Kohn-Sham states (occupied + empty):     1440
------------------------------------------------------------
CUDA runtime version: 11060
CUDA driver version: 11060
  Initializing GPUs...

  Number of GPUs available to MPI task         0 :   1
  Number of GPUs available to MPI task         1 :   1
  Number of GPUs available to MPI task         2 :   1
  Number of GPUs available to MPI task         3 :   1
  Number of GPUs available to MPI task         4 :   1
  Number of GPUs available to MPI task         5 :   1
  Number of GPUs available to MPI task         6 :   1
  Number of GPUs available to MPI task         7 :   1
  Number of GPUs available to MPI task         8 :   1
  Number of GPUs available to MPI task         9 :   1
  Number of GPUs available to MPI task        10 :   1
  Number of GPUs available to MPI task        11 :   1
  Number of GPUs available to MPI task        12 :   1
  Number of GPUs available to MPI task        13 :   1
  Number of GPUs available to MPI task        14 :   1
  Number of GPUs available to MPI task        15 :   1
  Number of GPUs available to MPI task        16 :   1
  Number of GPUs available to MPI task        17 :   1

  | MPI task         0, GPU activated = T, Device Name = NVIDIA A100-SXM4-80GB
  | MPI task         1, GPU activated = T, Device Name = NVIDIA A100-SXM4-80GB
  | MPI task         2, GPU activated = T, Device Name = NVIDIA A100-SXM4-80GB
  | MPI task         3, GPU activated = T, Device Name = NVIDIA A100-SXM4-80GB
  | MPI task         4, GPU activated = T, Device Name = NVIDIA A100-SXM4-80GB
  | MPI task         5, GPU activated = T, Device Name = NVIDIA A100-SXM4-80GB
  | MPI task         6, GPU activated = T, Device Name = NVIDIA A100-SXM4-80GB
  | MPI task         7, GPU activated = T, Device Name = NVIDIA A100-SXM4-80GB
  | MPI task         8, GPU activated = T, Device Name = NVIDIA A100-SXM4-80GB
  | MPI task         9, GPU activated = T, Device Name = NVIDIA A100-SXM4-80GB
  | MPI task        10, GPU activated = T, Device Name = NVIDIA A100-SXM4-80GB
  | MPI task        11, GPU activated = T, Device Name = NVIDIA A100-SXM4-80GB
  | MPI task        12, GPU activated = T, Device Name = NVIDIA A100-SXM4-80GB
  | MPI task        13, GPU activated = T, Device Name = NVIDIA A100-SXM4-80GB
  | MPI task        14, GPU activated = T, Device Name = NVIDIA A100-SXM4-80GB
  | MPI task        15, GPU activated = T, Device Name = NVIDIA A100-SXM4-80GB
  | MPI task        16, GPU activated = T, Device Name = NVIDIA A100-SXM4-80GB
  | MPI task        17, GPU activated = T, Device Name = NVIDIA A100-SXM4-80GB

------------------------------------------------------------
          Preparing all fixed parts of the calculation.
------------------------------------------------------------
  Determining machine precision:
    2.225073858507201E-308
  Setting up grids for atomic and cluster calculations.

  Creating wave function, potential, and density for free atoms.
  Runtime choices for atomic solver:
  | atomic solver xc        : PW-LDA
  | compute density gradient: 0
  | compute kinetic density : F

  Species: H

  List of occupied orbitals and eigenvalues:
    n    l              occ      energy [Ha]    energy [eV]
    1    0           1.0000        -0.232375        -6.3233


  Species: C

  List of occupied orbitals and eigenvalues:
    n    l              occ      energy [Ha]    energy [eV]
    1    0           2.0000        -9.944615      -270.6068
    2    0           2.0000        -0.498807       -13.5732
    2    1           2.0000        -0.196968        -5.3598


  Adding cutoff potential to free-atom effective potential.
  Creating fixed part of basis set: Ionic, confined, hydrogenic.
 
  H                    hydrogenic:
 
  List of hydrogenic basis orbitals: 
    n    l      effective z      eigenvalue [eV]  inner max. [A]     outer max. [A]     outer radius [A]   
    2    0         2.100000       -14.9728           0.193243           1.317208           4.583499
    2    1         3.500000       -41.6669           0.602369           0.602369           3.723403
 
 
  C                    hydrogenic:
 
  List of hydrogenic basis orbitals: 
    n    l      effective z      eigenvalue [eV]  inner max. [A]     outer max. [A]     outer radius [A]   
    2    1         1.700000        -9.7616           1.230570           1.230570           4.607917
    3    2         6.000000       -54.4224           0.792453           0.792453           3.883070
    2    0         4.900000       -81.6679           0.082559           0.562749           3.078220
 
  Creating atomic-like basis functions for current effective potential.

  Species H                   :

  List of atomic basis orbitals and eigenvalues:
    n    l      energy [Ha]    energy [eV]    outer radius [A]
    1    0        -0.232375        -6.3233       4.527807


  Species C                   :

  List of atomic basis orbitals and eigenvalues:
    n    l      energy [Ha]    energy [eV]    outer radius [A]
    1    0        -9.944615      -270.6068       1.934409
    2    0        -0.498807       -13.5732       4.496620
    2    1        -0.196968        -5.3598       4.551928

  Assembling full basis from fixed parts.
  | Species H :   atomic orbital   1 s accepted.
  | Species H :    hydro orbital   2 s accepted.
  | Species H :    hydro orbital   2 p accepted.
  | Species C :   atomic orbital   1 s accepted.
  | Species C :    hydro orbital   2 s accepted.
  | Species C :   atomic orbital   2 s accepted.
  | Species C :   atomic orbital   2 p accepted.
  | Species C :    hydro orbital   2 p accepted.
  | Species C :    hydro orbital   3 d accepted.
 
  Basis size parameters after reduction:
  | Total number of radial functions:        9
  | Total number of basis functions :     1440
 
  Per-task memory consumption for arrays in subroutine allocate_ext:
  |           2.242384MB.
  Testing on-site integration grid accuracy.
  |  Species  Function  <phi|h_atom|phi> (log., in eV)  <phi|h_atom|phi> (rad., in eV)
           1        1                 -6.3245358373                 -6.3232436907
           1        2                 14.1326137532                 14.1384481100
           1        3                 25.3627025200                 25.3628451197
           2        4               -270.6067544938               -270.6067222788
           2        5                -10.5634280949                -10.5635685736
           2        6                 16.2089822398                 16.2052121796
           2        7                 -5.3613872565                 -5.3627872378
           2        8                  8.5292058327                  8.5051734780
           2        9                 27.4884461005                 27.4884542459

  Preparing densities etc. for the partition functions (integrals / Hartree potential).

  Preparations completed.
  max(cpu_time)          :      0.079 s.
  Wall clock time (cpu1) :      0.077 s.
------------------------------------------------------------

  Initializing index lists of integration centers etc. from given atomic structure:
  Mapping all atomic coordinates to central unit cell.

  Initializing the k-points
  Using symmetry for reducing the k-points
  | k-points reduced from:        2 to        2
  | Number of k-points                             :         2
  | Consuming          0 KiB for k_phase_exx.
  The eigenvectors in the calculations are REAL.
  | Number of basis functions in the Hamiltonian integrals :      8023
  | Number of basis functions in a single unit cell        :      1440
  | Number of centers in hartree potential         :      3322
  | Number of centers in hartree multipole         :      2554
  | Number of centers in electron density summation:      2001
  | Number of centers in basis integrals           :      2126
  | Number of centers in integrals                 :       962
  | Number of centers in hamiltonian               :      2003
  | Consuming          1 KiB for k_phase.
  | Number of super-cells (origin) [n_cells]                     :         175
  | Number of super-cells (after PM_index) [n_cells]             :          38
  | Number of super-cells in hamiltonian [n_cells_in_hamiltonian]:          38
  | Size of matrix packed + index [n_hamiltonian_matrix_size] :     1931417
  | Size of matrix packed + index (no_symmetry):     3860017

------------------------------------------------------------
          Begin self-consistency loop: Initialization.

          Date     :  20230119, Time     :  154454.380
------------------------------------------------------------
  | Estimated reciprocal-space cutoff momentum G_max:         3.24344278 bohr^-1 .
  | Reciprocal lattice points for long-range Hartree potential:    5310
  Using simple linear distribution as default method for k-point parallelism.
  * Using 18 tasks for Scalapack Eigenvalue solver.
  Detailed listing of tasks and assigned k-points:
   Task     0 k-point     1 on adag008
   Task     1 k-point     1 on adag008
   Task     2 k-point     1 on adag008
   Task     3 k-point     1 on adag008
   Task     4 k-point     1 on adag008
   Task     5 k-point     1 on adag008
   Task     6 k-point     1 on adag008
   Task     7 k-point     1 on adag008
   Task     8 k-point     1 on adag008
   Task     9 k-point     2 on adag008
   Task    10 k-point     2 on adag008
   Task    11 k-point     2 on adag008
   Task    12 k-point     2 on adag008
   Task    13 k-point     2 on adag008
   Task    14 k-point     2 on adag008
   Task    15 k-point     2 on adag008
   Task    16 k-point     2 on adag008
   Task    17 k-point     2 on adag008
  K-point:     1 Tasks:     9 split into      3 X      3 BLACS grid
  Calculating block size based on n_basis =         1440  max_nprow =            3  max_npcol =            3
  ScaLAPACK block size set to:           16
  Allocating        1.758 MB for ovlp
  Allocating        1.758 MB for ham
  Allocating        1.758 MB for eigenvec
  Required Scalapack workspace - INTEGER:            1  REAL:             1
  Partitioning the integration grid into batches with parallel hashing+maxmin method.
  | Number of batches:     5625
  | Maximal batch size:     200
  | Minimal batch size:      99
  | Average batch size:     135.794
  | Standard deviation of batch sizes:      28.961

  Integration load balanced across    18 MPI tasks.
  Work distribution over tasks is as follows:
  Task     0 has      42425 integration points.
  Task     1 has      42448 integration points.
  Task     2 has      42455 integration points.
  Task     3 has      42430 integration points.
  Task     4 has      42422 integration points.
  Task     5 has      42444 integration points.
  Task     6 has      42428 integration points.
  Task     7 has      42400 integration points.
  Task     8 has      42446 integration points.
  Task     9 has      42454 integration points.
  Task    10 has      42403 integration points.
  Task    11 has      42462 integration points.
  Task    12 has      42435 integration points.
  Task    13 has      42434 integration points.
  Task    14 has      42440 integration points.
  Task    15 has      42372 integration points.
  Task    16 has      42481 integration points.
  Task    17 has      42461 integration points.
  Initializing partition tables, free-atom densities, potentials, etc. across the integration grid (initialize_grid_storage).
  | initialize_grid_storage: Actual outermost partition radius vs. multipole_radius_free
  | (-- VB: in principle, multipole_radius_free should be larger, hence this output)
  | Species        1: Confinement radius =              4.999999999999999 AA, multipole_radius_free =              5.054417573612229 AA.
  | Species        1: outer_partition_radius set to              5.054417573612229 AA .
  | Species        2: Confinement radius =              4.999999999999999 AA, multipole_radius_free =              5.019602836301480 AA.
  | Species        2: outer_partition_radius set to              5.019602836301480 AA .
  | The sparse table of interatomic distances needs       7657.40 kbyte instead of     36159.01 kbyte of memory.
  | Net number of integration points:   763840
  | of which are non-zero points    :   605403
  | Numerical average free-atom electrostatic potential    :     -8.61476406 eV
  Renormalizing the initial density to the exact electron count on the 3D integration grid.
  | Initial density: Formal number of electrons (from input files) :     544.0000000000
  | Integrated number of electrons on 3D grid     :     544.0025117485
  | Charge integration error                      :       0.0025117485
  | Normalization factor for density and gradient :       0.9999953828
  Renormalizing the free-atom superposition density to the exact electron count on the 3D integration grid.
  | Formal number of electrons (from input files) :     544.0000000000
  | Integrated number of electrons on 3D grid     :     544.0025117485
  | Charge integration error                      :       0.0025117485
  | Normalization factor for density and gradient :       0.9999953828
  Obtaining max. number of non-zero basis functions in each batch (get_n_compute_maxes).
  | Maximal number of non-zero basis functions:      539 in task     0
  | Maximal number of non-zero basis functions:      532 in task     1
  | Maximal number of non-zero basis functions:      552 in task     2
  | Maximal number of non-zero basis functions:      539 in task     3
  | Maximal number of non-zero basis functions:      528 in task     4
  | Maximal number of non-zero basis functions:      541 in task     5
  | Maximal number of non-zero basis functions:      534 in task     6
  | Maximal number of non-zero basis functions:      549 in task     7
  | Maximal number of non-zero basis functions:      543 in task     8
  | Maximal number of non-zero basis functions:      548 in task     9
  | Maximal number of non-zero basis functions:      541 in task    10
  | Maximal number of non-zero basis functions:      544 in task    11
  | Maximal number of non-zero basis functions:      532 in task    12
  | Maximal number of non-zero basis functions:      552 in task    13
  | Maximal number of non-zero basis functions:      543 in task    14
  | Maximal number of non-zero basis functions:      538 in task    15
  | Maximal number of non-zero basis functions:      529 in task    16
  | Maximal number of non-zero basis functions:      549 in task    17
  Integrating Hamiltonian matrix: batch-based integration.
  GPU acceleration will be used when integrating the Hamiltonian matrix.
  Reporting GPU memory usage by myid 0.  Note that it is likely not the only MPI task binding to its GPU!
  Allocating        2.324 MB on GPU for hamiltonian_shell
  Allocating        0.862 MB on GPU for wave
  Allocating        0.002 MB on GPU for partition
  Allocating        0.862 MB on GPU for h_times_psi
  Time summed over all CPUs for integration: real work       18.854 s, elapsed       19.256 s
  Deallocating memory used on GPU for Hamiltonian integration.
  Integrating overlap matrix.
  Time summed over all CPUs for integration: real work       15.654 s, elapsed       15.982 s
  Deallocating overlap matrix.

  Updating Kohn-Sham eigenvalues and eigenvectors using ELSI and the ELPA eigensolver.
  Singularity check in k-point 1 (analysis for other k-points may follow below):
  Overlap matrix is not singular
  | Lowest and highest eigenvalues :  0.7681E-03,  0.8244E+01
  Finished singularity check of overlap matrix
  | Time :     0.075 s
  Starting ELPA eigensolver
  Finished Cholesky decomposition
  | Time :     0.013 s
  Finished transformation to standard eigenproblem
  | Time :     0.016 s
  Finished solving standard eigenproblem
  | Time :     0.158 s
  Finished back-transformation of eigenvectors
  | Time :     0.011 s

  Obtaining occupation numbers and electronic chemical potential using ELSI.
  | Note that, for insulating systems, the printed 'chemical potential' value is not uniquely defined.
  | It can be anywhere in the energy gap, as long as it correctly separates occupied and unoccupied states.
  | In systems with a gap, the physically relevant chemical potential is the VBM or HOMO.

  | Chemical potential (Fermi level):    -8.59343159 eV
  Writing Kohn-Sham eigenvalues.
  K-point:       1 at    0.000000    0.000000    0.000000 (in units of recip. lattice)

  State    Occupation    Eigenvalue [Ha]    Eigenvalue [eV]
      1       2.00000         -10.072849         -274.09618
      2       2.00000         -10.071926         -274.07104
      3       2.00000         -10.071518         -274.05994
      4       2.00000         -10.070034         -274.01957
      5       2.00000         -10.067250         -273.94380
      6       2.00000         -10.066786         -273.93118
      7       2.00000         -10.066490         -273.92314
      8       2.00000         -10.066260         -273.91688
      9       2.00000         -10.066094         -273.91235
     10       2.00000         -10.065986         -273.90941
     11       2.00000         -10.065824         -273.90500
     12       2.00000         -10.065713         -273.90198
     13       2.00000         -10.065470         -273.89538
     14       2.00000         -10.065414         -273.89384
     15       2.00000         -10.065074         -273.88460
     16       2.00000         -10.064852         -273.87855
     17       2.00000         -10.064833         -273.87804
     18       2.00000         -10.064818         -273.87763
     19       2.00000         -10.064712         -273.87474
     20       2.00000         -10.064687         -273.87406
     21       2.00000         -10.064573         -273.87096
     22       2.00000         -10.064386         -273.86587
     23       2.00000         -10.064307         -273.86373
     24       2.00000         -10.064184         -273.86039
     25       2.00000         -10.063922         -273.85325
     26       2.00000         -10.063896         -273.85254
     27       2.00000         -10.063784         -273.84949
     28       2.00000         -10.063635         -273.84544
     29       2.00000         -10.063535         -273.84271
     30       2.00000         -10.063416         -273.83949
     31       2.00000         -10.063393         -273.83887
     32       2.00000         -10.063243         -273.83477
     33       2.00000         -10.063106         -273.83104
     34       2.00000         -10.063021         -273.82873
     35       2.00000         -10.063004         -273.82828
     36       2.00000         -10.062947         -273.82672
     37       2.00000         -10.062682         -273.81951
     38       2.00000         -10.062567         -273.81639
     39       2.00000         -10.062465         -273.81360
     40       2.00000         -10.062445         -273.81306
     41       2.00000         -10.062351         -273.81049
     42       2.00000         -10.062317         -273.80957
     43       2.00000         -10.062206         -273.80656
     44       2.00000         -10.062188         -273.80605
     45       2.00000         -10.062111         -273.80398
     46       2.00000         -10.062029         -273.80175
     47       2.00000         -10.061963         -273.79995
     48       2.00000         -10.061813         -273.79588
     49       2.00000         -10.061614         -273.79045
     50       2.00000         -10.061576         -273.78941
     51       2.00000         -10.061350         -273.78327
     52       2.00000         -10.061259         -273.78080
     53       2.00000         -10.061156         -273.77799
     54       2.00000         -10.060997         -273.77366
     55       2.00000         -10.060981         -273.77323
     56       2.00000         -10.060005         -273.74667
     57       2.00000         -10.059681         -273.73784
     58       2.00000         -10.058914         -273.71698
     59       2.00000         -10.058903         -273.71668
     60       2.00000         -10.058719         -273.71168
     61       2.00000         -10.058347         -273.70155
     62       2.00000         -10.058263         -273.69927
     63       2.00000         -10.058025         -273.69278
     64       2.00000         -10.058001         -273.69214
     65       2.00000         -10.057629         -273.68201
     66       2.00000         -10.057607         -273.68142
     67       2.00000         -10.057504         -273.67861
     68       2.00000         -10.057477         -273.67788
     69       2.00000         -10.057462         -273.67747
     70       2.00000         -10.057029         -273.66569
     71       2.00000         -10.056439         -273.64962
     72       2.00000         -10.056282         -273.64536
     73       2.00000         -10.055994         -273.63752
[...]
  |    H      0     4.527807 A      4.583499 A        4.713786E-16 a.u.
  |    H      2     3.678162 A  1.011968E+04 A            0.556529 a.u.
  |    H      1     3.958095 A  1.721251E+06 A            0.841931 a.u.
  |    H      0     4.527807 A  3.866455E+12 A            0.581436 a.u.
  |    C      0     2.562483 A      2.562483 A        6.563029E-17 a.u.
  |    C      0     2.967371 A      2.967371 A        1.352164E-16 a.u.
  |    C      0     3.003870 A      3.003870 A        2.312640E-17 a.u.
  |    C      1     3.272245 A      3.272245 A       -3.835259E-17 a.u.
  |    C      0     3.312494 A      3.312494 A       -2.710381E-16 a.u.
  |    C      3     4.077671 A      4.077671 A       -1.683752E-15 a.u.
  |    C      3     4.077671 A      4.077671 A        1.412852E-15 a.u.
  |    C      1     4.496620 A      4.496620 A       -3.011059E-16 a.u.
  |    C      0     4.496620 A      4.551928 A        2.873903E-17 a.u.
  |    C      2     4.551928 A      4.551928 A       -4.610785E-16 a.u.
  |    C      2     4.551928 A      4.551928 A        7.440584E-16 a.u.
  |    C      2     4.551928 A      4.551928 A       -7.110458E-16 a.u.
  |    C      2     4.551928 A      4.551928 A       -1.935424E-16 a.u.
  |    C      0     4.551928 A      4.607917 A        2.067142E-16 a.u.
  |    C      0     4.551928 A      4.607917 A       -1.109786E-16 a.u.
  |    C      1     4.551928 A      4.607917 A       -9.951742E-17 a.u.
  |    C      1     4.551928 A      4.607917 A        1.937809E-16 a.u.
  |    C      1     4.607917 A      4.607917 A       -2.813308E-16 a.u.
  |    C      1     4.607917 A      4.607917 A       -7.330363E-17 a.u.
  |    C      2     4.607917 A      4.607917 A        1.318462E-15 a.u.
  |    C      2     4.607917 A      4.607917 A       -1.318397E-15 a.u.
  |    C      0     4.607917 A      4.664595 A        3.157826E-16 a.u.
  |    C      1     4.607917 A      4.664595 A        7.356967E-16 a.u.
  |    C      4     3.835889 A  2.962973E+02 A            4.379483 a.u.
  |    C      3     4.127827 A  1.725964E+03 A            9.005588 a.u.
  |    C      2     4.607917 A  2.608475E+04 A            9.531178 a.u.
  |    C      1     4.607917 A  2.736013E+06 A            2.127278 a.u.
  |    C      0     4.607917 A  4.399765E+12 A            0.661635 a.u.

  | Shrink_full_auxil_basis : there are       36  radial auxiliary wave functions
                            accepted and       7 rejected.
  | Shrink_full_auxil_basis : there are totally                8992 partial auxiliary wave functions.
 
  | Maximal number of product basis functions per thread :   512   512
 
  | Minimal total memory requirement for three-center overlap :      72.476 Gbs
  | Number of local auxiliary basis functions on task:      0   512
  | Number of local auxiliary basis functions on task:      1   512
  | Number of local auxiliary basis functions on task:      2   512
  | Number of local auxiliary basis functions on task:      3   512
  | Number of local auxiliary basis functions on task:      4   496
  | Number of local auxiliary basis functions on task:      5   496
  | Number of local auxiliary basis functions on task:      6   496
  | Number of local auxiliary basis functions on task:      7   496
  | Number of local auxiliary basis functions on task:      8   496
  | Number of local auxiliary basis functions on task:      9   496
  | Number of local auxiliary basis functions on task:     10   496
  | Number of local auxiliary basis functions on task:     11   496
  | Number of local auxiliary basis functions on task:     12   496
  | Number of local auxiliary basis functions on task:     13   496
  | Number of local auxiliary basis functions on task:     14   496
  | Number of local auxiliary basis functions on task:     15   496
  | Number of local auxiliary basis functions on task:     16   496
  | Number of local auxiliary basis functions on task:     17   496
  | 2D aux task distribution:      3 X      6
  | 2D block size (nb_aux_2d):     64
 
  Basis pair condensation :   1037520  -->     539115
 
 --------------------------------------------
  Constructing auxiliary basis (full product) ...
 
  Product basis:
  | charge radius: extent of product basis function
  | field radius: extent of its Coulomb potential
  | Species   l  charge radius    field radius  multipol momen
  |    H      1     3.910002 A      3.910002 A       -2.487223E-16 a.u.
  |    H      1     3.958095 A      3.958095 A       -2.441841E-16 a.u.
  |    H      0     4.527807 A      4.527807 A        1.268855E-16 a.u.
  |    H      0     4.527807 A      4.583499 A       -4.900954E-17 a.u.
  |    H      0     4.527807 A      4.583499 A        4.713786E-16 a.u.
  |    H      2     3.678162 A  1.011968E+04 A            0.556529 a.u.
  |    H      1     3.958095 A  1.721251E+06 A            0.841931 a.u.
  |    H      0     4.527807 A  3.866455E+12 A            0.581436 a.u.
  |    C      0     2.562483 A      2.562483 A        6.563029E-17 a.u.
  |    C      0     2.967371 A      2.967371 A        1.352164E-16 a.u.
  |    C      0     3.003870 A      3.003870 A        2.312640E-17 a.u.
  |    C      1     3.272245 A      3.272245 A       -3.835259E-17 a.u.
  |    C      0     3.312494 A      3.312494 A       -2.710381E-16 a.u.
  |    C      3     4.077671 A      4.077671 A       -1.683752E-15 a.u.
  |    C      3     4.077671 A      4.077671 A        1.412852E-15 a.u.
  |    C      1     4.496620 A      4.496620 A       -3.011059E-16 a.u.
  |    C      0     4.496620 A      4.551928 A        2.873903E-17 a.u.
  |    C      2     4.551928 A      4.551928 A       -4.610785E-16 a.u.
  |    C      2     4.551928 A      4.551928 A        7.440584E-16 a.u.
  |    C      2     4.551928 A      4.551928 A       -7.110458E-16 a.u.
  |    C      2     4.551928 A      4.551928 A       -1.935424E-16 a.u.
  |    C      0     4.551928 A      4.607917 A        2.067142E-16 a.u.
  |    C      0     4.551928 A      4.607917 A       -1.109786E-16 a.u.
  |    C      1     4.551928 A      4.607917 A       -9.951742E-17 a.u.
  |    C      1     4.551928 A      4.607917 A        1.937809E-16 a.u.
  |    C      1     4.607917 A      4.607917 A       -2.813308E-16 a.u.
  |    C      1     4.607917 A      4.607917 A       -7.330363E-17 a.u.
  |    C      2     4.607917 A      4.607917 A        1.318462E-15 a.u.
  |    C      2     4.607917 A      4.607917 A       -1.318397E-15 a.u.
  |    C      0     4.607917 A      4.664595 A        3.157826E-16 a.u.
  |    C      1     4.607917 A      4.664595 A        7.356967E-16 a.u.
  |    C      4     3.835889 A  2.962973E+02 A            4.379483 a.u.
  |    C      3     4.127827 A  1.725964E+03 A            9.005588 a.u.
  |    C      2     4.607917 A  2.608475E+04 A            9.531178 a.u.
  |    C      1     4.607917 A  2.736013E+06 A            2.127278 a.u.
  |    C      0     4.607917 A  4.399765E+12 A            0.661635 a.u.

  | Shrink_full_auxil_basis : there are       36  radial auxiliary wave functions
                            accepted and       7 rejected.
  | Shrink_full_auxil_basis : there are totally                8992 partial auxiliary wave functions.
 
  | Maximal number of product basis functions per thread :   512   512
 
  | Minimal total memory requirement for three-center overlap :      72.476 Gbs
  | Number of local auxiliary basis functions on task:      0   512
  | Number of local auxiliary basis functions on task:      1   512
  | Number of local auxiliary basis functions on task:      2   512
  | Number of local auxiliary basis functions on task:      3   512
  | Number of local auxiliary basis functions on task:      4   496
  | Number of local auxiliary basis functions on task:      5   496
  | Number of local auxiliary basis functions on task:      6   496
  | Number of local auxiliary basis functions on task:      7   496
  | Number of local auxiliary basis functions on task:      8   496
  | Number of local auxiliary basis functions on task:      9   496
  | Number of local auxiliary basis functions on task:     10   496
  | Number of local auxiliary basis functions on task:     11   496
  | Number of local auxiliary basis functions on task:     12   496
  | Number of local auxiliary basis functions on task:     13   496
  | Number of local auxiliary basis functions on task:     14   496
  | Number of local auxiliary basis functions on task:     15   496
  | Number of local auxiliary basis functions on task:     16   496
  | Number of local auxiliary basis functions on task:     17   496
  | 2D aux task distribution:      3 X      6
  | 2D block size (nb_aux_2d):     64
 
  Basis pair condensation :   1037520  -->     539115
  Allocating        0.069 MB for t_coeff
  Allocating        0.034 MB for basbas_idx
  Allocating        0.069 MB for wave
  Allocating        0.069 MB for total_wave
  Allocating        0.206 MB for wave_gradient
  Allocating        0.206 MB for total_wave_grad
 HERE1
 HERE2
  Deallocating        0.069 MB for t_coeff
  Deallocating        0.034 MB for basbas_idx
  Deallocating        0.069 MB for wave
  Deallocating        0.206 MB for wave_gradient
  Deallocating        0.206 MB for total_wave_grad
dP_dE (Bohr^3) at every cycle:--->
 (1018.36266011462,0.000000000000000E+000) (2.81627859455806,0.000000000000000E+000) (-461.805001438355,0.000000000000000E+000)
 (2.74883841799158,0.000000000000000E+000) (1370.17303107478,0.000000000000000E+000) (-9.76673332558781,0.000000000000000E+000)
 (-461.973240984430,0.000000000000000E+000) (-9.78306837525616,0.000000000000000E+000) (1681.42727857012,0.000000000000000E+000)
DFPT polarizability (Bohr^3)        xx        yy        zz        xy        xz        yz
  | Polarizability:--->                      1018.362660115                 1370.173031075                 1681.427278570                    2.816278595                 -461.805001438                   -9.766733326

DFPT for dielectric_constant:--->  # PARSE DFPT_dielectric_tensor
               2.381896407658426             0.003821629980372            -0.626659536450924
               0.003730115099299             2.859295576783609            -0.013253248794166
              -0.626887833926325            -0.013275415108132             3.281660951446722

                                               :  max(cpu_time)    wall_clock(cpu1)
  | Time for  dielectric calculation            :        0.000 s           0.001 s
===========================================================================

------------------------------------------------------------------------------
  Final output of selected total energy values:

  The following output summarizes some interesting total energy values
  at the end of a run (AFTER all relaxation, molecular dynamics, etc.).

  | Total energy of the DFT / Hartree-Fock s.c.f. calculation      :         -83267.397629934 eV
  | Final zero-broadening corrected energy (caution - metals only) :         -83267.397629934 eV
  | For reference only, the value of 1 Hartree used in FHI-aims is :             27.211384500 eV
  | For reference only, the overall average (free atom contribution
  | + realspace contribution) of the electrostatic potential after
  | s.c.f. convergence is                                          :             -7.709668982 eV

  Before relying on these values, please be sure to understand exactly which
  total energy value is referred to by a given number. Different objects may
  all carry the same name 'total energy'. Definitions:

  Total energy of the DFT / Hartree-Fock s.c.f. calculation:
  | Note that this energy does not include ANY quantities calculated after the
  | s.c.f. cycle, in particular not ANY RPA, MP2, etc. many-body perturbation terms.

  Final zero-broadening corrected energy:
  | For metallic systems only, a broadening of the occupation numbers at the Fermi
  | level can be extrapolated back to zero broadening by an electron-gas inspired
  | formula. For all systems that are not real metals, this value can be
  | meaningless and should be avoided.

------------------------------------------------------------------------------
  Methods described in the following list of references were used in this FHI-aims run.
  If you publish the results, please make sure to cite these reference if they apply.
  FHI-aims is an academic code, and for our developers (often, Ph.D. students
  and postdocs), scientific credit in the community is essential.
  Thank you for helping us!

  For any use of FHI-aims, please cite:

    Volker Blum, Ralf Gehrke, Felix Hanke, Paula Havu, Ville Havu,
    Xinguo Ren, Karsten Reuter, and Matthias Scheffler
    'Ab initio molecular simulations with numeric atom-centered orbitals'
    Computer Physics Communications 180, 2175-2196 (2009)
    http://doi.org/10.1016/j.cpc.2009.06.022


  For Hartree-Fock, hybrid functionals, or many-body perturbation theory used in your run, please cite:

    Xinguo Ren, Patrick Rinke, Volker Blum, Juergen Wieferink, Alex Tkatchenko,
    Andrea Sanfilippo, Karsten Reuter, and Matthias Scheffler,
    'Resolution-of-identity approach to Hartree-Fock, hybrid density functionals,
    RPA, MP2, and GW with numeric atom-centered orbital basis functions'
    New Journal of Physics 14, 053020 (2012).
    http://doi.org/10.1088/1367-2630/14/5/053020


  The provided symmetry information was generated with SPGlib:

    Atsushi Togo, Yusuke Seto, Dimitar Pashov
    SPGlib 1.7.3 obtained from http://spglib.sourceforge.net
    Copyright (C) 2008 Atsushi Togo


  The DFPT (perturbation by an electric field) part of the code was used.
  Here is the corresponding reference:

    Honghui Shang, Nathaniel Raimbault, Mariana Rossi,
    Christian Carbogno, Patrick Rinke and Matthias Scheffler,
    'All-Electron, Real-Space Perturbation Theory for Homogeneous
    Electric Fields: Theory, Implementation, and Application within dft'
    New Journal of Physics, 20(7):073040, 2018


  The ELSI infrastructure was used in your run to solve the Kohn-Sham electronic structure.
  Please check out http://elsi-interchange.org to learn more.
  If scalability is important for your project, please acknowledge ELSI by citing:

    V. W-z. Yu, F. Corsetti, A. Garcia, W. P. Huhn, M. Jacquelin, W. Jia,
    B. Lange, L. Lin, J. Lu, W. Mi, A. Seifitokaldani, A. Vazquez-Mayagoitia,
    C. Yang, H. Yang, and V. Blum
    'ELSI: A unified software interface for Kohn-Sham electronic structure solvers'
    Computer Physics Communications 222, 267-285 (2018).
    http://doi.org/10.1016/j.cpc.2017.09.007


  For the real-space grid partitioning and parallelization used in this calculation, please cite:

    Ville Havu, Volker Blum, Paula Havu, and Matthias Scheffler,
    'Efficient O(N) integration for all-electron electronic structure calculation'
    'using numerically tabulated basis functions'
    Journal of Computational Physics 228, 8367-8379 (2009).
    http://doi.org/10.1016/j.jcp.2009.08.008


  The high-level electronic structure method used in your calculation
  employed our efficient localized resolution of identity for the Coulomb operator.
  Some calculations, especially large-scale hybrid density functional theory,
  are only possible thanks to this development. For this feature, please cite:

    Arvid Ihrig, Juergen Wieferink, Igor Ying Zhang, Matti Ropo, Xinguo Ren,
    Patrick Rinke, Matthias Scheffler, and Volker Blum,
    'Accurate localized resolution of identity approach for linear-scaling
    hybrid density functionals and for many-body perturbation theory'
    New Journal of Physics 117, 093020 (2015).
    http://doi.org/10.1088/1367-2630/17/9/093020

  Of course, there are many other important community references, e.g., those cited in the
  above references. Our list is limited to references that describe implementations in the
  FHI-aims code. The reason is purely practical (length of this list) - please credit others as well.

------------------------------------------------------------
          Leaving FHI-aims.
          Date     :  20230119, Time     :  161105.132

          Computational steps:
          | Number of self-consistency cycles          :           47
          | Number of SCF (re)initializations          :            1
          | Number of coupled perturbed self-consistency cycles          :            0
          | Number of CPSCF (re)initializations          :            0

          Detailed time accounting                     :  max(cpu_time)    wall_clock(cpu1)
          | Total time                                  :     1568.225 s        1582.593 s
          | GPU initialization                          :        2.222 s          10.553 s
          | Preparation time                            :        0.079 s           0.077 s
          | Boundary condition initalization            :        0.971 s           0.972 s
          | Grid partitioning                           :        1.239 s           1.289 s
          | Preloading free-atom quantities on grid     :        3.841 s           3.844 s
          | Free-atom superposition energy              :        0.416 s           0.416 s
          | Total time for integrations                 :       19.218 s          20.807 s
          | Product basis setup: Total time             :        0.000 s           0.000 s
          | Product basis: | 2-center integrations     :(       0.000 s)  (       0.000 s)
          | Product basis: | LVL 3-center & coefficient:(       0.000 s)  (       0.000 s)
          | Total time for solution of K.-S. equations  :        3.489 s           3.503 s
          | Total time for density update               :       13.977 s          17.594 s
          | Total time for mixing & preconditioning     :       12.087 s          12.092 s
          | Total time for Hartree multipole update     :        0.092 s           0.092 s
          | Total time for Hartree multipole sum        :       44.137 s          44.150 s
          | Total time for total energy evaluation      :        0.006 s           0.004 s
          | Total time first_order_DM                   :        1.898 s           1.898 s
          | Total time first_order_density              :      302.237 s         302.262 s
          | Total time first_order_potential            :      121.688 s         121.721 s
          | Total time first_order_H                    :      575.584 s         575.728 s
          | Total time solving of Sternheimer equations :        1.826 s           1.827 s
          | Total time for dielectric constant          :        0.000 s           0.001 s
          | Total time momentum matrix                  :        0.000 s           0.000 s

          GPU acceleration has been used for charge density update.
          GPU acceleration has been used for real-space Hamiltonian integration.
          Due to GPU usage, wall_clock(cpu1) will give a more reliable estimate for timings.

          Partial memory accounting:
          | Residual value for overall tracked memory usage across tasks:     1.234863 MB (should be 0.000000 MB)
          |
          | Largest tracked array allocation:
          |   Minimum:      103.149 MB (DFPT_pulay_mixing::initialize_pulay_mixing::X_in_diffs on task  0)
          |   Maximum:      103.149 MB (DFPT_pulay_mixing::initialize_pulay_mixing::X_in_diffs on task  0)
          |   Average:      103.149 MB
          |
          | Because the residual tracked memory usage was not zero, the peak value for overall
          | tracked memory usage was not output, as it is probably incorrect.  This is likely due
          | to a missing aims_deallocate statement in the source code, which should be otherwise
          | harmless.
          |
          Note:  These values currently only include a subset of arrays which are explicitly tracked.
          The "true" memory usage will be greater.

          Have a nice day.
------------------------------------------------------------
