------------------------------------------------------------
          Invoking FHI-aims ...

          When using FHI-aims, please cite the following reference:

            Volker Blum, Ralf Gehrke, Felix Hanke, Paula Havu,
            Ville Havu, Xinguo Ren, Karsten Reuter, and Matthias Scheffler,
            'Ab Initio Molecular Simulations with Numeric Atom-Centered Orbitals',
            Computer Physics Communications 180, 2175-2196 (2009)

          In addition, many other developments in FHI-aims are likely important for
          your particular application. A partial list of references is given at the end of
          this file. Thank you for giving credit to the authors of these developments.

          For any questions about FHI-aims, please visit our slack channel at

            https://fhi-aims.slack.com

          and our main development and support site at

            https://aims-git.rz-berlin.mpg.de .

          The latter site, in particular, has a wiki to collect information, as well
          as an issue tracker to log discussions, suggest improvements, and report issues
          or bugs. https://aims-git.rz-berlin.mpg.de is also the main development site
          of the project and all new and updated code versions can be obtained there.
          Please send an email to aims-coordinators@fhi-berlin.mpg.de and we will add
          you to these sites. They are for you and everyone is welcome there.

------------------------------------------------------------



  Date     :  20230119, Time     :  211002.006
  Time zero on CPU 1             :   0.374785000000000E+00  s.
  Internal wall clock time zero  :           443394602.006  s.

  FHI-aims created a unique identifier for this run for later identification
  aims_uuid : 4C3BFD55-53D8-48FA-A736-FFA3AD2928DD

  Build configuration of the current instance of FHI-aims
  -------------------------------------------------------
  FHI-aims version      : 220829
  Commit number         : 9895fc21d
  CMake host system     : Linux-5.3.18-150300.59.68-default
  CMake version         : 3.17.0
  Fortran compiler      : /mpcdf/soft/SLE_15/packages/x86_64/intel_oneapi/2021.3/mpi/2021.3.0/bin/mpiifort (Intel) version 20.2.3.20210609
  Fortran compiler flags: -O3 -ip -fp-model precise
  C compiler            : /mpcdf/soft/SLE_15/packages/x86_64/intel/2021.3.0/bin/icc (Intel) version 20.2.3.20210609
  C compiler flags      : -O3 -ip -fp-model precise -std=gnu99
  CUDA compiler         : /mpcdf/soft/SLE_15/packages/x86_64/cuda/11.6.2/bin/nvcc
  CUDA compiler flags   : -O3 -DAdd_ -lcublas
  ELPA2 kernel          : AVX512
  Using MPI
  Using ScaLAPACK
  Using LibXC
  Using CUDA
  Using i-PI
  Using RLSY
  Linking against: /mpcdf/soft/SLE_15/packages/x86_64/cuda/11.6.2/lib64/libcublas.so
                   /mpcdf/soft/SLE_15/packages/x86_64/cuda/11.6.2/lib64/libcudart.so
                   /mpcdf/soft/SLE_15/packages/x86_64/intel_oneapi/2021.3/mkl/latest/lib/intel64/libmkl_intel_lp64.so
                   /mpcdf/soft/SLE_15/packages/x86_64/intel_oneapi/2021.3/mkl/latest/lib/intel64/libmkl_sequential.so
                   /mpcdf/soft/SLE_15/packages/x86_64/intel_oneapi/2021.3/mkl/latest/lib/intel64/libmkl_core.so
                   /mpcdf/soft/SLE_15/packages/x86_64/intel_oneapi/2021.3/mkl/latest/lib/intel64/libmkl_blacs_intelmpi_lp64.so
                   /mpcdf/soft/SLE_15/packages/x86_64/intel_oneapi/2021.3/mkl/latest/lib/intel64/libmkl_scalapack_lp64.so

  Using       18 parallel tasks.
  Task        0 on host adag003 reporting.
  Task        1 on host adag003 reporting.
  Task        2 on host adag003 reporting.
  Task        3 on host adag003 reporting.
  Task        4 on host adag003 reporting.
  Task        5 on host adag003 reporting.
  Task        6 on host adag003 reporting.
  Task        7 on host adag003 reporting.
  Task        8 on host adag003 reporting.
  Task        9 on host adag003 reporting.
  Task       10 on host adag003 reporting.
  Task       11 on host adag003 reporting.
  Task       12 on host adag003 reporting.
  Task       13 on host adag003 reporting.
  Task       14 on host adag003 reporting.
  Task       15 on host adag003 reporting.
  Task       16 on host adag003 reporting.
  Task       17 on host adag003 reporting.

  Performing system and environment tests:
  | Environment variable OMP_NUM_THREADS correctly set to 1.
  | Checking for ScaLAPACK...
  | Testing pdtran()...
  | All pdtran() tests passed.

  Obtaining array dimensions for all initial allocations:
  
  -----------------------------------------------------------------------
  Parsing control.in (first pass over file, find array dimensions only).
  The contents of control.in will be repeated verbatim below
  unless switched off by setting 'verbatim_writeout .false.' .
  in the first line of control.in .
  -----------------------------------------------------------------------
  
  #
  # Input for polarizability replays on generic oligoacene molecular crystals (light settings,  LDA+MBD).
  #
  #########################################################################################
  #
  #  Physical model
  #
    xc                 pw-lda
    spin               none
    relativistic       none
    charge             0.0
    k_grid 	     2 1 1
    DFPT dielectric
  #
  #  GPU acceleration
  #
  # Turns on GPU acceleration everywhere
    use_gpu
  
  # Turns OFF GPU acceleration of ELPA - may be necessary if GPU ELPA is slow
    elsi_elpa_gpu 0
  #
  #  Relaxation
  #
  #  relax_geometry trm 1E-3
  #  relax_unit_cell fixed_angles
  #
  #  SCF convergence        #
    charge_mix_param   0.75
    #sc_accuracy_rho 1E-4
  #
  # i-PI communication
  #
  compute_forces .false.
  # use_pimd_wrapper 130.183.223.27 26118
  #communicate_pimd_wrapper polarizability
  #output_level MD_light
  #
  # Output SALTED info
    ri_density_restart write
    ri_rho1 write
    ri_full_output .true.
  #  sc_accuracy_rho    1d-6
    default_prodbas_acc 1e-6
    default_max_l_prodbas 6
  #
  #
  ################################################################################
  #
  #  FHI-aims code project
  #  VB, Fritz-Haber Institut, 2009
  #
  #  Suggested "light" defaults for H atom (to be pasted into control.in file)
  #  Be sure to double-check any results obtained with these settings for post-processing,
  #  e.g., with the "tight" defaults and larger basis sets.
  #
  ################################################################################
    species        H
  #     global species definitions
      nucleus             1
      mass                1.00794
  #
      l_hartree           4
  #
      cut_pot             3.5  1.5  1.0
      basis_dep_cutoff    1e-4
  #
      radial_base         24 5.0
      radial_multiplier   1
      angular_grids       specified
        division   0.2421   50
        division   0.3822  110
        division   0.4799  194
        division   0.5341  302
  #      division   0.5626  434
  #      division   0.5922  590
  #      division   0.6542  770
  #      division   0.6868 1202
  #      outer_grid  770
        outer_grid  302
  ################################################################################
  #
  #  Definition of "minimal" basis
  #
  ################################################################################
  #     valence basis states
      valence      1  s   1.
  #     ion occupancy
      ion_occ      1  s   0.5
  ################################################################################
  #
  #  Suggested additional basis functions. For production calculations,
  #  uncomment them one after another (the most important basis functions are
  #  listed first).
  #
  #  Basis constructed for dimers: 0.5 A, 0.7 A, 1.0 A, 1.5 A, 2.5 A
  #
  ################################################################################
  #  "First tier" - improvements: -1014.90 meV to -62.69 meV
       hydro 2 s 2.1
       hydro 2 p 3.5
  #  "Second tier" - improvements: -12.89 meV to -1.83 meV
  #     hydro 1 s 0.85
  #     hydro 2 p 3.7
  #     hydro 2 s 1.2
  #     hydro 3 d 7
  #  "Third tier" - improvements: -0.25 meV to -0.12 meV
  #     hydro 4 f 11.2
  #     hydro 3 p 4.8
  #     hydro 4 d 9
  #     hydro 3 s 3.2
  ################################################################################
  ################################################################################
  #
  #  FHI-aims code project
  #  VB, Fritz-Haber Institut, 2009
  #
  #  Suggested "light" defaults for C atom (to be pasted into control.in file)
  #  Be sure to double-check any results obtained with these settings for post-processing,
  #  e.g., with the "tight" defaults and larger basis sets.
  #
  ################################################################################
    species        C
  #     global species definitions
      nucleus             6
      mass                12.0107
  #
      l_hartree           4
  #
      cut_pot             3.5  1.5  1.0
      basis_dep_cutoff    1e-4
  #
      radial_base         34 5.0
      radial_multiplier   1
      angular_grids specified
        division   0.3326   50
        division   0.5710  110
        division   0.7727  194
        division   0.8772  302
  #      division   0.9334  434
  #      division   0.9625  590
  #      division   0.9924  770
  #      division   1.0230  974
  #      division   1.4589 1202
  #     outer_grid  974
       outer_grid 302
  ################################################################################
  #
  #  Definition of "minimal" basis
  #
  ################################################################################
  #     valence basis states
      valence      2  s   2.
      valence      2  p   2.
  #     ion occupancy
      ion_occ      2  s   1.
      ion_occ      2  p   1.
  ################################################################################
  #
  #  Suggested additional basis functions. For production calculations,
  #  uncomment them one after another (the most important basis functions are
  #  listed first).
  #
  #  Constructed for dimers: 1.0 A, 1.25 A, 1.5 A, 2.0 A, 3.0 A
  #
  ################################################################################
  #  "First tier" - improvements: -1214.57 meV to -155.61 meV
       hydro 2 p 1.7
       hydro 3 d 6
       hydro 2 s 4.9
  #  "Second tier" - improvements: -67.75 meV to -5.23 meV
  #     hydro 4 f 9.8
  #     hydro 3 p 5.2
  #     hydro 3 s 4.3
  #     hydro 5 g 14.4
  #     hydro 3 d 6.2
  #  "Third tier" - improvements: -2.43 meV to -0.60 meV
  #     hydro 2 p 5.6
  #     hydro 2 s 1.4
  #     hydro 3 d 4.9
  #     hydro 4 f 11.2
  #  "Fourth tier" - improvements: -0.39 meV to -0.18 meV
  #     hydro 2 p 2.1
  #     hydro 5 g 16.4
  #     hydro 4 d 13.2
  #     hydro 3 s 13.6
  #     hydro 4 f 17.6
  #  Further basis functions - improvements: -0.08 meV and below
  #     hydro 3 s 2
  #     hydro 3 p 6
  #     hydro 4 d 20
  
  -----------------------------------------------------------------------
  Completed first pass over input file control.in .
  -----------------------------------------------------------------------
  
  
  -----------------------------------------------------------------------
  Parsing geometry.in (first pass over file, find array dimensions only).
  The contents of geometry.in will be repeated verbatim below
  unless switched off by setting 'verbatim_writeout .false.' .
  in the first line of geometry.in .
  -----------------------------------------------------------------------
  
  #=======================================================
  # FHI-aims file: /ada/ptmp/mpsd/alewis/naphthalene/qmdata/data/geoms/203.in
  # Created using the Atomic Simulation Environment (ASE)
  # Thu Jan 19 15:19:17 2023
  #=======================================================
  lattice_vector 8.1020000000000003 0.0000000000000000 0.0000000000000000
  lattice_vector 0.0000000000000000 11.8800000000000008 0.0000000000000000
  lattice_vector -9.7850918486534706 0.0000000000000000 14.2571119625755713
  atom -0.9580080000000000 0.1291710000000000 2.2789700000000002 C
  atom 0.2876530000000000 2.9832800000000002 4.9368400000000001 C
  atom 4.3151000000000002 5.8841400000000004 4.9647899999999998 C
  atom 3.2160099999999998 2.5705900000000002 2.3349799999999998 C
  atom -0.1525130000000000 0.9764000000000000 1.5197799999999999 C
  atom -0.5186770000000001 3.8284199999999999 5.6638799999999998 C
  atom 3.5757599999999998 5.0047100000000002 5.7387300000000003 C
  atom 4.0115100000000004 1.8618300000000001 1.4650700000000001 C
  atom 0.2382470000000000 0.5911510000000000 0.2295850000000000 C
  atom -0.8854910000000000 3.5375100000000002 6.9922800000000001 C
  atom 3.1034299999999999 5.3721300000000003 7.0124700000000004 C
  atom 4.3708200000000001 2.3588100000000001 0.1898250000000000 C
  atom -3.7557999999999998 1.4789900000000000 6.6766100000000002 C
  atom 3.1074799999999998 4.3844500000000002 0.7227160000000000 C
  atom 7.2316200000000004 4.4624400000000000 0.5766370000000000 C
  atom 0.3322750000000000 1.4434100000000001 6.7670700000000004 C
  atom -3.4438599999999999 1.1183099999999999 5.3893599999999999 C
  atom 2.7763100000000001 3.8572000000000002 1.9504600000000001 C
  atom 6.9087899999999998 4.8791200000000003 1.8708600000000000 C
  atom 0.6962810000000000 1.7703599999999999 5.4988999999999999 C
  atom -1.2518199999999999 0.4086400000000000 3.2738999999999998 H
  atom 0.5450070000000000 3.2245900000000001 3.8956200000000001 H
  atom 4.6677799999999996 5.5784900000000004 3.9976699999999998 H
  atom 3.0080100000000001 2.1368200000000002 3.3139699999999999 H
  atom 0.1201970000000000 1.9460299999999999 1.9564200000000000 H
  atom -0.9424020000000000 4.6953699999999996 5.1633800000000001 H
  atom 3.2977200000000000 4.0383300000000002 5.3404100000000003 H
  atom 4.3749099999999999 0.8591410000000000 1.7204600000000001 H
  atom -3.4072399999999998 2.4554399999999998 7.0711700000000004 H
  atom 2.7799700000000001 5.3738999999999999 0.4465940000000000 H
  atom 6.9730800000000004 3.4413600000000000 0.1670330000000000 H
  atom 0.6265870000000000 0.4885770000000000 7.2077000000000000 H
  atom -2.7220800000000001 1.7721300000000000 4.8420100000000001 H
  atom 2.1964000000000001 4.5260300000000004 2.6296499999999998 H
  atom 6.3538600000000001 4.1818799999999996 2.5341800000000001 H
  atom 1.3335300000000001 1.1036600000000001 4.9351900000000004 H
  atom -5.6253599999999997 0.0223927000000000 9.5935299999999994 C
  atom -4.7140199999999997 3.3900399999999999 11.9418000000000006 C
  atom -0.6392690000000000 5.8207399999999998 11.8861000000000008 C
  atom -1.5152800000000000 2.9725999999999999 9.6473399999999998 C
  atom -4.8617400000000002 0.8873170000000000 8.8236699999999999 C
  atom -5.5522900000000002 4.1081500000000002 12.7758000000000003 C
  atom -1.3178900000000000 4.9226599999999996 12.7004000000000001 C
  atom -0.8014380000000000 2.0480700000000001 8.9225899999999996 C
  atom -4.4639300000000004 0.5719990000000000 7.5140300000000000 C
  atom -5.8692799999999998 3.6507299999999998 14.0614000000000008 C
  atom -1.7991600000000001 5.3345399999999996 13.9845000000000006 C
  atom -0.4910830000000000 2.2948300000000001 7.5570800000000000 C
  atom -8.7208500000000004 1.4253600000000000 13.6560000000000006 C
  atom -1.6996400000000000 4.4500599999999997 7.7098800000000001 C
  atom 2.3406600000000002 4.5198900000000002 7.8480100000000004 C
  atom -4.5399300000000000 1.6474400000000000 13.5861000000000001 C
  atom -8.3410399999999996 0.9700600000000000 12.4222999999999999 C
  atom -2.0001600000000002 4.1840599999999997 9.0354700000000001 C
  atom 1.8836999999999999 4.9260099999999998 9.1021300000000007 C
  atom -4.1900100000000000 2.1711000000000000 12.3422000000000001 C
  atom -5.8983200000000000 0.3172660000000000 10.5945000000000000 H
  atom -4.5459399999999999 3.7571800000000000 10.9214000000000002 H
  atom -0.3524250000000000 5.5201799999999999 10.8701000000000008 H
  atom -1.6540600000000001 2.8511600000000001 10.7233000000000001 H
  atom -4.6050399999999998 1.8431500000000001 9.2589100000000002 H
  atom -6.0140200000000004 5.0035999999999996 12.3610000000000007 H
  atom -1.4699500000000001 3.9086200000000000 12.4087999999999994 H
  atom -0.5242500000000000 1.0984000000000000 9.3497900000000005 H
  atom -8.3045399999999994 2.3672700000000000 14.0333000000000006 H
  atom -2.0516600000000000 5.3930899999999999 7.2559800000000001 H
  atom 2.0775600000000001 3.5027599999999999 7.5316900000000002 H
  atom -4.1414999999999997 0.6915350000000000 13.8544999999999998 H
  atom -7.6500199999999996 1.6086199999999999 11.8887999999999998 H
  atom -2.5699900000000002 4.9193199999999999 9.6075599999999994 H
  atom 1.2749200000000001 4.2603600000000004 9.6968499999999995 H
  atom -3.5302199999999999 1.5861300000000000 11.7014999999999993 H
  atom -0.7835330000000000 6.1406499999999999 2.3422000000000001 C
  atom 0.1310700000000000 8.9890100000000004 4.6853400000000001 C
  atom 4.2121199999999996 11.7943999999999996 4.8206699999999998 C
  atom 3.2240199999999999 8.5422600000000006 2.5871300000000002 C
  atom -0.1177820000000000 7.0136200000000004 1.5184100000000000 C
  atom -0.5929590000000000 9.8908299999999993 5.4378000000000002 C
  atom 3.5252699999999999 10.8714999999999993 5.5680600000000000 C
  atom 3.9949900000000000 7.7676200000000000 1.7632600000000000 C
  atom 0.2697850000000000 6.6264300000000000 0.2076810000000000 C
  atom -0.9421610000000000 9.6081599999999998 6.7543100000000003 C
  atom 3.2165400000000002 11.1922999999999995 6.9539299999999997 C
  atom 4.2909300000000004 8.2072800000000008 0.4335090000000000 C
  atom -3.7553299999999998 7.4936100000000003 6.7548899999999996 C
  atom 2.9935399999999999 10.2416000000000000 0.8522070000000000 C
  atom 7.0553400000000002 10.3665000000000003 0.5125630000000000 C
  atom 0.3579540000000000 7.4867299999999997 6.5545900000000001 C
  atom -3.3451499999999998 7.1231499999999999 5.5016100000000003 C
  atom 2.7233999999999998 9.7896099999999997 2.1290800000000001 C
  atom 6.6688799999999997 10.7401999999999997 1.7627100000000000 C
  atom 0.6053890000000000 7.7654600000000000 5.2161999999999997 C
  atom -1.1048000000000000 6.4229200000000004 3.3299500000000002 H
  atom 0.3546320000000000 9.2473899999999993 3.6540100000000000 H
  atom 4.4637399999999996 11.5366000000000000 3.8007300000000002 H
  atom 2.9695700000000000 8.1943599999999996 3.5790500000000001 H
  atom 0.1580870000000000 8.0082400000000007 1.8083899999999999 H
  atom -0.9805350000000000 10.7766999999999999 4.9467400000000001 H
  atom 3.2250000000000001 9.8453599999999994 5.2386100000000004 H
  atom 4.3546600000000000 6.8021700000000003 2.0493000000000001 H
  atom -3.4605000000000001 8.4593500000000006 7.1451799999999999 H
  atom 2.6103800000000001 11.2378999999999998 0.5795780000000000 H
  atom 6.7848100000000002 9.3917300000000008 0.0899405000000000 H
  atom 0.7178870000000001 6.5379199999999997 7.0026700000000002 H
  atom -2.6836400000000000 7.7144100000000000 4.8544600000000004 H
  atom 2.0678899999999998 10.3957999999999995 2.7925300000000002 H
  atom 6.0420699999999998 10.1395999999999997 2.4492400000000001 H
  atom 1.1569199999999999 7.0875800000000000 4.5883900000000004 H
  atom -5.8276599999999998 6.2040899999999999 9.6123700000000003 C
  atom -4.9409500000000000 9.0539400000000008 12.0769000000000002 C
  atom -0.6813530000000000 11.6113999999999997 11.8855000000000004 C
  atom -1.6791499999999999 8.9008299999999991 9.3817500000000003 C
  atom -5.0237400000000001 7.0142499999999997 8.8239000000000001 C
  atom -5.6724600000000001 9.8907900000000009 12.8873999999999995 C
  atom -1.5536600000000000 10.8472000000000008 12.6504999999999992 C
  atom -0.8311910000000000 8.0659600000000005 8.6639599999999994 C
  atom -4.5907299999999998 6.6583199999999998 7.5312700000000001 C
  atom -5.9862900000000003 9.4812899999999996 14.2188999999999997 C
  atom -1.9147600000000000 11.2141999999999999 13.9623000000000008 C
  atom -0.4784940000000000 8.3397500000000004 7.3365799999999997 C
  atom -8.7925199999999997 7.5149499999999998 13.6376000000000008 C
  atom -1.7410399999999999 10.4900000000000002 7.5042999999999997 C
  atom 2.4091399999999998 10.3252000000000006 7.7244799999999998 C
  atom -4.6201400000000001 7.4289899999999998 13.8384000000000000 C
  atom -8.4474900000000002 7.1288000000000000 12.3483999999999998 C
  atom -2.1111399999999998 10.1013000000000002 8.7948900000000005 C
  atom 2.0583399999999998 10.6738999999999997 9.0263299999999997 C
  atom -4.3483999999999998 7.8795099999999998 12.5889000000000006 C
  atom -6.1477199999999996 6.5539100000000001 10.5756999999999994 H
  atom -4.7120199999999999 9.3296799999999998 11.0557999999999996 H
  atom -0.3545010000000000 11.2813999999999997 10.8649000000000004 H
  atom -2.0266999999999999 8.6478699999999993 10.3887999999999998 H
  atom -4.7012200000000002 7.9785399999999997 9.1808300000000003 H
  atom -6.0913199999999996 10.8691999999999993 12.5129999999999999 H
  atom -1.8808800000000001 9.8360900000000004 12.3094999999999999 H
  atom -0.4895030000000000 7.1284700000000001 9.1484400000000008 H
  atom -8.5089500000000005 8.5002999999999993 14.0314999999999994 H
  atom -2.0431300000000001 11.4564000000000004 7.1086200000000002 H
  atom 2.0147100000000000 9.3828999999999994 7.2977100000000004 H
  atom -4.2153600000000004 6.4699400000000002 14.1972000000000005 H
  atom -7.9399100000000002 7.8351499999999996 11.6997000000000000 H
  atom -2.7944100000000001 10.7545000000000002 9.3577399999999997 H
  atom 1.4252700000000000 9.9594000000000005 9.6087100000000003 H
  atom -3.7105700000000001 7.2731000000000003 11.9206000000000003 H
  
  -----------------------------------------------------------------------
  Completed first pass over input file geometry.in .
  -----------------------------------------------------------------------
  

  Basic array size parameters:
  | Number of species                 :        2
  | Number of atoms                   :      144
  | Number of lattice vectors         :        3
  | Max. basis fn. angular momentum   :        2
  | Max. atomic/ionic basis occupied n:        2
  | Max. number of basis fn. types    :        2
  | Max. radial fns per species/type  :        3
  | Max. logarithmic grid size        :     1277
  | Max. radial integration grid size :       34
  | Max. angular integration grid size:      302
  | Max. angular grid division number :        8
  | Radial grid for Hartree potential :     1277
  | Number of spin channels           :        1

------------------------------------------------------------
          Reading file control.in.
------------------------------------------------------------
  XC: Using Perdew-Wang parametrisation of Ceperley-Alder LDA.
  Spin treatment: No spin polarisation.
  Non-relativistic treatment of kinetic energy.
  Charge =   0.000000E+00: Neutral system requested explicitly.
  Found k-point grid:         2         1         1
  DFPT calculation will begin after the DFT/HF calculation.
  Charge density mixing - mixing parameter:     0.7500
  Forces will not be computed.
 
  Reading configuration options for species H                   .
  | Found nuclear charge :   1.0000
  | Found atomic mass :    1.00794000000000      amu
  | Found l_max for Hartree potential  :   4
  | Found cutoff potl. onset [A], width [A], scale factor :    3.50000    1.50000    1.00000
  | Threshold for basis-dependent cutoff potential is   0.100000E-03
  | Found data for basic radial integration grid :    24 points, outermost radius =    5.000 A
  | Found multiplier for basic radial grid :   1
  | Found angular grid specification: user-specified.
  | Specified grid contains     5 separate shells.
  | Check grid settings after all constraints further below.
  | Found free-atom valence shell :  1 s   1.000
  | No ionic wave fns used. Skipping ion_occ.
  | Found hydrogenic basis function :  2 s   2.100
  | Found hydrogenic basis function :  2 p   3.500
  Species H                   : Missing cutoff potential type.
  Defaulting to exp(1/x)/(1-x)^2 type cutoff potential.
  Species H : No 'logarithmic' tag. Using default grid for free atom:
  | Default logarithmic grid data [bohr] : 0.1000E-03 0.1000E+03 0.1012E+01
  Species H : On-site basis accuracy parameter (for Gram-Schmidt orthonormalisation) not specified.
  Using default value basis_acc =  0.1000000E-03.
  Species H                   : Using default innermost maximum threshold i_radial=  2 for radial functions.
  Species H                   : Default cutoff onset for free atom density etc. : 0.35000000E+01 AA.
  Species H                   : Basic radial grid will be enhanced according to radial_multiplier =   1, to contain    24 grid points.
 
  Reading configuration options for species C                   .
  | Found nuclear charge :   6.0000
  | Found atomic mass :    12.0107000000000      amu
  | Found l_max for Hartree potential  :   4
  | Found cutoff potl. onset [A], width [A], scale factor :    3.50000    1.50000    1.00000
  | Threshold for basis-dependent cutoff potential is   0.100000E-03
  | Found data for basic radial integration grid :    34 points, outermost radius =    5.000 A
  | Found multiplier for basic radial grid :   1
  | Found angular grid specification: user-specified.
  | Specified grid contains     5 separate shells.
  | Check grid settings after all constraints further below.
  | Found free-atom valence shell :  2 s   2.000
  | Found free-atom valence shell :  2 p   2.000
  | No ionic wave fns used. Skipping ion_occ.
  | No ionic wave fns used. Skipping ion_occ.
  | Found hydrogenic basis function :  2 p   1.700
  | Found hydrogenic basis function :  3 d   6.000
  | Found hydrogenic basis function :  2 s   4.900
  Species C                   : Missing cutoff potential type.
  Defaulting to exp(1/x)/(1-x)^2 type cutoff potential.
  Species C : No 'logarithmic' tag. Using default grid for free atom:
  | Default logarithmic grid data [bohr] : 0.1000E-03 0.1000E+03 0.1012E+01
  Species C : On-site basis accuracy parameter (for Gram-Schmidt orthonormalisation) not specified.
  Using default value basis_acc =  0.1000000E-03.
  Species C                   : Using default innermost maximum threshold i_radial=  2 for radial functions.
  Species C                   : Default cutoff onset for free atom density etc. : 0.35000000E+01 AA.
  Species C                   : Basic radial grid will be enhanced according to radial_multiplier =   1, to contain    34 grid points.
 
  Finished reading input file 'control.in'.
 
------------------------------------------------------------


------------------------------------------------------------
          Reading geometry description geometry.in.
------------------------------------------------------------
  | The smallest distance between any two atoms is         1.06603467 AA.
  | The first atom of this pair is atom number                     43 .
  | The second atom of this pair is atom number                    63 .
  | Wigner-Seitz cell of the first atom image           0     0     0 .
  | (The Wigner-Seitz cell of the second atom is 0 0 0  by definition.)

  Symmetry information by spglib:
  | Precision set to  0.1E-04
  | Number of Operations  : 1
  | Space group           : 1
  | International         : P1
  | Schoenflies           : C1^1
  Input structure read successfully.
  The structure contains      144 atoms,  and a total of        544.000 electrons.

  Input geometry:
  | Unit cell:
  |        8.10200000        0.00000000        0.00000000
  |        0.00000000       11.88000000        0.00000000
  |       -9.78509185        0.00000000       14.25711196
  | Atomic structure:
  |       Atom                x [A]            y [A]            z [A]
  |    1: Species C            -0.95800800        0.12917100        2.27897000
  |    2: Species C             0.28765300        2.98328000        4.93684000
  |    3: Species C             4.31510000        5.88414000        4.96479000
  |    4: Species C             3.21601000        2.57059000        2.33498000
  |    5: Species C            -0.15251300        0.97640000        1.51978000
  |    6: Species C            -0.51867700        3.82842000        5.66388000
  |    7: Species C             3.57576000        5.00471000        5.73873000
  |    8: Species C             4.01151000        1.86183000        1.46507000
  |    9: Species C             0.23824700        0.59115100        0.22958500
  |   10: Species C            -0.88549100        3.53751000        6.99228000
  |   11: Species C             3.10343000        5.37213000        7.01247000
  |   12: Species C             4.37082000        2.35881000        0.18982500
  |   13: Species C            -3.75580000        1.47899000        6.67661000
  |   14: Species C             3.10748000        4.38445000        0.72271600
  |   15: Species C             7.23162000        4.46244000        0.57663700
  |   16: Species C             0.33227500        1.44341000        6.76707000
  |   17: Species C            -3.44386000        1.11831000        5.38936000
  |   18: Species C             2.77631000        3.85720000        1.95046000
  |   19: Species C             6.90879000        4.87912000        1.87086000
  |   20: Species C             0.69628100        1.77036000        5.49890000
  |   21: Species H            -1.25182000        0.40864000        3.27390000
  |   22: Species H             0.54500700        3.22459000        3.89562000
  |   23: Species H             4.66778000        5.57849000        3.99767000
  |   24: Species H             3.00801000        2.13682000        3.31397000
  |   25: Species H             0.12019700        1.94603000        1.95642000
  |   26: Species H            -0.94240200        4.69537000        5.16338000
  |   27: Species H             3.29772000        4.03833000        5.34041000
  |   28: Species H             4.37491000        0.85914100        1.72046000
  |   29: Species H            -3.40724000        2.45544000        7.07117000
  |   30: Species H             2.77997000        5.37390000        0.44659400
  |   31: Species H             6.97308000        3.44136000        0.16703300
  |   32: Species H             0.62658700        0.48857700        7.20770000
  |   33: Species H            -2.72208000        1.77213000        4.84201000
  |   34: Species H             2.19640000        4.52603000        2.62965000
  |   35: Species H             6.35386000        4.18188000        2.53418000
  |   36: Species H             1.33353000        1.10366000        4.93519000
  |   37: Species C            -5.62536000        0.02239270        9.59353000
  |   38: Species C            -4.71402000        3.39004000       11.94180000
  |   39: Species C            -0.63926900        5.82074000       11.88610000
  |   40: Species C            -1.51528000        2.97260000        9.64734000
  |   41: Species C            -4.86174000        0.88731700        8.82367000
  |   42: Species C            -5.55229000        4.10815000       12.77580000
  |   43: Species C            -1.31789000        4.92266000       12.70040000
  |   44: Species C            -0.80143800        2.04807000        8.92259000
  |   45: Species C            -4.46393000        0.57199900        7.51403000
  |   46: Species C            -5.86928000        3.65073000       14.06140000
  |   47: Species C            -1.79916000        5.33454000       13.98450000
  |   48: Species C            -0.49108300        2.29483000        7.55708000
  |   49: Species C            -8.72085000        1.42536000       13.65600000
  |   50: Species C            -1.69964000        4.45006000        7.70988000
  |   51: Species C             2.34066000        4.51989000        7.84801000
  |   52: Species C            -4.53993000        1.64744000       13.58610000
  |   53: Species C            -8.34104000        0.97006000       12.42230000
  |   54: Species C            -2.00016000        4.18406000        9.03547000
  |   55: Species C             1.88370000        4.92601000        9.10213000
  |   56: Species C            -4.19001000        2.17110000       12.34220000
  |   57: Species H            -5.89832000        0.31726600       10.59450000
  |   58: Species H            -4.54594000        3.75718000       10.92140000
  |   59: Species H            -0.35242500        5.52018000       10.87010000
  |   60: Species H            -1.65406000        2.85116000       10.72330000
  |   61: Species H            -4.60504000        1.84315000        9.25891000
  |   62: Species H            -6.01402000        5.00360000       12.36100000
  |   63: Species H            -1.46995000        3.90862000       12.40880000
  |   64: Species H            -0.52425000        1.09840000        9.34979000
  |   65: Species H            -8.30454000        2.36727000       14.03330000
  |   66: Species H            -2.05166000        5.39309000        7.25598000
  |   67: Species H             2.07756000        3.50276000        7.53169000
  |   68: Species H            -4.14150000        0.69153500       13.85450000
  |   69: Species H            -7.65002000        1.60862000       11.88880000
  |   70: Species H            -2.56999000        4.91932000        9.60756000
  |   71: Species H             1.27492000        4.26036000        9.69685000
  |   72: Species H            -3.53022000        1.58613000       11.70150000
  |   73: Species C            -0.78353300        6.14065000        2.34220000
  |   74: Species C             0.13107000        8.98901000        4.68534000
  |   75: Species C             4.21212000       11.79440000        4.82067000
  |   76: Species C             3.22402000        8.54226000        2.58713000
  |   77: Species C            -0.11778200        7.01362000        1.51841000
  |   78: Species C            -0.59295900        9.89083000        5.43780000
  |   79: Species C             3.52527000       10.87150000        5.56806000
  |   80: Species C             3.99499000        7.76762000        1.76326000
  |   81: Species C             0.26978500        6.62643000        0.20768100
  |   82: Species C            -0.94216100        9.60816000        6.75431000
  |   83: Species C             3.21654000       11.19230000        6.95393000
  |   84: Species C             4.29093000        8.20728000        0.43350900
  |   85: Species C            -3.75533000        7.49361000        6.75489000
  |   86: Species C             2.99354000       10.24160000        0.85220700
  |   87: Species C             7.05534000       10.36650000        0.51256300
  |   88: Species C             0.35795400        7.48673000        6.55459000
  |   89: Species C            -3.34515000        7.12315000        5.50161000
  |   90: Species C             2.72340000        9.78961000        2.12908000
  |   91: Species C             6.66888000       10.74020000        1.76271000
  |   92: Species C             0.60538900        7.76546000        5.21620000
  |   93: Species H            -1.10480000        6.42292000        3.32995000
  |   94: Species H             0.35463200        9.24739000        3.65401000
  |   95: Species H             4.46374000       11.53660000        3.80073000
  |   96: Species H             2.96957000        8.19436000        3.57905000
  |   97: Species H             0.15808700        8.00824000        1.80839000
  |   98: Species H            -0.98053500       10.77670000        4.94674000
  |   99: Species H             3.22500000        9.84536000        5.23861000
  |  100: Species H             4.35466000        6.80217000        2.04930000
  |  101: Species H            -3.46050000        8.45935000        7.14518000
  |  102: Species H             2.61038000       11.23790000        0.57957800
  |  103: Species H             6.78481000        9.39173000        0.08994050
  |  104: Species H             0.71788700        6.53792000        7.00267000
  |  105: Species H            -2.68364000        7.71441000        4.85446000
  |  106: Species H             2.06789000       10.39580000        2.79253000
  |  107: Species H             6.04207000       10.13960000        2.44924000
  |  108: Species H             1.15692000        7.08758000        4.58839000
  |  109: Species C            -5.82766000        6.20409000        9.61237000
  |  110: Species C            -4.94095000        9.05394000       12.07690000
  |  111: Species C            -0.68135300       11.61140000       11.88550000
  |  112: Species C            -1.67915000        8.90083000        9.38175000
  |  113: Species C            -5.02374000        7.01425000        8.82390000
  |  114: Species C            -5.67246000        9.89079000       12.88740000
  |  115: Species C            -1.55366000       10.84720000       12.65050000
  |  116: Species C            -0.83119100        8.06596000        8.66396000
  |  117: Species C            -4.59073000        6.65832000        7.53127000
  |  118: Species C            -5.98629000        9.48129000       14.21890000
  |  119: Species C            -1.91476000       11.21420000       13.96230000
  |  120: Species C            -0.47849400        8.33975000        7.33658000
  |  121: Species C            -8.79252000        7.51495000       13.63760000
  |  122: Species C            -1.74104000       10.49000000        7.50430000
  |  123: Species C             2.40914000       10.32520000        7.72448000
  |  124: Species C            -4.62014000        7.42899000       13.83840000
  |  125: Species C            -8.44749000        7.12880000       12.34840000
  |  126: Species C            -2.11114000       10.10130000        8.79489000
  |  127: Species C             2.05834000       10.67390000        9.02633000
  |  128: Species C            -4.34840000        7.87951000       12.58890000
  |  129: Species H            -6.14772000        6.55391000       10.57570000
  |  130: Species H            -4.71202000        9.32968000       11.05580000
  |  131: Species H            -0.35450100       11.28140000       10.86490000
  |  132: Species H            -2.02670000        8.64787000       10.38880000
  |  133: Species H            -4.70122000        7.97854000        9.18083000
  |  134: Species H            -6.09132000       10.86920000       12.51300000
  |  135: Species H            -1.88088000        9.83609000       12.30950000
  |  136: Species H            -0.48950300        7.12847000        9.14844000
  |  137: Species H            -8.50895000        8.50030000       14.03150000
  |  138: Species H            -2.04313000       11.45640000        7.10862000
  |  139: Species H             2.01471000        9.38290000        7.29771000
  |  140: Species H            -4.21536000        6.46994000       14.19720000
  |  141: Species H            -7.93991000        7.83515000       11.69970000
  |  142: Species H            -2.79441000       10.75450000        9.35774000
  |  143: Species H             1.42527000        9.95940000        9.60871000
  |  144: Species H            -3.71057000        7.27310000       11.92060000

  Lattice parameters for 3D lattice (in Angstroms) :     8.102000   11.880000   17.292000
  Angle(s) between unit vectors (in degrees)       :    90.000000  124.463000   90.000000


  Quantities derived from the lattice vectors (in Angstrom^-1):
  | Reciprocal lattice vector 1:  0.775510  0.000000  0.532257
  | Reciprocal lattice vector 2:  0.000000  0.528888  0.000000
  | Reciprocal lattice vector 3: -0.000000  0.000000  0.440705
  | Unit cell volume                               :   0.137227E+04  Angstrom^3

  Fractional coordinates:
                         L1                L2                L3
       atom_frac         0.07481101        0.01087298        0.15984794  C
       atom_frac         0.45370985        0.25111785        0.34627209  C
       atom_frac         0.95317047        0.49529798        0.34823252  C
       atom_frac         0.59473934        0.21637963        0.16377651  C
       atom_frac         0.10991835        0.08218855        0.10659803  C
       atom_frac         0.41577598        0.32225758        0.39726699  C
       atom_frac         0.92747789        0.42127189        0.40251700  C
       atom_frac         0.61923381        0.15671970        0.10276064  C
       atom_frac         0.04885438        0.04976019        0.01610319  C
       atom_frac         0.48303191        0.29777020        0.49044154  C
       atom_frac         0.97708005        0.45219949        0.49185768  C
       atom_frac         0.55555452        0.19855303        0.01331441  C
       atom_frac         0.10201945        0.12449411        0.46830031  C
       atom_frac         0.44476698        0.36906145        0.05069161  C
       atom_frac         0.94141985        0.37562626        0.04044557  C
       atom_frac         0.61425846        0.12149916        0.47464522  C
       atom_frac         0.03147649        0.09413384        0.37801204  C
       atom_frac         0.50789562        0.32468013        0.13680611  C
       atom_frac         1.01120938        0.41070034        0.13122293  C
       atom_frac         0.55175811        0.14902020        0.38569522  C
       atom_frac         0.12282864        0.03439731        0.22963276  H
       atom_frac         0.39727106        0.27143013        0.27324047  H
       atom_frac         0.91477452        0.46956987        0.28039830  H
       atom_frac         0.65199814        0.17986700        0.23244329  H
       atom_frac         0.18056626        0.16380724        0.13722415  H
       atom_frac         0.32107919        0.39523316        0.36216171  H
       atom_frac         0.85941825        0.33992677        0.37457867  H
       atom_frac         0.68572134        0.07231827        0.12067381  H
       atom_frac         0.17846460        0.20668687        0.49597492  H
       atom_frac         0.38095299        0.45234848        0.03132430  H
       atom_frac         0.87481114        0.28967677        0.01171577  H
       atom_frac         0.68791063        0.04112601        0.50555120  H
       atom_frac         0.07419643        0.14916919        0.33962068  H
       atom_frac         0.49385450        0.38097896        0.18444479  H
       atom_frac         0.99890709        0.35201010        0.17774848  H
       atom_frac         0.58265882        0.09290067        0.34615636  H
       atom_frac         0.11836250        0.00188491        0.67289434  C
       atom_frac         0.42977073        0.28535690        0.83760302  C
       atom_frac         0.92798381        0.48996128        0.83369620  C
       atom_frac         0.63021284        0.25021886        0.67666860  C
       atom_frac         0.14739749        0.07468998        0.61889603  C
       atom_frac         0.39695534        0.34580387        0.89610014  C
       atom_frac         0.91320450        0.41436532        0.89081155  C
       atom_frac         0.65692524        0.17239646        0.62583432  C
       atom_frac         0.08555647        0.04814806        0.52703731  C
       atom_frac         0.46673522        0.30730051        0.98627268  C
       atom_frac         0.96258083        0.44903535        0.98087888  C
       atom_frac         0.57955715        0.19316751        0.53005686  C
       atom_frac         0.08043450        0.11997980        0.95783775  C
       atom_frac         0.44333330        0.37458418        0.54077432  C
       atom_frac         0.95371380        0.38046212        0.55046282  C
       atom_frac         0.59054873        0.13867340        0.95293493  C
       atom_frac         0.02280478        0.08165488        0.87130550  C
       atom_frac         0.51853361        0.35219360        0.63375177  C
       atom_frac         1.00355099        0.41464731        0.63842734  C
       atom_frac         0.52836574        0.18275253        0.86568725  C
       atom_frac         0.16946547        0.02670589        0.74310281  H
       atom_frac         0.36407686        0.31626094        0.76603172  H
       atom_frac         0.87732128        0.46466162        0.76243352  H
       atom_frac         0.70422965        0.23999663        0.75213690  H
       atom_frac         0.21595076        0.15514731        0.64942395  H
       atom_frac         0.30482748        0.42117845        0.86700589  H
       atom_frac         0.86973449        0.32900842        0.87035860  H
       atom_frac         0.72732618        0.09245791        0.65579831  H
       atom_frac         0.16377967        0.19926515        0.98430173  H
       atom_frac         0.36143433        0.45396380        0.50893758  H
       atom_frac         0.89444447        0.29484512        0.52827599  H
       atom_frac         0.66246198        0.05821002        0.97176062  H
       atom_frac         0.06290137        0.13540572        0.83388557  H
       atom_frac         0.49666406        0.41408418        0.67387841  H
       atom_frac         0.97879099        0.35861616        0.68014125  H
       atom_frac         0.55552669        0.13351263        0.82074827  H
       atom_frac         0.10170211        0.51688973        0.16428292  C
       atom_frac         0.41307851        0.75665067        0.32863177  C
       atom_frac         0.92825145        0.99279461        0.33812388  C
       atom_frac         0.61708793        0.71904545        0.18146242  C
       atom_frac         0.11408902        0.59037205        0.10650193  C
       atom_frac         0.38745611        0.83256145        0.38140964  C
       atom_frac         0.90678843        0.91510943        0.39054614  C
       atom_frac         0.64245486        0.65384007        0.12367582  C
       atom_frac         0.05089149        0.55778030        0.01456684  C
       atom_frac         0.45587861        0.80876768        0.47375022  C
       atom_frac         0.98608180        0.94211279        0.48775166  C
       atom_frac         0.56633677        0.69084848        0.03040651  C
       atom_frac         0.10870866        0.63077525        0.47379091  C
       atom_frac         0.44167313        0.86208754        0.05977417  C
       atom_frac         0.91423447        0.87260101        0.03595139  C
       atom_frac         0.59942848        0.63019613        0.45974178  C
       atom_frac         0.05316874        0.59959175        0.38588531  C
       atom_frac         0.51649626        0.82404125        0.14933459  C
       atom_frac         0.97243665        0.90405724        0.12363724  C
       atom_frac         0.51659177        0.65365825        0.36586652  C
       atom_frac         0.14572285        0.54064983        0.23356413  H
       atom_frac         0.35330669        0.77839983        0.25629384  H
       atom_frac         0.87290758        0.97109428        0.26658485  H
       atom_frac         0.66970889        0.68976094        0.25103612  H
       atom_frac         0.17270308        0.67409428        0.12684126  H
       atom_frac         0.29802072        0.90712963        0.34696648  H
       atom_frac         0.84181908        0.82873401        0.36743837  H
       atom_frac         0.71107841        0.57257323        0.14373879  H
       atom_frac         0.17816039        0.71206650        0.50116602  H
       atom_frac         0.37128636        0.94595118        0.04065185  H
       atom_frac         0.84504307        0.79054966        0.00630847  H
       atom_frac         0.68181110        0.55032997        0.49117030  H
       atom_frac         0.07999560        0.64936111        0.34049392  H
       atom_frac         0.49179076        0.87506734        0.19586926  H
       atom_frac         0.95322862        0.85350168        0.17179075  H
       atom_frac         0.53148264        0.59659764        0.32183166  H
       atom_frac         0.09498931        0.52222980        0.67421579  C
       atom_frac         0.41320609        0.76211616        0.84707899  C
       atom_frac         0.92273871        0.97739057        0.83365411  C
       atom_frac         0.58748851        0.74922811        0.65804000  C
       atom_frac         0.12742192        0.59042508        0.61891216  C
       atom_frac         0.39157697        0.83255808        0.90392781  C
       atom_frac         0.87987718        0.91306397        0.88731154  C
       atom_frac         0.63134407        0.67895286        0.60769390  C
       atom_frac         0.07136644        0.56046465        0.52824654  C
       atom_frac         0.46563513        0.79808838        0.99731980  C
       atom_frac         0.94643216        0.94395623        0.97932176  C
       atom_frac         0.56243214        0.70199916        0.51459089  C
       atom_frac         0.07002985        0.63257155        0.95654716  C
       atom_frac         0.42080851        0.88299663        0.52635485  C
       atom_frac         0.95170165        0.86912458        0.54179837  C
       atom_frac         0.60202136        0.62533586        0.97063136  C
       atom_frac         0.00340588        0.60006734        0.86612212  C
       atom_frac         0.48445593        0.85027778        0.61687739  C
       atom_frac         1.01868505        0.89847643        0.63311069  C
       atom_frac         0.52971451        0.66325842        0.88299089  C
       atom_frac         0.13709038        0.55167593        0.74178417  H
       atom_frac         0.35496341        0.78532660        0.77545859  H
       atom_frac         0.87662454        0.94961279        0.76206879  H
       atom_frac         0.62990016        0.72793519        0.72867493  H
       atom_frac         0.19746536        0.67159428        0.64394739  H
       atom_frac         0.30816274        0.91491582        0.87766723  H
       atom_frac         0.81060309        0.82795370        0.86339365  H
       atom_frac         0.71455827        0.60003956        0.64167554  H
       atom_frac         0.13839761        0.71551347        0.98417548  H
       atom_frac         0.35000410        0.96434343        0.49860168  H
       atom_frac         0.86686639        0.78980640        0.51186454  H
       atom_frac         0.68237626        0.54460774        0.99579775  H
       atom_frac         0.01110242        0.65952441        0.82062202  H
       atom_frac         0.44780216        0.90526094        0.65635593  H
       atom_frac         0.98988169        0.83833333        0.67395908  H
       atom_frac         0.55182699        0.61221380        0.83611604  H

 
  Finished reading input file 'geometry.in'.
 

 
  Consistency checks for stacksize environment parameter are next.
 
  | Maximum stacksize for task 0: unlimited
  | Maximum stacksize for task 1: unlimited
  | Maximum stacksize for task 2: unlimited
  | Maximum stacksize for task 3: unlimited
  | Maximum stacksize for task 4: unlimited
  | Maximum stacksize for task 5: unlimited
  | Maximum stacksize for task 6: unlimited
  | Maximum stacksize for task 7: unlimited
  | Maximum stacksize for task 8: unlimited
  | Maximum stacksize for task 9: unlimited
  | Maximum stacksize for task 10: unlimited
  | Maximum stacksize for task 11: unlimited
  | Maximum stacksize for task 12: unlimited
  | Maximum stacksize for task 13: unlimited
  | Maximum stacksize for task 14: unlimited
  | Maximum stacksize for task 15: unlimited
  | Maximum stacksize for task 16: unlimited
  | Maximum stacksize for task 17: unlimited
  | Current stacksize for task 0: unlimited
  | Current stacksize for task 1: unlimited
  | Current stacksize for task 2: unlimited
  | Current stacksize for task 3: unlimited
  | Current stacksize for task 4: unlimited
  | Current stacksize for task 5: unlimited
  | Current stacksize for task 6: unlimited
  | Current stacksize for task 7: unlimited
  | Current stacksize for task 8: unlimited
  | Current stacksize for task 9: unlimited
  | Current stacksize for task 10: unlimited
  | Current stacksize for task 11: unlimited
  | Current stacksize for task 12: unlimited
  | Current stacksize for task 13: unlimited
  | Current stacksize for task 14: unlimited
  | Current stacksize for task 15: unlimited
  | Current stacksize for task 16: unlimited
  | Current stacksize for task 17: unlimited
 
  Consistency checks for the contents of control.in are next.
 
  MPI_IN_PLACE appears to work with this MPI implementation.
  | Keeping use_mpi_in_place .true. (see manual).
  Explicit treatment of the Coulomb operator is needed, but the RI method is not specified.
  Coulomb operator: Defaulting to 'LVL fast' resolution of identity - RI_type = LVL_fast
  Species H: Using default value for prodbas_acc =   1.000000E-06.
  Species H: Using default value max_l_prodbas =     6.
  Species C: Using default value for prodbas_acc =   1.000000E-06.
  Species C: Using default value max_l_prodbas =     6.
  Target number of points in a grid batch is not set.  Since GPU acceleration is enabled, defaulting to  200
  Method for grid partitioning is not set. Defaulting to parallel hash+maxmin partitioning.
  Batch size limit is not set. Defaulting to    200
  By default, will store active basis functions for each batch.
  If in need of memory, prune_basis_once .false. can be used to disable this option.
  communication_type for Hartree potential was not specified.
  Defaulting to calc_hartree .
  Defaulting to Pulay charge density mixer.
  Pulay mixer: Number of relevant iterations not set.
  Defaulting to    8 iterations.
  Pulay mixer: Number of initial linear mixing iterations not set.
  Defaulting to    0 iterations.
  Work space size for distributed Hartree potential not set.
  Defaulting to   0.200000E+03 MB.
  Algorithm-dependent basis array size parameters:
  | n_max_pulay                         :        8
  Maximum number of self-consistency iterations not provided.
  Presetting  1000 iterations.
  Presetting      1001 iterations before the initial mixing cycle
  is restarted anyway using the sc_init_iter criterion / keyword.
  Presetting a factor      1.000 between actual scf density residual
  and density convergence criterion sc_accuracy_rho below which sc_init_iter
  takes no effect.
 * No s.c.f. convergence criteria (sc_accuracy_*) were provided in control.in.
 * The run will proceed with a reasonable default guess, but please check whether.
 * the s.c.f. cycles seem to take too much or too little time.
  Geometry relaxation not requested: no relaxation will be performed.
 * Notice: The s.c.f. convergence criterion sc_accuracy_rho was not provided.
 * We used to stop in this case, and ask the user to provide reasonable
 * scf convergence criteria. However, this led some users to employ criteria
 * that led to extremely long run times, e.g., for simple relaxation.
 * We now preset a default value for sc_accuracy_rho if it is not set.
 * You may still wish to check if this setting is too tight or too loose for your needs.
 * Based on n_atoms and forces and force-correction status, FHI-aims chose sc_accuracy_rho =  0.391918E-04 .
  No accuracy limit for integral partition fn. given. Defaulting to  0.1000E-14.
  No threshold value for u(r) in integrations given. Defaulting to  0.1000E-05.
  No occupation type (smearing scheme) given. Defaulting to Gaussian broadening, width =  0.1000E-01 eV.
  The width will be adjusted in iteration number     2 of the first full s.c.f. cycle only.
  S.C.F. convergence parameters will be adjusted in iteration number     2 of the first full s.c.f. cycle only.
  No accuracy for occupation numbers given. Defaulting to  0.1000E-12.
  No threshold value for occupation numbers given. Defaulting to  0.0000E+00.
  No accuracy for fermi level given. Defaulting to  0.1000E-19.
  Maximum # of iterations to find E_F not set. Defaulting to  200.
  Preferred method for the eigenvalue solver ('KS_method') not specified in 'control.in'.
  Calling BLACS routine to test compilation state
  Since ScaLAPACK support is enabled, defaulting to ELPA (via ELSI).
  Will not use alltoall communication since running on < 1024 CPUs.
  Threshold for basis singularities not set.
  Default threshold for basis singularities:  0.1000E-04
  partition_type (choice of integration weights) for integrals was not specified.
  | Using a version of the partition function of Stratmann and coworkers ('stratmann_sparse').
  | At each grid point, the set of atoms used to build the partition table is smoothly restricted to
  | only those atoms whose free-atom density would be non-zero at that grid point.
  Partitioning for Hartree potential was not defined. Using partition_type for integrals.
  | Adjusted default value of keyword multip_moments_threshold to:       0.10000000E-11
  | This value may affect high angular momentum components of the Hartree potential in periodic systems.
  Angular momentum expansion for Kerker preconditioner not set explicitly.
  | Using default value of   0
  No explicit requirement for turning off preconditioner.
  | By default, it will be turned off when the charge convergence reaches
  | sc_accuracy_rho  =   0.391918E-04
  No special mixing parameter while Kerker preconditioner is on.
  Using default: charge_mix_param =     0.7500.
  Threshold for auxiliary basis singularities not set.
  Default threshold for auxiliary basis singularities:  0.1000E-04
  No q(lm)/r^(l+1) cutoff set for long-range Hartree potential.
  | Using default value of  0.100000E-09 .
  | Verify using the multipole_threshold keyword.
  Defaulting to new monopole extrapolation.
  Density update method: automatic selection selected.
  Using density matrix based charge density update.
  Using density matrix based charge density update.
  Using packed matrix style: index .
  Defaulting to use time-reversal symmetry for k-point grid.
  Charge integration errors on the 3D integration grid will be compensated
  by explicit normalization and distribution of residual charges.
  Use the "compensate_multipole_errors" flag to change this behaviour.
  Default to 1D ("use_logsbt") integrations for auxiliary 2-center integrals.
  Default onset of logarithmic r-grid for SBT is -38.000000000000
  Default onset of logarithmic k-grid for SBT is -25.000000000000
  Default range of logarithmic r- and k-grid for SBT is  45.000000000000
  Default number of logarithmic r- and k-grid for SBT is   4096
  Default of use_2d_corr is to use the efficient 2D distribution where possible
 
  Consistency checks for the contents of geometry.in are next.
 

  Range separation radius for Ewald summation (hartree_convergence_parameter):      2.91768261 bohr.
  Number of empty states per atom not set in control.in .
  | Since you are using a method that relies on the unoccupied spectrum
  | (MP2,GW,RPA et al.), will use the full Hamiltonian size (see below)
  | as the max. possible number of states (occupied plus empty).

  Structure-dependent array size parameters: 
  | Maximum number of distinct radial functions  :        9
  | Maximum number of basis functions            :     1440
  | Number of Kohn-Sham states (occupied + empty):     1440
------------------------------------------------------------
CUDA runtime version: 11060
CUDA driver version: 11060
  Initializing GPUs...

  Number of GPUs available to MPI task         0 :   1
  Number of GPUs available to MPI task         1 :   1
  Number of GPUs available to MPI task         2 :   1
  Number of GPUs available to MPI task         3 :   1
  Number of GPUs available to MPI task         4 :   1
  Number of GPUs available to MPI task         5 :   1
  Number of GPUs available to MPI task         6 :   1
  Number of GPUs available to MPI task         7 :   1
  Number of GPUs available to MPI task         8 :   1
  Number of GPUs available to MPI task         9 :   1
  Number of GPUs available to MPI task        10 :   1
  Number of GPUs available to MPI task        11 :   1
  Number of GPUs available to MPI task        12 :   1
  Number of GPUs available to MPI task        13 :   1
  Number of GPUs available to MPI task        14 :   1
  Number of GPUs available to MPI task        15 :   1
  Number of GPUs available to MPI task        16 :   1
  Number of GPUs available to MPI task        17 :   1

  | MPI task         0, GPU activated = T, Device Name = NVIDIA A100-SXM4-80GB
  | MPI task         1, GPU activated = T, Device Name = NVIDIA A100-SXM4-80GB
  | MPI task         2, GPU activated = T, Device Name = NVIDIA A100-SXM4-80GB
  | MPI task         3, GPU activated = T, Device Name = NVIDIA A100-SXM4-80GB
  | MPI task         4, GPU activated = T, Device Name = NVIDIA A100-SXM4-80GB
  | MPI task         5, GPU activated = T, Device Name = NVIDIA A100-SXM4-80GB
  | MPI task         6, GPU activated = T, Device Name = NVIDIA A100-SXM4-80GB
  | MPI task         7, GPU activated = T, Device Name = NVIDIA A100-SXM4-80GB
  | MPI task         8, GPU activated = T, Device Name = NVIDIA A100-SXM4-80GB
  | MPI task         9, GPU activated = T, Device Name = NVIDIA A100-SXM4-80GB
  | MPI task        10, GPU activated = T, Device Name = NVIDIA A100-SXM4-80GB
  | MPI task        11, GPU activated = T, Device Name = NVIDIA A100-SXM4-80GB
  | MPI task        12, GPU activated = T, Device Name = NVIDIA A100-SXM4-80GB
  | MPI task        13, GPU activated = T, Device Name = NVIDIA A100-SXM4-80GB
  | MPI task        14, GPU activated = T, Device Name = NVIDIA A100-SXM4-80GB
  | MPI task        15, GPU activated = T, Device Name = NVIDIA A100-SXM4-80GB
  | MPI task        16, GPU activated = T, Device Name = NVIDIA A100-SXM4-80GB
  | MPI task        17, GPU activated = T, Device Name = NVIDIA A100-SXM4-80GB

------------------------------------------------------------
          Preparing all fixed parts of the calculation.
------------------------------------------------------------
  Determining machine precision:
    2.225073858507201E-308
  Setting up grids for atomic and cluster calculations.

  Creating wave function, potential, and density for free atoms.
  Runtime choices for atomic solver:
  | atomic solver xc        : PW-LDA
  | compute density gradient: 0
  | compute kinetic density : F

  Species: H

  List of occupied orbitals and eigenvalues:
    n    l              occ      energy [Ha]    energy [eV]
    1    0           1.0000        -0.232375        -6.3233


  Species: C

  List of occupied orbitals and eigenvalues:
    n    l              occ      energy [Ha]    energy [eV]
    1    0           2.0000        -9.944615      -270.6068
    2    0           2.0000        -0.498807       -13.5732
    2    1           2.0000        -0.196968        -5.3598


  Adding cutoff potential to free-atom effective potential.
  Creating fixed part of basis set: Ionic, confined, hydrogenic.
 
  H                    hydrogenic:
 
  List of hydrogenic basis orbitals: 
    n    l      effective z      eigenvalue [eV]  inner max. [A]     outer max. [A]     outer radius [A]   
    2    0         2.100000       -14.9728           0.193243           1.317208           4.583499
    2    1         3.500000       -41.6669           0.602369           0.602369           3.723403
 
 
  C                    hydrogenic:
 
  List of hydrogenic basis orbitals: 
    n    l      effective z      eigenvalue [eV]  inner max. [A]     outer max. [A]     outer radius [A]   
    2    1         1.700000        -9.7616           1.230570           1.230570           4.607917
    3    2         6.000000       -54.4224           0.792453           0.792453           3.883070
    2    0         4.900000       -81.6679           0.082559           0.562749           3.078220
 
  Creating atomic-like basis functions for current effective potential.

  Species H                   :

  List of atomic basis orbitals and eigenvalues:
    n    l      energy [Ha]    energy [eV]    outer radius [A]
    1    0        -0.232375        -6.3233       4.527807


  Species C                   :

  List of atomic basis orbitals and eigenvalues:
    n    l      energy [Ha]    energy [eV]    outer radius [A]
    1    0        -9.944615      -270.6068       1.934409
    2    0        -0.498807       -13.5732       4.496620
    2    1        -0.196968        -5.3598       4.551928

  Assembling full basis from fixed parts.
  | Species H :   atomic orbital   1 s accepted.
  | Species H :    hydro orbital   2 s accepted.
  | Species H :    hydro orbital   2 p accepted.
  | Species C :   atomic orbital   1 s accepted.
  | Species C :    hydro orbital   2 s accepted.
  | Species C :   atomic orbital   2 s accepted.
  | Species C :   atomic orbital   2 p accepted.
  | Species C :    hydro orbital   2 p accepted.
  | Species C :    hydro orbital   3 d accepted.
 
  Basis size parameters after reduction:
  | Total number of radial functions:        9
  | Total number of basis functions :     1440
 
  Per-task memory consumption for arrays in subroutine allocate_ext:
  |           2.242384MB.
  Testing on-site integration grid accuracy.
  |  Species  Function  <phi|h_atom|phi> (log., in eV)  <phi|h_atom|phi> (rad., in eV)
           1        1                 -6.3245358373                 -6.3232436907
           1        2                 14.1326137532                 14.1384481100
           1        3                 25.3627025200                 25.3628451197
           2        4               -270.6067544938               -270.6067222788
           2        5                -10.5634280949                -10.5635685736
           2        6                 16.2089822398                 16.2052121796
           2        7                 -5.3613872565                 -5.3627872378
           2        8                  8.5292058327                  8.5051734780
           2        9                 27.4884461005                 27.4884542459

  Preparing densities etc. for the partition functions (integrals / Hartree potential).

  Preparations completed.
  max(cpu_time)          :      0.073 s.
  Wall clock time (cpu1) :      0.065 s.
------------------------------------------------------------

  Initializing index lists of integration centers etc. from given atomic structure:
  Mapping all atomic coordinates to central unit cell.

  Initializing the k-points
  Using symmetry for reducing the k-points
  | k-points reduced from:        2 to        2
  | Number of k-points                             :         2
  | Consuming          0 KiB for k_phase_exx.
  The eigenvectors in the calculations are REAL.
  | Number of basis functions in the Hamiltonian integrals :      8041
  | Number of basis functions in a single unit cell        :      1440
  | Number of centers in hartree potential         :      3328
  | Number of centers in hartree multipole         :      2544
  | Number of centers in electron density summation:      1989
  | Number of centers in basis integrals           :      2117
  | Number of centers in integrals                 :       963
  | Number of centers in hamiltonian               :      1999
  | Consuming          1 KiB for k_phase.
  | Number of super-cells (origin) [n_cells]                     :         175
  | Number of super-cells (after PM_index) [n_cells]             :          40
  | Number of super-cells in hamiltonian [n_cells_in_hamiltonian]:          40
  | Size of matrix packed + index [n_hamiltonian_matrix_size] :     1929414
  | Size of matrix packed + index (no_symmetry):     3856011

------------------------------------------------------------
          Begin self-consistency loop: Initialization.

          Date     :  20230119, Time     :  211012.155
------------------------------------------------------------
  | Estimated reciprocal-space cutoff momentum G_max:         3.24344278 bohr^-1 .
  | Reciprocal lattice points for long-range Hartree potential:    5310
  Using simple linear distribution as default method for k-point parallelism.
  * Using 18 tasks for Scalapack Eigenvalue solver.
  Detailed listing of tasks and assigned k-points:
   Task     0 k-point     1 on adag003
   Task     1 k-point     1 on adag003
   Task     2 k-point     1 on adag003
   Task     3 k-point     1 on adag003
   Task     4 k-point     1 on adag003
   Task     5 k-point     1 on adag003
   Task     6 k-point     1 on adag003
   Task     7 k-point     1 on adag003
   Task     8 k-point     1 on adag003
   Task     9 k-point     2 on adag003
   Task    10 k-point     2 on adag003
   Task    11 k-point     2 on adag003
   Task    12 k-point     2 on adag003
   Task    13 k-point     2 on adag003
   Task    14 k-point     2 on adag003
   Task    15 k-point     2 on adag003
   Task    16 k-point     2 on adag003
   Task    17 k-point     2 on adag003
  K-point:     1 Tasks:     9 split into      3 X      3 BLACS grid
  Calculating block size based on n_basis =         1440  max_nprow =            3  max_npcol =            3
  ScaLAPACK block size set to:           16
  Allocating        1.758 MB for ovlp
  Allocating        1.758 MB for ham
  Allocating        1.758 MB for eigenvec
  Required Scalapack workspace - INTEGER:            1  REAL:             1
  Partitioning the integration grid into batches with parallel hashing+maxmin method.
  | Number of batches:     5365
  | Maximal batch size:     200
  | Minimal batch size:      99
  | Average batch size:     142.375
  | Standard deviation of batch sizes:      31.681

  Integration load balanced across    18 MPI tasks.
  Work distribution over tasks is as follows:
  Task     0 has      42392 integration points.
  Task     1 has      42410 integration points.
  Task     2 has      42497 integration points.
  Task     3 has      42544 integration points.
  Task     4 has      42444 integration points.
  Task     5 has      42345 integration points.
  Task     6 has      42360 integration points.
  Task     7 has      42429 integration points.
  Task     8 has      42467 integration points.
  Task     9 has      42528 integration points.
  Task    10 has      42388 integration points.
  Task    11 has      42356 integration points.
  Task    12 has      42409 integration points.
  Task    13 has      42427 integration points.
  Task    14 has      42445 integration points.
  Task    15 has      42526 integration points.
  Task    16 has      42438 integration points.
  Task    17 has      42435 integration points.
  Initializing partition tables, free-atom densities, potentials, etc. across the integration grid (initialize_grid_storage).
  | initialize_grid_storage: Actual outermost partition radius vs. multipole_radius_free
  | (-- VB: in principle, multipole_radius_free should be larger, hence this output)
  | Species        1: Confinement radius =              4.999999999999999 AA, multipole_radius_free =              5.054417573612229 AA.
  | Species        1: outer_partition_radius set to              5.054417573612229 AA .
  | Species        2: Confinement radius =              4.999999999999999 AA, multipole_radius_free =              5.019602836301480 AA.
  | Species        2: outer_partition_radius set to              5.019602836301480 AA .
  | The sparse table of interatomic distances needs       7609.80 kbyte instead of     35853.51 kbyte of memory.
  | Net number of integration points:   763840
  | of which are non-zero points    :   605389
  | Numerical average free-atom electrostatic potential    :     -8.61472507 eV
  Renormalizing the initial density to the exact electron count on the 3D integration grid.
  | Initial density: Formal number of electrons (from input files) :     544.0000000000
  | Integrated number of electrons on 3D grid     :     543.9996779507
  | Charge integration error                      :      -0.0003220493
  | Normalization factor for density and gradient :       1.0000005920
  Renormalizing the free-atom superposition density to the exact electron count on the 3D integration grid.
  | Formal number of electrons (from input files) :     544.0000000000
  | Integrated number of electrons on 3D grid     :     543.9996779507
  | Charge integration error                      :      -0.0003220493
  | Normalization factor for density and gradient :       1.0000005920
  Obtaining max. number of non-zero basis functions in each batch (get_n_compute_maxes).
  | Maximal number of non-zero basis functions:      548 in task     0
  | Maximal number of non-zero basis functions:      536 in task     1
  | Maximal number of non-zero basis functions:      537 in task     2
  | Maximal number of non-zero basis functions:      540 in task     3
  | Maximal number of non-zero basis functions:      537 in task     4
  | Maximal number of non-zero basis functions:      535 in task     5
  | Maximal number of non-zero basis functions:      553 in task     6
  | Maximal number of non-zero basis functions:      539 in task     7
  | Maximal number of non-zero basis functions:      541 in task     8
  | Maximal number of non-zero basis functions:      529 in task     9
  | Maximal number of non-zero basis functions:      543 in task    10
  | Maximal number of non-zero basis functions:      538 in task    11
  | Maximal number of non-zero basis functions:      540 in task    12
  | Maximal number of non-zero basis functions:      547 in task    13
  | Maximal number of non-zero basis functions:      535 in task    14
  | Maximal number of non-zero basis functions:      555 in task    15
  | Maximal number of non-zero basis functions:      550 in task    16
  | Maximal number of non-zero basis functions:      534 in task    17
  Integrating Hamiltonian matrix: batch-based integration.
  GPU acceleration will be used when integrating the Hamiltonian matrix.
  Reporting GPU memory usage by myid 0.  Note that it is likely not the only MPI task binding to its GPU!
  Allocating        2.402 MB on GPU for hamiltonian_shell
  Allocating        0.877 MB on GPU for wave
  Allocating        0.002 MB on GPU for partition
  Allocating        0.877 MB on GPU for h_times_psi
  Time summed over all CPUs for integration: real work       21.555 s, elapsed       22.108 s
  Deallocating memory used on GPU for Hamiltonian integration.
  Integrating overlap matrix.
  Time summed over all CPUs for integration: real work       19.458 s, elapsed       19.866 s
  Deallocating overlap matrix.

  Updating Kohn-Sham eigenvalues and eigenvectors using ELSI and the ELPA eigensolver.
  Singularity check in k-point 1 (analysis for other k-points may follow below):
  Overlap matrix is not singular
  | Lowest and highest eigenvalues :  0.7702E-03,  0.8276E+01
  Finished singularity check of overlap matrix
  | Time :     0.097 s
  Starting ELPA eigensolver
  Finished Cholesky decomposition
  | Time :     0.016 s
  Finished transformation to standard eigenproblem
  | Time :     0.021 s
  Finished solving standard eigenproblem
  | Time :     0.207 s
  Finished back-transformation of eigenvectors
  | Time :     0.015 s

  Obtaining occupation numbers and electronic chemical potential using ELSI.
  | Note that, for insulating systems, the printed 'chemical potential' value is not uniquely defined.
  | It can be anywhere in the energy gap, as long as it correctly separates occupied and unoccupied states.
  | In systems with a gap, the physically relevant chemical potential is the VBM or HOMO.

  | Chemical potential (Fermi level):    -7.42468680 eV
  Writing Kohn-Sham eigenvalues.
  K-point:       1 at    0.000000    0.000000    0.000000 (in units of recip. lattice)

  State    Occupation    Eigenvalue [Ha]    Eigenvalue [eV]
      1       2.00000         -10.072019         -274.07359
      2       2.00000         -10.069057         -273.99298
      3       2.00000         -10.068799         -273.98596
      4       2.00000         -10.068479         -273.97726
      5       2.00000         -10.067804         -273.95890
      6       2.00000         -10.067629         -273.95413
      7       2.00000         -10.067616         -273.95377
      8       2.00000         -10.067578         -273.95274
      9       2.00000         -10.067284         -273.94472
     10       2.00000         -10.067141         -273.94085
     11       2.00000         -10.067048         -273.93832
     12       2.00000         -10.066987         -273.93664
     13       2.00000         -10.066908         -273.93451
     14       2.00000         -10.066885         -273.93388
     15       2.00000         -10.066731         -273.92969
     16       2.00000         -10.066631         -273.92697
     17       2.00000         -10.066368         -273.91982
     18       2.00000         -10.066303         -273.91804
     19       2.00000         -10.066235         -273.91620
     20       2.00000         -10.066148         -273.91382
     21       2.00000         -10.066109         -273.91276
     22       2.00000         -10.065501         -273.89623
     23       2.00000         -10.065490         -273.89593
     24       2.00000         -10.065451         -273.89486
     25       2.00000         -10.065396         -273.89336
     26       2.00000         -10.065386         -273.89308
     27       2.00000         -10.065043         -273.88374
     28       2.00000         -10.064881         -273.87935
     29       2.00000         -10.064868         -273.87900
     30       2.00000         -10.064650         -273.87307
     31       2.00000         -10.064645         -273.87292
     32       2.00000         -10.064233         -273.86172
     33       2.00000         -10.064169         -273.85996
     34       2.00000         -10.064054         -273.85684
     35       2.00000         -10.063586         -273.84412
     36       2.00000         -10.063543         -273.84295
     37       2.00000         -10.063456         -273.84056
     38       2.00000         -10.063112         -273.83121
     39       2.00000         -10.063024         -273.82881
     40       2.00000         -10.062625         -273.81796
     41       2.00000         -10.062598         -273.81723
     42       2.00000         -10.062404         -273.81195
     43       2.00000         -10.062343         -273.81028
     44       2.00000         -10.062306         -273.80926
     45       2.00000         -10.062255         -273.80788
     46       2.00000         -10.062083         -273.80322
     47       2.00000         -10.061830         -273.79632
     48       2.00000         -10.061745         -273.79402
     49       2.00000         -10.061739         -273.79385
     50       2.00000         -10.061653         -273.79151
     51       2.00000         -10.061079         -273.77588
     52       2.00000         -10.061042         -273.77488
     53       2.00000         -10.060994         -273.77357
     54       2.00000         -10.060961         -273.77269
     55       2.00000         -10.060711         -273.76588
     56       2.00000         -10.060670         -273.76476
     57       2.00000         -10.060543         -273.76129
     58       2.00000         -10.060320         -273.75524
     59       2.00000         -10.060271         -273.75389
     60       2.00000         -10.060098         -273.74920
     61       2.00000         -10.059682         -273.73787
     62       2.00000         -10.059019         -273.71984
     63       2.00000         -10.058907         -273.71679
     64       2.00000         -10.058898         -273.71655
     65       2.00000         -10.058667         -273.71025
     66       2.00000         -10.058612         -273.70875
     67       2.00000         -10.058385         -273.70258
     68       2.00000         -10.058280         -273.69973
     69       2.00000         -10.058230         -273.69836
     70       2.00000         -10.057863         -273.68839
     71       2.00000         -10.057809         -273.68692
     72       2.00000         -10.057136         -273.66859
     73       2.00000         -10.057036         -273.66589
[...]
  |    H      2     3.678162 A  1.011968E+04 A            0.556529 a.u.
  |    H      1     3.958095 A  1.721251E+06 A            0.841931 a.u.
  |    H      0     4.527807 A  3.866455E+12 A            0.581436 a.u.
  |    C      0     2.562483 A      2.562483 A        6.563029E-17 a.u.
  |    C      0     2.967371 A      2.967371 A        1.352164E-16 a.u.
  |    C      0     3.003870 A      3.003870 A        2.312640E-17 a.u.
  |    C      1     3.272245 A      3.272245 A       -3.835259E-17 a.u.
  |    C      0     3.312494 A      3.312494 A       -2.710381E-16 a.u.
  |    C      3     4.077671 A      4.077671 A       -1.683752E-15 a.u.
  |    C      3     4.077671 A      4.077671 A        1.412852E-15 a.u.
  |    C      1     4.496620 A      4.496620 A       -3.011059E-16 a.u.
  |    C      0     4.496620 A      4.551928 A        2.873903E-17 a.u.
  |    C      2     4.551928 A      4.551928 A       -4.610785E-16 a.u.
  |    C      2     4.551928 A      4.551928 A        7.440584E-16 a.u.
  |    C      2     4.551928 A      4.551928 A       -7.110458E-16 a.u.
  |    C      2     4.551928 A      4.551928 A       -1.935424E-16 a.u.
  |    C      0     4.551928 A      4.607917 A        2.067142E-16 a.u.
  |    C      0     4.551928 A      4.607917 A       -1.109786E-16 a.u.
  |    C      1     4.551928 A      4.607917 A       -9.951742E-17 a.u.
  |    C      1     4.551928 A      4.607917 A        1.937809E-16 a.u.
  |    C      1     4.607917 A      4.607917 A       -2.813308E-16 a.u.
  |    C      1     4.607917 A      4.607917 A       -7.330363E-17 a.u.
  |    C      2     4.607917 A      4.607917 A        1.318462E-15 a.u.
  |    C      2     4.607917 A      4.607917 A       -1.318397E-15 a.u.
  |    C      0     4.607917 A      4.664595 A        3.157826E-16 a.u.
  |    C      1     4.607917 A      4.664595 A        7.356967E-16 a.u.
  |    C      4     3.835889 A  2.962973E+02 A            4.379483 a.u.
  |    C      3     4.127827 A  1.725964E+03 A            9.005588 a.u.
  |    C      2     4.607917 A  2.608475E+04 A            9.531178 a.u.
  |    C      1     4.607917 A  2.736013E+06 A            2.127278 a.u.
  |    C      0     4.607917 A  4.399765E+12 A            0.661635 a.u.

  | Shrink_full_auxil_basis : there are       36  radial auxiliary wave functions
                            accepted and       7 rejected.
  | Shrink_full_auxil_basis : there are totally                8992 partial auxiliary wave functions.
 
  | Maximal number of product basis functions per thread :   512   512
 
  | Minimal total memory requirement for three-center overlap :      72.476 Gbs
  | Number of local auxiliary basis functions on task:      0   512
  | Number of local auxiliary basis functions on task:      1   512
  | Number of local auxiliary basis functions on task:      2   512
  | Number of local auxiliary basis functions on task:      3   512
  | Number of local auxiliary basis functions on task:      4   496
  | Number of local auxiliary basis functions on task:      5   496
  | Number of local auxiliary basis functions on task:      6   496
  | Number of local auxiliary basis functions on task:      7   496
  | Number of local auxiliary basis functions on task:      8   496
  | Number of local auxiliary basis functions on task:      9   496
  | Number of local auxiliary basis functions on task:     10   496
  | Number of local auxiliary basis functions on task:     11   496
  | Number of local auxiliary basis functions on task:     12   496
  | Number of local auxiliary basis functions on task:     13   496
  | Number of local auxiliary basis functions on task:     14   496
  | Number of local auxiliary basis functions on task:     15   496
  | Number of local auxiliary basis functions on task:     16   496
  | Number of local auxiliary basis functions on task:     17   496
  | 2D aux task distribution:      3 X      6
  | 2D block size (nb_aux_2d):     64
 
  Basis pair condensation :   1037520  -->     545861
 
 --------------------------------------------
  Constructing auxiliary basis (full product) ...
 
  Product basis:
  | charge radius: extent of product basis function
  | field radius: extent of its Coulomb potential
  | Species   l  charge radius    field radius  multipol momen
  |    H      1     3.910002 A      3.910002 A       -2.487223E-16 a.u.
  |    H      1     3.958095 A      3.958095 A       -2.441841E-16 a.u.
  |    H      0     4.527807 A      4.527807 A        1.268855E-16 a.u.
  |    H      0     4.527807 A      4.583499 A       -4.900954E-17 a.u.
  |    H      0     4.527807 A      4.583499 A        4.713786E-16 a.u.
  |    H      2     3.678162 A  1.011968E+04 A            0.556529 a.u.
  |    H      1     3.958095 A  1.721251E+06 A            0.841931 a.u.
  |    H      0     4.527807 A  3.866455E+12 A            0.581436 a.u.
  |    C      0     2.562483 A      2.562483 A        6.563029E-17 a.u.
  |    C      0     2.967371 A      2.967371 A        1.352164E-16 a.u.
  |    C      0     3.003870 A      3.003870 A        2.312640E-17 a.u.
  |    C      1     3.272245 A      3.272245 A       -3.835259E-17 a.u.
  |    C      0     3.312494 A      3.312494 A       -2.710381E-16 a.u.
  |    C      3     4.077671 A      4.077671 A       -1.683752E-15 a.u.
  |    C      3     4.077671 A      4.077671 A        1.412852E-15 a.u.
  |    C      1     4.496620 A      4.496620 A       -3.011059E-16 a.u.
  |    C      0     4.496620 A      4.551928 A        2.873903E-17 a.u.
  |    C      2     4.551928 A      4.551928 A       -4.610785E-16 a.u.
  |    C      2     4.551928 A      4.551928 A        7.440584E-16 a.u.
  |    C      2     4.551928 A      4.551928 A       -7.110458E-16 a.u.
  |    C      2     4.551928 A      4.551928 A       -1.935424E-16 a.u.
  |    C      0     4.551928 A      4.607917 A        2.067142E-16 a.u.
  |    C      0     4.551928 A      4.607917 A       -1.109786E-16 a.u.
  |    C      1     4.551928 A      4.607917 A       -9.951742E-17 a.u.
  |    C      1     4.551928 A      4.607917 A        1.937809E-16 a.u.
  |    C      1     4.607917 A      4.607917 A       -2.813308E-16 a.u.
  |    C      1     4.607917 A      4.607917 A       -7.330363E-17 a.u.
  |    C      2     4.607917 A      4.607917 A        1.318462E-15 a.u.
  |    C      2     4.607917 A      4.607917 A       -1.318397E-15 a.u.
  |    C      0     4.607917 A      4.664595 A        3.157826E-16 a.u.
  |    C      1     4.607917 A      4.664595 A        7.356967E-16 a.u.
  |    C      4     3.835889 A  2.962973E+02 A            4.379483 a.u.
  |    C      3     4.127827 A  1.725964E+03 A            9.005588 a.u.
  |    C      2     4.607917 A  2.608475E+04 A            9.531178 a.u.
  |    C      1     4.607917 A  2.736013E+06 A            2.127278 a.u.
  |    C      0     4.607917 A  4.399765E+12 A            0.661635 a.u.

  | Shrink_full_auxil_basis : there are       36  radial auxiliary wave functions
                            accepted and       7 rejected.
  | Shrink_full_auxil_basis : there are totally                8992 partial auxiliary wave functions.
 
  | Maximal number of product basis functions per thread :   512   512
 
  | Minimal total memory requirement for three-center overlap :      72.476 Gbs
  | Number of local auxiliary basis functions on task:      0   512
  | Number of local auxiliary basis functions on task:      1   512
  | Number of local auxiliary basis functions on task:      2   512
  | Number of local auxiliary basis functions on task:      3   512
  | Number of local auxiliary basis functions on task:      4   496
  | Number of local auxiliary basis functions on task:      5   496
  | Number of local auxiliary basis functions on task:      6   496
  | Number of local auxiliary basis functions on task:      7   496
  | Number of local auxiliary basis functions on task:      8   496
  | Number of local auxiliary basis functions on task:      9   496
  | Number of local auxiliary basis functions on task:     10   496
  | Number of local auxiliary basis functions on task:     11   496
  | Number of local auxiliary basis functions on task:     12   496
  | Number of local auxiliary basis functions on task:     13   496
  | Number of local auxiliary basis functions on task:     14   496
  | Number of local auxiliary basis functions on task:     15   496
  | Number of local auxiliary basis functions on task:     16   496
  | Number of local auxiliary basis functions on task:     17   496
  | 2D aux task distribution:      3 X      6
  | 2D block size (nb_aux_2d):     64
 
  Basis pair condensation :   1037520  -->     545861
  Allocating        0.069 MB for t_coeff
  Allocating        0.034 MB for basbas_idx
  Allocating        0.069 MB for wave
  Allocating        0.069 MB for total_wave
  Allocating        0.206 MB for wave_gradient
  Allocating        0.206 MB for total_wave_grad
 HERE1
 HERE2
  Deallocating        0.069 MB for t_coeff
  Deallocating        0.034 MB for basbas_idx
  Deallocating        0.069 MB for wave
  Deallocating        0.206 MB for wave_gradient
  Deallocating        0.206 MB for total_wave_grad
dP_dE (Bohr^3) at every cycle:--->
 (1021.35884306921,0.000000000000000E+000) (-15.0007186293108,0.000000000000000E+000) (-462.826099688986,0.000000000000000E+000)
 (-15.0892309403436,0.000000000000000E+000) (1357.47703727281,0.000000000000000E+000) (-11.0381625166278,0.000000000000000E+000)
 (-462.948745715790,0.000000000000000E+000) (-10.9955307917966,0.000000000000000E+000) (1686.50831147773,0.000000000000000E+000)
DFPT polarizability (Bohr^3)        xx        yy        zz        xy        xz        yz
  | Polarizability:--->                      1021.358843069                 1357.477037273                 1686.508311478                  -15.000718629                 -462.826099689                  -11.038162517

DFPT for dielectric_constant:--->  # PARSE DFPT_dielectric_tensor
               2.385962164017919            -0.020355655208142            -0.628045144996562
              -0.020475764526207             2.842067384005383            -0.014978551086271
              -0.628211573038842            -0.014920700745028             3.288555804721708

                                               :  max(cpu_time)    wall_clock(cpu1)
  | Time for  dielectric calculation            :        0.001 s           0.000 s
===========================================================================

------------------------------------------------------------------------------
  Final output of selected total energy values:

  The following output summarizes some interesting total energy values
  at the end of a run (AFTER all relaxation, molecular dynamics, etc.).

  | Total energy of the DFT / Hartree-Fock s.c.f. calculation      :         -83267.533907179 eV
  | Final zero-broadening corrected energy (caution - metals only) :         -83267.533907179 eV
  | For reference only, the value of 1 Hartree used in FHI-aims is :             27.211384500 eV
  | For reference only, the overall average (free atom contribution
  | + realspace contribution) of the electrostatic potential after
  | s.c.f. convergence is                                          :             -7.705677708 eV

  Before relying on these values, please be sure to understand exactly which
  total energy value is referred to by a given number. Different objects may
  all carry the same name 'total energy'. Definitions:

  Total energy of the DFT / Hartree-Fock s.c.f. calculation:
  | Note that this energy does not include ANY quantities calculated after the
  | s.c.f. cycle, in particular not ANY RPA, MP2, etc. many-body perturbation terms.

  Final zero-broadening corrected energy:
  | For metallic systems only, a broadening of the occupation numbers at the Fermi
  | level can be extrapolated back to zero broadening by an electron-gas inspired
  | formula. For all systems that are not real metals, this value can be
  | meaningless and should be avoided.

------------------------------------------------------------------------------
  Methods described in the following list of references were used in this FHI-aims run.
  If you publish the results, please make sure to cite these reference if they apply.
  FHI-aims is an academic code, and for our developers (often, Ph.D. students
  and postdocs), scientific credit in the community is essential.
  Thank you for helping us!

  For any use of FHI-aims, please cite:

    Volker Blum, Ralf Gehrke, Felix Hanke, Paula Havu, Ville Havu,
    Xinguo Ren, Karsten Reuter, and Matthias Scheffler
    'Ab initio molecular simulations with numeric atom-centered orbitals'
    Computer Physics Communications 180, 2175-2196 (2009)
    http://doi.org/10.1016/j.cpc.2009.06.022


  For Hartree-Fock, hybrid functionals, or many-body perturbation theory used in your run, please cite:

    Xinguo Ren, Patrick Rinke, Volker Blum, Juergen Wieferink, Alex Tkatchenko,
    Andrea Sanfilippo, Karsten Reuter, and Matthias Scheffler,
    'Resolution-of-identity approach to Hartree-Fock, hybrid density functionals,
    RPA, MP2, and GW with numeric atom-centered orbital basis functions'
    New Journal of Physics 14, 053020 (2012).
    http://doi.org/10.1088/1367-2630/14/5/053020


  The provided symmetry information was generated with SPGlib:

    Atsushi Togo, Yusuke Seto, Dimitar Pashov
    SPGlib 1.7.3 obtained from http://spglib.sourceforge.net
    Copyright (C) 2008 Atsushi Togo


  The DFPT (perturbation by an electric field) part of the code was used.
  Here is the corresponding reference:

    Honghui Shang, Nathaniel Raimbault, Mariana Rossi,
    Christian Carbogno, Patrick Rinke and Matthias Scheffler,
    'All-Electron, Real-Space Perturbation Theory for Homogeneous
    Electric Fields: Theory, Implementation, and Application within dft'
    New Journal of Physics, 20(7):073040, 2018


  The ELSI infrastructure was used in your run to solve the Kohn-Sham electronic structure.
  Please check out http://elsi-interchange.org to learn more.
  If scalability is important for your project, please acknowledge ELSI by citing:

    V. W-z. Yu, F. Corsetti, A. Garcia, W. P. Huhn, M. Jacquelin, W. Jia,
    B. Lange, L. Lin, J. Lu, W. Mi, A. Seifitokaldani, A. Vazquez-Mayagoitia,
    C. Yang, H. Yang, and V. Blum
    'ELSI: A unified software interface for Kohn-Sham electronic structure solvers'
    Computer Physics Communications 222, 267-285 (2018).
    http://doi.org/10.1016/j.cpc.2017.09.007


  For the real-space grid partitioning and parallelization used in this calculation, please cite:

    Ville Havu, Volker Blum, Paula Havu, and Matthias Scheffler,
    'Efficient O(N) integration for all-electron electronic structure calculation'
    'using numerically tabulated basis functions'
    Journal of Computational Physics 228, 8367-8379 (2009).
    http://doi.org/10.1016/j.jcp.2009.08.008


  The high-level electronic structure method used in your calculation
  employed our efficient localized resolution of identity for the Coulomb operator.
  Some calculations, especially large-scale hybrid density functional theory,
  are only possible thanks to this development. For this feature, please cite:

    Arvid Ihrig, Juergen Wieferink, Igor Ying Zhang, Matti Ropo, Xinguo Ren,
    Patrick Rinke, Matthias Scheffler, and Volker Blum,
    'Accurate localized resolution of identity approach for linear-scaling
    hybrid density functionals and for many-body perturbation theory'
    New Journal of Physics 117, 093020 (2015).
    http://doi.org/10.1088/1367-2630/17/9/093020

  Of course, there are many other important community references, e.g., those cited in the
  above references. Our list is limited to references that describe implementations in the
  FHI-aims code. The reason is purely practical (length of this list) - please credit others as well.

------------------------------------------------------------
          Leaving FHI-aims.
          Date     :  20230119, Time     :  213411.413

          Computational steps:
          | Number of self-consistency cycles          :           47
          | Number of SCF (re)initializations          :            1
          | Number of coupled perturbed self-consistency cycles          :            0
          | Number of CPSCF (re)initializations          :            0

          Detailed time accounting                     :  max(cpu_time)    wall_clock(cpu1)
          | Total time                                  :     1441.303 s        1449.407 s
          | GPU initialization                          :        2.087 s           9.007 s
          | Preparation time                            :        0.073 s           0.065 s
          | Boundary condition initalization            :        1.000 s           1.001 s
          | Grid partitioning                           :        1.264 s           1.264 s
          | Preloading free-atom quantities on grid     :        3.553 s           3.554 s
          | Free-atom superposition energy              :        0.473 s           0.474 s
          | Total time for integrations                 :       16.847 s          16.943 s
          | Product basis setup: Total time             :        0.000 s           0.000 s
          | Product basis: | 2-center integrations     :(       0.000 s)  (       0.000 s)
          | Product basis: | LVL 3-center & coefficient:(       0.000 s)  (       0.000 s)
          | Total time for solution of K.-S. equations  :        3.273 s           3.273 s
          | Total time for density update               :       11.831 s          11.981 s
          | Total time for mixing & preconditioning     :       11.867 s          11.870 s
          | Total time for Hartree multipole update     :        0.083 s           0.084 s
          | Total time for Hartree multipole sum        :       41.209 s          41.219 s
          | Total time for total energy evaluation      :        0.006 s           0.005 s
          | Total time first_order_DM                   :        2.143 s           2.138 s
          | Total time first_order_density              :      310.244 s         310.279 s
          | Total time first_order_potential            :      122.040 s         122.071 s
          | Total time first_order_H                    :      592.856 s         593.019 s
          | Total time solving of Sternheimer equations :        2.089 s           2.092 s
          | Total time for dielectric constant          :        0.001 s           0.000 s
          | Total time momentum matrix                  :        0.000 s           0.000 s

          GPU acceleration has been used for charge density update.
          GPU acceleration has been used for real-space Hamiltonian integration.
          Due to GPU usage, wall_clock(cpu1) will give a more reliable estimate for timings.

          Partial memory accounting:
          | Residual value for overall tracked memory usage across tasks:     1.234863 MB (should be 0.000000 MB)
          |
          | Largest tracked array allocation:
          |   Minimum:      103.042 MB (DFPT_pulay_mixing::initialize_pulay_mixing::X_in_diffs on task  0)
          |   Maximum:      103.042 MB (DFPT_pulay_mixing::initialize_pulay_mixing::X_in_diffs on task  0)
          |   Average:      103.042 MB
          |
          | Because the residual tracked memory usage was not zero, the peak value for overall
          | tracked memory usage was not output, as it is probably incorrect.  This is likely due
          | to a missing aims_deallocate statement in the source code, which should be otherwise
          | harmless.
          |
          Note:  These values currently only include a subset of arrays which are explicitly tracked.
          The "true" memory usage will be greater.

          Have a nice day.
------------------------------------------------------------
