------------------------------------------------------------
          Invoking FHI-aims ...

          When using FHI-aims, please cite the following reference:

            Volker Blum, Ralf Gehrke, Felix Hanke, Paula Havu,
            Ville Havu, Xinguo Ren, Karsten Reuter, and Matthias Scheffler,
            'Ab Initio Molecular Simulations with Numeric Atom-Centered Orbitals',
            Computer Physics Communications 180, 2175-2196 (2009)

          In addition, many other developments in FHI-aims are likely important for
          your particular application. A partial list of references is given at the end of
          this file. Thank you for giving credit to the authors of these developments.

          For any questions about FHI-aims, please visit our slack channel at

            https://fhi-aims.slack.com

          and our main development and support site at

            https://aims-git.rz-berlin.mpg.de .

          The latter site, in particular, has a wiki to collect information, as well
          as an issue tracker to log discussions, suggest improvements, and report issues
          or bugs. https://aims-git.rz-berlin.mpg.de is also the main development site
          of the project and all new and updated code versions can be obtained there.
          Please send an email to aims-coordinators@fhi-berlin.mpg.de and we will add
          you to these sites. They are for you and everyone is welcome there.

------------------------------------------------------------



  Date     :  20230119, Time     :  204952.837
  Time zero on CPU 1             :   0.370902000000000E+00  s.
  Internal wall clock time zero  :           443393392.837  s.

  FHI-aims created a unique identifier for this run for later identification
  aims_uuid : 47E94B8B-E61D-47D5-A3B8-0807CB65EB39

  Build configuration of the current instance of FHI-aims
  -------------------------------------------------------
  FHI-aims version      : 220829
  Commit number         : 9895fc21d
  CMake host system     : Linux-5.3.18-150300.59.68-default
  CMake version         : 3.17.0
  Fortran compiler      : /mpcdf/soft/SLE_15/packages/x86_64/intel_oneapi/2021.3/mpi/2021.3.0/bin/mpiifort (Intel) version 20.2.3.20210609
  Fortran compiler flags: -O3 -ip -fp-model precise
  C compiler            : /mpcdf/soft/SLE_15/packages/x86_64/intel/2021.3.0/bin/icc (Intel) version 20.2.3.20210609
  C compiler flags      : -O3 -ip -fp-model precise -std=gnu99
  CUDA compiler         : /mpcdf/soft/SLE_15/packages/x86_64/cuda/11.6.2/bin/nvcc
  CUDA compiler flags   : -O3 -DAdd_ -lcublas
  ELPA2 kernel          : AVX512
  Using MPI
  Using ScaLAPACK
  Using LibXC
  Using CUDA
  Using i-PI
  Using RLSY
  Linking against: /mpcdf/soft/SLE_15/packages/x86_64/cuda/11.6.2/lib64/libcublas.so
                   /mpcdf/soft/SLE_15/packages/x86_64/cuda/11.6.2/lib64/libcudart.so
                   /mpcdf/soft/SLE_15/packages/x86_64/intel_oneapi/2021.3/mkl/latest/lib/intel64/libmkl_intel_lp64.so
                   /mpcdf/soft/SLE_15/packages/x86_64/intel_oneapi/2021.3/mkl/latest/lib/intel64/libmkl_sequential.so
                   /mpcdf/soft/SLE_15/packages/x86_64/intel_oneapi/2021.3/mkl/latest/lib/intel64/libmkl_core.so
                   /mpcdf/soft/SLE_15/packages/x86_64/intel_oneapi/2021.3/mkl/latest/lib/intel64/libmkl_blacs_intelmpi_lp64.so
                   /mpcdf/soft/SLE_15/packages/x86_64/intel_oneapi/2021.3/mkl/latest/lib/intel64/libmkl_scalapack_lp64.so

  Using       18 parallel tasks.
  Task        0 on host adag012 reporting.
  Task        1 on host adag012 reporting.
  Task        2 on host adag012 reporting.
  Task        3 on host adag012 reporting.
  Task        4 on host adag012 reporting.
  Task        5 on host adag012 reporting.
  Task        6 on host adag012 reporting.
  Task        7 on host adag012 reporting.
  Task        8 on host adag012 reporting.
  Task        9 on host adag012 reporting.
  Task       10 on host adag012 reporting.
  Task       11 on host adag012 reporting.
  Task       12 on host adag012 reporting.
  Task       13 on host adag012 reporting.
  Task       14 on host adag012 reporting.
  Task       15 on host adag012 reporting.
  Task       16 on host adag012 reporting.
  Task       17 on host adag012 reporting.

  Performing system and environment tests:
  | Environment variable OMP_NUM_THREADS correctly set to 1.
  | Checking for ScaLAPACK...
  | Testing pdtran()...
  | All pdtran() tests passed.

  Obtaining array dimensions for all initial allocations:
  
  -----------------------------------------------------------------------
  Parsing control.in (first pass over file, find array dimensions only).
  The contents of control.in will be repeated verbatim below
  unless switched off by setting 'verbatim_writeout .false.' .
  in the first line of control.in .
  -----------------------------------------------------------------------
  
  #
  # Input for polarizability replays on generic oligoacene molecular crystals (light settings,  LDA+MBD).
  #
  #########################################################################################
  #
  #  Physical model
  #
    xc                 pw-lda
    spin               none
    relativistic       none
    charge             0.0
    k_grid 	     2 1 1
    DFPT dielectric
  #
  #  GPU acceleration
  #
  # Turns on GPU acceleration everywhere
    use_gpu
  
  # Turns OFF GPU acceleration of ELPA - may be necessary if GPU ELPA is slow
    elsi_elpa_gpu 0
  #
  #  Relaxation
  #
  #  relax_geometry trm 1E-3
  #  relax_unit_cell fixed_angles
  #
  #  SCF convergence        #
    charge_mix_param   0.75
    #sc_accuracy_rho 1E-4
  #
  # i-PI communication
  #
  compute_forces .false.
  # use_pimd_wrapper 130.183.223.27 26118
  #communicate_pimd_wrapper polarizability
  #output_level MD_light
  #
  # Output SALTED info
    ri_density_restart write
    ri_rho1 write
    ri_full_output .true.
  #  sc_accuracy_rho    1d-6
    default_prodbas_acc 1e-6
    default_max_l_prodbas 6
  #
  #
  ################################################################################
  #
  #  FHI-aims code project
  #  VB, Fritz-Haber Institut, 2009
  #
  #  Suggested "light" defaults for H atom (to be pasted into control.in file)
  #  Be sure to double-check any results obtained with these settings for post-processing,
  #  e.g., with the "tight" defaults and larger basis sets.
  #
  ################################################################################
    species        H
  #     global species definitions
      nucleus             1
      mass                1.00794
  #
      l_hartree           4
  #
      cut_pot             3.5  1.5  1.0
      basis_dep_cutoff    1e-4
  #
      radial_base         24 5.0
      radial_multiplier   1
      angular_grids       specified
        division   0.2421   50
        division   0.3822  110
        division   0.4799  194
        division   0.5341  302
  #      division   0.5626  434
  #      division   0.5922  590
  #      division   0.6542  770
  #      division   0.6868 1202
  #      outer_grid  770
        outer_grid  302
  ################################################################################
  #
  #  Definition of "minimal" basis
  #
  ################################################################################
  #     valence basis states
      valence      1  s   1.
  #     ion occupancy
      ion_occ      1  s   0.5
  ################################################################################
  #
  #  Suggested additional basis functions. For production calculations,
  #  uncomment them one after another (the most important basis functions are
  #  listed first).
  #
  #  Basis constructed for dimers: 0.5 A, 0.7 A, 1.0 A, 1.5 A, 2.5 A
  #
  ################################################################################
  #  "First tier" - improvements: -1014.90 meV to -62.69 meV
       hydro 2 s 2.1
       hydro 2 p 3.5
  #  "Second tier" - improvements: -12.89 meV to -1.83 meV
  #     hydro 1 s 0.85
  #     hydro 2 p 3.7
  #     hydro 2 s 1.2
  #     hydro 3 d 7
  #  "Third tier" - improvements: -0.25 meV to -0.12 meV
  #     hydro 4 f 11.2
  #     hydro 3 p 4.8
  #     hydro 4 d 9
  #     hydro 3 s 3.2
  ################################################################################
  ################################################################################
  #
  #  FHI-aims code project
  #  VB, Fritz-Haber Institut, 2009
  #
  #  Suggested "light" defaults for C atom (to be pasted into control.in file)
  #  Be sure to double-check any results obtained with these settings for post-processing,
  #  e.g., with the "tight" defaults and larger basis sets.
  #
  ################################################################################
    species        C
  #     global species definitions
      nucleus             6
      mass                12.0107
  #
      l_hartree           4
  #
      cut_pot             3.5  1.5  1.0
      basis_dep_cutoff    1e-4
  #
      radial_base         34 5.0
      radial_multiplier   1
      angular_grids specified
        division   0.3326   50
        division   0.5710  110
        division   0.7727  194
        division   0.8772  302
  #      division   0.9334  434
  #      division   0.9625  590
  #      division   0.9924  770
  #      division   1.0230  974
  #      division   1.4589 1202
  #     outer_grid  974
       outer_grid 302
  ################################################################################
  #
  #  Definition of "minimal" basis
  #
  ################################################################################
  #     valence basis states
      valence      2  s   2.
      valence      2  p   2.
  #     ion occupancy
      ion_occ      2  s   1.
      ion_occ      2  p   1.
  ################################################################################
  #
  #  Suggested additional basis functions. For production calculations,
  #  uncomment them one after another (the most important basis functions are
  #  listed first).
  #
  #  Constructed for dimers: 1.0 A, 1.25 A, 1.5 A, 2.0 A, 3.0 A
  #
  ################################################################################
  #  "First tier" - improvements: -1214.57 meV to -155.61 meV
       hydro 2 p 1.7
       hydro 3 d 6
       hydro 2 s 4.9
  #  "Second tier" - improvements: -67.75 meV to -5.23 meV
  #     hydro 4 f 9.8
  #     hydro 3 p 5.2
  #     hydro 3 s 4.3
  #     hydro 5 g 14.4
  #     hydro 3 d 6.2
  #  "Third tier" - improvements: -2.43 meV to -0.60 meV
  #     hydro 2 p 5.6
  #     hydro 2 s 1.4
  #     hydro 3 d 4.9
  #     hydro 4 f 11.2
  #  "Fourth tier" - improvements: -0.39 meV to -0.18 meV
  #     hydro 2 p 2.1
  #     hydro 5 g 16.4
  #     hydro 4 d 13.2
  #     hydro 3 s 13.6
  #     hydro 4 f 17.6
  #  Further basis functions - improvements: -0.08 meV and below
  #     hydro 3 s 2
  #     hydro 3 p 6
  #     hydro 4 d 20
  
  -----------------------------------------------------------------------
  Completed first pass over input file control.in .
  -----------------------------------------------------------------------
  
  
  -----------------------------------------------------------------------
  Parsing geometry.in (first pass over file, find array dimensions only).
  The contents of geometry.in will be repeated verbatim below
  unless switched off by setting 'verbatim_writeout .false.' .
  in the first line of geometry.in .
  -----------------------------------------------------------------------
  
  #=======================================================
  # FHI-aims file: /ada/ptmp/mpsd/alewis/naphthalene/qmdata/data/geoms/217.in
  # Created using the Atomic Simulation Environment (ASE)
  # Thu Jan 19 15:19:17 2023
  #=======================================================
  lattice_vector 8.1020000000000003 0.0000000000000000 0.0000000000000000
  lattice_vector 0.0000000000000000 11.8800000000000008 0.0000000000000000
  lattice_vector -9.7850918486534706 0.0000000000000000 14.2571119625755713
  atom -0.7649540000000000 0.0077724300000000 2.3819599999999999 C
  atom 0.1868840000000000 3.0330100000000000 4.7266500000000002 C
  atom 4.2149299999999998 5.9426699999999997 4.9662300000000004 C
  atom 3.3227300000000000 2.8753099999999998 2.4776799999999999 C
  atom -0.0054945300000000 0.8641810000000000 1.6191599999999999 C
  atom -0.6675090000000000 3.8494899999999999 5.4487500000000004 C
  atom 3.3927299999999998 5.1042899999999998 5.6496500000000003 C
  atom 4.1018600000000003 2.0087000000000002 1.7153900000000000 C
  atom 0.3471820000000000 0.5597080000000000 0.2770640000000000 C
  atom -1.0479200000000000 3.5220199999999999 6.7706900000000001 C
  atom 3.0072800000000002 5.3904800000000002 6.9866999999999999 C
  atom 4.4745799999999996 2.3256299999999999 0.3831030000000000 C
  atom -3.8747600000000002 1.5513200000000000 6.6701100000000002 C
  atom 3.2585400000000000 4.4224199999999998 0.6173190000000000 C
  atom 7.2581199999999999 4.4174800000000003 0.6626069999999999 C
  atom 0.2105930000000000 1.4595300000000000 6.5577899999999998 C
  atom -3.4161800000000002 1.1989900000000000 5.4270100000000001 C
  atom 2.9116100000000000 4.1093200000000003 1.9222500000000000 C
  atom 6.9070000000000000 4.7968500000000001 1.9469300000000000 C
  atom 0.6292580000000000 1.8053200000000000 5.2945599999999997 C
  atom -0.9466710000000000 0.1892670000000000 3.4071799999999999 H
  atom 0.5835180000000000 3.3237299999999999 3.7345400000000000 H
  atom 4.5191299999999996 5.6615500000000001 3.9269200000000000 H
  atom 3.0178500000000001 2.6004100000000001 3.4752800000000001 H
  atom 0.4146400000000000 1.7659300000000000 2.1145900000000002 H
  atom -1.1388400000000001 4.7736599999999996 5.0294999999999996 H
  atom 3.0850800000000000 4.1621899999999998 5.1575199999999999 H
  atom 4.4168300000000000 1.0434399999999999 2.0847000000000002 H
  atom -3.5484200000000001 2.5086300000000001 7.0728700000000000 H
  atom 2.9501900000000001 5.4106399999999999 0.2605200000000000 H
  atom 6.8386500000000003 3.4742700000000002 0.2636580000000000 H
  atom 0.4965240000000000 0.5077010000000000 7.0307700000000004 H
  atom -2.7399800000000001 1.8299000000000001 4.9112299999999998 H
  atom 2.2609100000000000 4.7830100000000000 2.4797300000000000 H
  atom 6.2629500000000000 4.1620600000000003 2.5728700000000000 H
  atom 1.3205899999999999 1.1649499999999999 4.7133700000000003 H
  atom -5.9963199999999999 0.1587990000000000 9.4350900000000006 C
  atom -4.6063000000000001 2.9943900000000001 11.9727999999999994 C
  atom -0.6254560000000000 5.8704099999999997 12.0150000000000006 C
  atom -1.7962300000000000 2.8665600000000002 9.3669700000000002 C
  atom -5.1488199999999997 1.0142800000000001 8.7574699999999996 C
  atom -5.3890500000000001 3.8835400000000000 12.7181999999999995 C
  atom -1.4129400000000001 5.0112100000000002 12.7546999999999997 C
  atom -1.0672299999999999 1.9469399999999999 8.6459499999999991 C
  atom -4.6996599999999997 0.6811060000000000 7.4568899999999996 C
  atom -5.7882899999999999 3.5594500000000000 14.0455000000000005 C
  atom -1.7581700000000000 5.3006000000000002 14.0929000000000002 C
  atom -0.6419600000000000 2.2665099999999998 7.3531199999999997 C
  atom -8.6859500000000001 1.4453499999999999 13.7051999999999996 C
  atom -1.7769999999999999 4.4427500000000002 7.5479500000000002 C
  atom 2.2821400000000001 4.4926500000000003 7.8308400000000002 C
  atom -4.4999799999999999 1.4738199999999999 13.8451000000000004 C
  atom -8.3847400000000007 1.0532400000000000 12.4163999999999994 C
  atom -2.1497400000000000 4.1094299999999997 8.8463799999999999 C
  atom 1.8938200000000001 4.8278400000000001 9.0952900000000003 C
  atom -4.1825500000000000 1.7941100000000001 12.5404999999999998 C
  atom -6.3292200000000003 0.4838030000000000 10.4551999999999996 H
  atom -4.3599600000000001 3.2411300000000001 10.9258000000000006 H
  atom -0.3640150000000000 5.6079999999999997 10.9735999999999994 H
  atom -2.1124399999999999 2.6297500000000000 10.3905999999999992 H
  atom -4.8782500000000004 1.9767999999999999 9.1612700000000000 H
  atom -5.7697599999999998 4.8012699999999997 12.3030000000000008 H
  atom -1.6374500000000001 4.0188499999999996 12.3493999999999993 H
  atom -0.8177680000000001 0.9560890000000000 9.0748700000000007 H
  atom -8.3995499999999996 2.4148499999999999 14.1083999999999996 H
  atom -2.1004000000000000 5.4102600000000001 7.1684500000000000 H
  atom 1.9501100000000000 3.5302600000000002 7.4317700000000002 H
  atom -4.1718099999999998 0.4922710000000000 14.2236999999999991 H
  atom -7.7770200000000003 1.7355100000000001 11.8364999999999991 H
  atom -2.6777700000000002 4.8605999999999998 9.4678299999999993 H
  atom 1.2716499999999999 4.1390599999999997 9.6397899999999996 H
  atom -3.5577899999999998 1.0953400000000000 11.9984000000000002 H
  atom -0.6910220000000000 6.0381900000000002 2.4792900000000002 C
  atom 0.2340670000000000 8.9867000000000008 4.8496899999999998 C
  atom 4.2920600000000002 11.8269000000000002 4.8771300000000002 C
  atom 3.3409900000000001 8.7949500000000000 2.4095700000000000 C
  atom 0.0736766000000000 6.8992800000000001 1.7028600000000000 C
  atom -0.5698240000000000 9.8543900000000004 5.5744899999999999 C
  atom 3.4810599999999998 10.9680999999999997 5.5655099999999997 C
  atom 4.1587399999999999 8.0192499999999995 1.6311300000000000 C
  atom 0.3820770000000000 6.5431499999999998 0.3568180000000000 C
  atom -0.9949850000000000 9.5382499999999997 6.9165000000000001 C
  atom 3.0506300000000000 11.2888999999999999 6.8822700000000001 C
  atom 4.4553500000000001 8.3704900000000002 0.3123500000000000 C
  atom -3.7646000000000002 7.4696899999999999 6.8478300000000001 C
  atom 3.1530700000000000 10.4047000000000001 0.5985660000000000 C
  atom 7.2510800000000000 10.3031000000000006 0.6180590000000000 C
  atom 0.2085420000000000 7.4099899999999996 6.6958500000000001 C
  atom -3.3546200000000002 7.1584300000000001 5.5750500000000001 C
  atom 2.8771599999999999 10.0329999999999995 1.8821000000000001 C
  atom 6.8499999999999996 10.6327999999999996 1.8703700000000001 C
  atom 0.5858510000000000 7.7350899999999996 5.4091500000000003 C
  atom -1.0085599999999999 6.3410099999999998 3.4640499999999999 H
  atom 0.4962870000000000 9.2140900000000006 3.8101400000000001 H
  atom 4.7050400000000003 11.6257000000000001 3.8784700000000001 H
  atom 3.0434899999999998 8.4816199999999995 3.4348399999999999 H
  atom 0.4329850000000000 7.8694899999999999 2.1055500000000000 H
  atom -0.8926360000000000 10.7929999999999993 5.1107600000000000 H
  atom 3.2013500000000001 9.9916900000000002 5.1528499999999999 H
  atom 4.5408099999999996 7.0704200000000004 1.9937100000000001 H
  atom -3.4384800000000002 8.3840500000000002 7.3256199999999998 H
  atom 2.7544200000000001 11.3598999999999997 0.2555040000000000 H
  atom 6.9426399999999999 9.3798300000000001 0.1548000000000000 H
  atom 0.4590520000000000 6.4393200000000004 7.0885300000000004 H
  atom -2.7087900000000000 7.8733300000000002 5.0361200000000004 H
  atom 2.2782399999999998 10.6647999999999996 2.4919600000000002 H
  atom 6.2512299999999996 9.9340100000000007 2.4834399999999999 H
  atom 1.2705500000000001 7.1067099999999996 4.8191800000000002 H
  atom -5.8167499999999999 6.0758599999999996 9.6501999999999999 C
  atom -4.8434299999999997 9.0338600000000007 11.8476999999999997 C
  atom -0.6877220000000001 11.6766000000000005 11.9175000000000004 C
  atom -1.6936199999999999 8.8973099999999992 9.5553100000000004 C
  atom -5.0217499999999999 6.9100599999999996 8.9053500000000003 C
  atom -5.5524199999999997 9.9223999999999997 12.6410999999999998 C
  atom -1.4187700000000001 10.8184000000000005 12.7112999999999996 C
  atom -0.9346020000000000 8.0065799999999996 8.8501600000000007 C
  atom -4.6114800000000002 6.5972099999999996 7.5982900000000004 C
  atom -5.8628099999999996 9.5874500000000005 13.9764999999999997 C
  atom -1.7611100000000000 11.1709999999999994 14.0440000000000005 C
  atom -0.5922210000000000 8.2859900000000000 7.4750199999999998 C
  atom -8.6494999999999997 7.4553799999999999 13.8034999999999997 C
  atom -1.7725900000000001 10.4274000000000004 7.6592500000000001 C
  atom 2.2276899999999999 10.4098000000000006 7.6276299999999999 C
  atom -4.5765500000000001 7.5083200000000003 13.7043999999999997 C
  atom -8.2500800000000005 7.0822500000000002 12.5321999999999996 C
  atom -2.1463299999999998 10.0920000000000005 8.9437300000000004 C
  atom 1.7801600000000000 10.7908000000000008 8.8735999999999997 C
  atom -4.3559200000000002 7.8110600000000003 12.3961000000000006 C
  atom -6.1058100000000000 6.3343400000000001 10.6911000000000005 H
  atom -4.6911300000000002 9.2464600000000008 10.7913999999999994 H
  atom -0.4461030000000000 11.3765000000000001 10.9036000000000008 H
  atom -1.9257899999999999 8.7378400000000003 10.6046999999999993 H
  atom -4.6527500000000002 7.8584399999999999 9.3515300000000003 H
  atom -6.0002800000000001 10.8407999999999998 12.1922999999999995 H
  atom -1.6870900000000000 9.8010000000000002 12.3991000000000007 H
  atom -0.5749530000000000 7.0884700000000000 9.3183100000000003 H
  atom -8.2827900000000003 8.3850899999999999 14.2658000000000005 H
  atom -2.0663499999999999 11.4023000000000003 7.2442399999999996 H
  atom 1.9666800000000000 9.4327299999999994 7.2509399999999999 H
  atom -4.2027900000000002 6.5544599999999997 14.0510999999999999 H
  atom -7.6221300000000003 7.7640099999999999 11.9428999999999998 H
  atom -2.7718900000000000 10.7631999999999994 9.5112100000000002 H
  atom 1.1108600000000000 10.1379000000000001 9.4288500000000006 H
  atom -3.8712300000000002 7.0667600000000004 11.7776999999999994 H
  
  -----------------------------------------------------------------------
  Completed first pass over input file geometry.in .
  -----------------------------------------------------------------------
  

  Basic array size parameters:
  | Number of species                 :        2
  | Number of atoms                   :      144
  | Number of lattice vectors         :        3
  | Max. basis fn. angular momentum   :        2
  | Max. atomic/ionic basis occupied n:        2
  | Max. number of basis fn. types    :        2
  | Max. radial fns per species/type  :        3
  | Max. logarithmic grid size        :     1277
  | Max. radial integration grid size :       34
  | Max. angular integration grid size:      302
  | Max. angular grid division number :        8
  | Radial grid for Hartree potential :     1277
  | Number of spin channels           :        1

------------------------------------------------------------
          Reading file control.in.
------------------------------------------------------------
  XC: Using Perdew-Wang parametrisation of Ceperley-Alder LDA.
  Spin treatment: No spin polarisation.
  Non-relativistic treatment of kinetic energy.
  Charge =   0.000000E+00: Neutral system requested explicitly.
  Found k-point grid:         2         1         1
  DFPT calculation will begin after the DFT/HF calculation.
  Charge density mixing - mixing parameter:     0.7500
  Forces will not be computed.
 
  Reading configuration options for species H                   .
  | Found nuclear charge :   1.0000
  | Found atomic mass :    1.00794000000000      amu
  | Found l_max for Hartree potential  :   4
  | Found cutoff potl. onset [A], width [A], scale factor :    3.50000    1.50000    1.00000
  | Threshold for basis-dependent cutoff potential is   0.100000E-03
  | Found data for basic radial integration grid :    24 points, outermost radius =    5.000 A
  | Found multiplier for basic radial grid :   1
  | Found angular grid specification: user-specified.
  | Specified grid contains     5 separate shells.
  | Check grid settings after all constraints further below.
  | Found free-atom valence shell :  1 s   1.000
  | No ionic wave fns used. Skipping ion_occ.
  | Found hydrogenic basis function :  2 s   2.100
  | Found hydrogenic basis function :  2 p   3.500
  Species H                   : Missing cutoff potential type.
  Defaulting to exp(1/x)/(1-x)^2 type cutoff potential.
  Species H : No 'logarithmic' tag. Using default grid for free atom:
  | Default logarithmic grid data [bohr] : 0.1000E-03 0.1000E+03 0.1012E+01
  Species H : On-site basis accuracy parameter (for Gram-Schmidt orthonormalisation) not specified.
  Using default value basis_acc =  0.1000000E-03.
  Species H                   : Using default innermost maximum threshold i_radial=  2 for radial functions.
  Species H                   : Default cutoff onset for free atom density etc. : 0.35000000E+01 AA.
  Species H                   : Basic radial grid will be enhanced according to radial_multiplier =   1, to contain    24 grid points.
 
  Reading configuration options for species C                   .
  | Found nuclear charge :   6.0000
  | Found atomic mass :    12.0107000000000      amu
  | Found l_max for Hartree potential  :   4
  | Found cutoff potl. onset [A], width [A], scale factor :    3.50000    1.50000    1.00000
  | Threshold for basis-dependent cutoff potential is   0.100000E-03
  | Found data for basic radial integration grid :    34 points, outermost radius =    5.000 A
  | Found multiplier for basic radial grid :   1
  | Found angular grid specification: user-specified.
  | Specified grid contains     5 separate shells.
  | Check grid settings after all constraints further below.
  | Found free-atom valence shell :  2 s   2.000
  | Found free-atom valence shell :  2 p   2.000
  | No ionic wave fns used. Skipping ion_occ.
  | No ionic wave fns used. Skipping ion_occ.
  | Found hydrogenic basis function :  2 p   1.700
  | Found hydrogenic basis function :  3 d   6.000
  | Found hydrogenic basis function :  2 s   4.900
  Species C                   : Missing cutoff potential type.
  Defaulting to exp(1/x)/(1-x)^2 type cutoff potential.
  Species C : No 'logarithmic' tag. Using default grid for free atom:
  | Default logarithmic grid data [bohr] : 0.1000E-03 0.1000E+03 0.1012E+01
  Species C : On-site basis accuracy parameter (for Gram-Schmidt orthonormalisation) not specified.
  Using default value basis_acc =  0.1000000E-03.
  Species C                   : Using default innermost maximum threshold i_radial=  2 for radial functions.
  Species C                   : Default cutoff onset for free atom density etc. : 0.35000000E+01 AA.
  Species C                   : Basic radial grid will be enhanced according to radial_multiplier =   1, to contain    34 grid points.
 
  Finished reading input file 'control.in'.
 
------------------------------------------------------------


------------------------------------------------------------
          Reading geometry description geometry.in.
------------------------------------------------------------
  | The smallest distance between any two atoms is         1.05689990 AA.
  | The first atom of this pair is atom number                      1 .
  | The second atom of this pair is atom number                    21 .
  | Wigner-Seitz cell of the first atom image           0     0     0 .
  | (The Wigner-Seitz cell of the second atom is 0 0 0  by definition.)

  Symmetry information by spglib:
  | Precision set to  0.1E-04
  | Number of Operations  : 1
  | Space group           : 1
  | International         : P1
  | Schoenflies           : C1^1
  Input structure read successfully.
  The structure contains      144 atoms,  and a total of        544.000 electrons.

  Input geometry:
  | Unit cell:
  |        8.10200000        0.00000000        0.00000000
  |        0.00000000       11.88000000        0.00000000
  |       -9.78509185        0.00000000       14.25711196
  | Atomic structure:
  |       Atom                x [A]            y [A]            z [A]
  |    1: Species C            -0.76495400        0.00777243        2.38196000
  |    2: Species C             0.18688400        3.03301000        4.72665000
  |    3: Species C             4.21493000        5.94267000        4.96623000
  |    4: Species C             3.32273000        2.87531000        2.47768000
  |    5: Species C            -0.00549453        0.86418100        1.61916000
  |    6: Species C            -0.66750900        3.84949000        5.44875000
  |    7: Species C             3.39273000        5.10429000        5.64965000
  |    8: Species C             4.10186000        2.00870000        1.71539000
  |    9: Species C             0.34718200        0.55970800        0.27706400
  |   10: Species C            -1.04792000        3.52202000        6.77069000
  |   11: Species C             3.00728000        5.39048000        6.98670000
  |   12: Species C             4.47458000        2.32563000        0.38310300
  |   13: Species C            -3.87476000        1.55132000        6.67011000
  |   14: Species C             3.25854000        4.42242000        0.61731900
  |   15: Species C             7.25812000        4.41748000        0.66260700
  |   16: Species C             0.21059300        1.45953000        6.55779000
  |   17: Species C            -3.41618000        1.19899000        5.42701000
  |   18: Species C             2.91161000        4.10932000        1.92225000
  |   19: Species C             6.90700000        4.79685000        1.94693000
  |   20: Species C             0.62925800        1.80532000        5.29456000
  |   21: Species H            -0.94667100        0.18926700        3.40718000
  |   22: Species H             0.58351800        3.32373000        3.73454000
  |   23: Species H             4.51913000        5.66155000        3.92692000
  |   24: Species H             3.01785000        2.60041000        3.47528000
  |   25: Species H             0.41464000        1.76593000        2.11459000
  |   26: Species H            -1.13884000        4.77366000        5.02950000
  |   27: Species H             3.08508000        4.16219000        5.15752000
  |   28: Species H             4.41683000        1.04344000        2.08470000
  |   29: Species H            -3.54842000        2.50863000        7.07287000
  |   30: Species H             2.95019000        5.41064000        0.26052000
  |   31: Species H             6.83865000        3.47427000        0.26365800
  |   32: Species H             0.49652400        0.50770100        7.03077000
  |   33: Species H            -2.73998000        1.82990000        4.91123000
  |   34: Species H             2.26091000        4.78301000        2.47973000
  |   35: Species H             6.26295000        4.16206000        2.57287000
  |   36: Species H             1.32059000        1.16495000        4.71337000
  |   37: Species C            -5.99632000        0.15879900        9.43509000
  |   38: Species C            -4.60630000        2.99439000       11.97280000
  |   39: Species C            -0.62545600        5.87041000       12.01500000
  |   40: Species C            -1.79623000        2.86656000        9.36697000
  |   41: Species C            -5.14882000        1.01428000        8.75747000
  |   42: Species C            -5.38905000        3.88354000       12.71820000
  |   43: Species C            -1.41294000        5.01121000       12.75470000
  |   44: Species C            -1.06723000        1.94694000        8.64595000
  |   45: Species C            -4.69966000        0.68110600        7.45689000
  |   46: Species C            -5.78829000        3.55945000       14.04550000
  |   47: Species C            -1.75817000        5.30060000       14.09290000
  |   48: Species C            -0.64196000        2.26651000        7.35312000
  |   49: Species C            -8.68595000        1.44535000       13.70520000
  |   50: Species C            -1.77700000        4.44275000        7.54795000
  |   51: Species C             2.28214000        4.49265000        7.83084000
  |   52: Species C            -4.49998000        1.47382000       13.84510000
  |   53: Species C            -8.38474000        1.05324000       12.41640000
  |   54: Species C            -2.14974000        4.10943000        8.84638000
  |   55: Species C             1.89382000        4.82784000        9.09529000
  |   56: Species C            -4.18255000        1.79411000       12.54050000
  |   57: Species H            -6.32922000        0.48380300       10.45520000
  |   58: Species H            -4.35996000        3.24113000       10.92580000
  |   59: Species H            -0.36401500        5.60800000       10.97360000
  |   60: Species H            -2.11244000        2.62975000       10.39060000
  |   61: Species H            -4.87825000        1.97680000        9.16127000
  |   62: Species H            -5.76976000        4.80127000       12.30300000
  |   63: Species H            -1.63745000        4.01885000       12.34940000
  |   64: Species H            -0.81776800        0.95608900        9.07487000
  |   65: Species H            -8.39955000        2.41485000       14.10840000
  |   66: Species H            -2.10040000        5.41026000        7.16845000
  |   67: Species H             1.95011000        3.53026000        7.43177000
  |   68: Species H            -4.17181000        0.49227100       14.22370000
  |   69: Species H            -7.77702000        1.73551000       11.83650000
  |   70: Species H            -2.67777000        4.86060000        9.46783000
  |   71: Species H             1.27165000        4.13906000        9.63979000
  |   72: Species H            -3.55779000        1.09534000       11.99840000
  |   73: Species C            -0.69102200        6.03819000        2.47929000
  |   74: Species C             0.23406700        8.98670000        4.84969000
  |   75: Species C             4.29206000       11.82690000        4.87713000
  |   76: Species C             3.34099000        8.79495000        2.40957000
  |   77: Species C             0.07367660        6.89928000        1.70286000
  |   78: Species C            -0.56982400        9.85439000        5.57449000
  |   79: Species C             3.48106000       10.96810000        5.56551000
  |   80: Species C             4.15874000        8.01925000        1.63113000
  |   81: Species C             0.38207700        6.54315000        0.35681800
  |   82: Species C            -0.99498500        9.53825000        6.91650000
  |   83: Species C             3.05063000       11.28890000        6.88227000
  |   84: Species C             4.45535000        8.37049000        0.31235000
  |   85: Species C            -3.76460000        7.46969000        6.84783000
  |   86: Species C             3.15307000       10.40470000        0.59856600
  |   87: Species C             7.25108000       10.30310000        0.61805900
  |   88: Species C             0.20854200        7.40999000        6.69585000
  |   89: Species C            -3.35462000        7.15843000        5.57505000
  |   90: Species C             2.87716000       10.03300000        1.88210000
  |   91: Species C             6.85000000       10.63280000        1.87037000
  |   92: Species C             0.58585100        7.73509000        5.40915000
  |   93: Species H            -1.00856000        6.34101000        3.46405000
  |   94: Species H             0.49628700        9.21409000        3.81014000
  |   95: Species H             4.70504000       11.62570000        3.87847000
  |   96: Species H             3.04349000        8.48162000        3.43484000
  |   97: Species H             0.43298500        7.86949000        2.10555000
  |   98: Species H            -0.89263600       10.79300000        5.11076000
  |   99: Species H             3.20135000        9.99169000        5.15285000
  |  100: Species H             4.54081000        7.07042000        1.99371000
  |  101: Species H            -3.43848000        8.38405000        7.32562000
  |  102: Species H             2.75442000       11.35990000        0.25550400
  |  103: Species H             6.94264000        9.37983000        0.15480000
  |  104: Species H             0.45905200        6.43932000        7.08853000
  |  105: Species H            -2.70879000        7.87333000        5.03612000
  |  106: Species H             2.27824000       10.66480000        2.49196000
  |  107: Species H             6.25123000        9.93401000        2.48344000
  |  108: Species H             1.27055000        7.10671000        4.81918000
  |  109: Species C            -5.81675000        6.07586000        9.65020000
  |  110: Species C            -4.84343000        9.03386000       11.84770000
  |  111: Species C            -0.68772200       11.67660000       11.91750000
  |  112: Species C            -1.69362000        8.89731000        9.55531000
  |  113: Species C            -5.02175000        6.91006000        8.90535000
  |  114: Species C            -5.55242000        9.92240000       12.64110000
  |  115: Species C            -1.41877000       10.81840000       12.71130000
  |  116: Species C            -0.93460200        8.00658000        8.85016000
  |  117: Species C            -4.61148000        6.59721000        7.59829000
  |  118: Species C            -5.86281000        9.58745000       13.97650000
  |  119: Species C            -1.76111000       11.17100000       14.04400000
  |  120: Species C            -0.59222100        8.28599000        7.47502000
  |  121: Species C            -8.64950000        7.45538000       13.80350000
  |  122: Species C            -1.77259000       10.42740000        7.65925000
  |  123: Species C             2.22769000       10.40980000        7.62763000
  |  124: Species C            -4.57655000        7.50832000       13.70440000
  |  125: Species C            -8.25008000        7.08225000       12.53220000
  |  126: Species C            -2.14633000       10.09200000        8.94373000
  |  127: Species C             1.78016000       10.79080000        8.87360000
  |  128: Species C            -4.35592000        7.81106000       12.39610000
  |  129: Species H            -6.10581000        6.33434000       10.69110000
  |  130: Species H            -4.69113000        9.24646000       10.79140000
  |  131: Species H            -0.44610300       11.37650000       10.90360000
  |  132: Species H            -1.92579000        8.73784000       10.60470000
  |  133: Species H            -4.65275000        7.85844000        9.35153000
  |  134: Species H            -6.00028000       10.84080000       12.19230000
  |  135: Species H            -1.68709000        9.80100000       12.39910000
  |  136: Species H            -0.57495300        7.08847000        9.31831000
  |  137: Species H            -8.28279000        8.38509000       14.26580000
  |  138: Species H            -2.06635000       11.40230000        7.24424000
  |  139: Species H             1.96668000        9.43273000        7.25094000
  |  140: Species H            -4.20279000        6.55446000       14.05110000
  |  141: Species H            -7.62213000        7.76401000       11.94290000
  |  142: Species H            -2.77189000       10.76320000        9.51121000
  |  143: Species H             1.11086000       10.13790000        9.42885000
  |  144: Species H            -3.87123000        7.06676000       11.77770000

  Lattice parameters for 3D lattice (in Angstroms) :     8.102000   11.880000   17.292000
  Angle(s) between unit vectors (in degrees)       :    90.000000  124.463000   90.000000


  Quantities derived from the lattice vectors (in Angstrom^-1):
  | Reciprocal lattice vector 1:  0.775510  0.000000  0.532257
  | Reciprocal lattice vector 2:  0.000000  0.528888  0.000000
  | Reciprocal lattice vector 3: -0.000000  0.000000  0.440705
  | Unit cell volume                               :   0.137227E+04  Angstrom^3

  Fractional coordinates:
                         L1                L2                L3
       atom_frac         0.10736336        0.00065424        0.16707170  C
       atom_frac         0.42346685        0.25530387        0.33152928  C
       atom_frac         0.94092884        0.50022475        0.34833352  C
       atom_frac         0.61999970        0.24202946        0.17378555  C
       atom_frac         0.13648290        0.07274251        0.11356858  C
       atom_frac         0.37918227        0.32403114        0.38217768  C
       atom_frac         0.89734109        0.42965404        0.39626889  C
       atom_frac         0.65159030        0.16908249        0.12031820  C
       atom_frac         0.06632183        0.04711347        0.01943339  C
       atom_frac         0.44421273        0.29646633        0.47489913  C
       atom_frac         0.96302960        0.45374411        0.49005016  C
       atom_frac         0.58473405        0.19576010        0.02687101  C
       atom_frac         0.08678603        0.13058249        0.46784440  C
       atom_frac         0.45448345        0.37225758        0.04329902  C
       atom_frac         0.95197327        0.37184175        0.04647554  C
       atom_frac         0.58151133        0.12285606        0.45996623  C
       atom_frac         0.03808231        0.10092508        0.38065283  C
       atom_frac         0.52220550        0.34590236        0.13482745  C
       atom_frac         1.01743243        0.40377525        0.13655851  C
       atom_frac         0.52617581        0.15196296        0.37136273  C
       atom_frac         0.17178238        0.01593157        0.23898108  H
       atom_frac         0.38837904        0.27977525        0.26194225  H
       atom_frac         0.89043388        0.47656145        0.27543587  H
       atom_frac         0.66687743        0.21888973        0.24375764  H
       atom_frac         0.23030706        0.14864731        0.14831826  H
       atom_frac         0.28549242        0.40182323        0.35277131  H
       atom_frac         0.81768004        0.35035269        0.36175068  H
       atom_frac         0.72175060        0.08783165        0.14622176  H
       atom_frac         0.16118328        0.21116414        0.49609416  H
       atom_frac         0.38620005        0.45544108        0.01827299  H
       atom_frac         0.86640417        0.29244697        0.01849309  H
       atom_frac         0.65686947        0.04273577        0.49314125  H
       atom_frac         0.07785082        0.15403199        0.34447580  H
       atom_frac         0.48911683        0.40261027        0.17392933  H
       atom_frac         0.99096388        0.35034175        0.18046221  H
       atom_frac         0.56227104        0.09805976        0.33059781  H
       atom_frac         0.05915462        0.01336692        0.66178129  C
       atom_frac         0.44569226        0.25205303        0.83977737  C
       atom_frac         0.94060798        0.49414226        0.84273730  C
       atom_frac         0.57178572        0.24129293        0.65700333  C
       atom_frac         0.10635638        0.08537710        0.61425273  C
       atom_frac         0.41222408        0.32689731        0.89206005  C
       atom_frac         0.90607265        0.42181902        0.89462018  C
       atom_frac         0.60068500        0.16388384        0.60643067  C
       atom_frac         0.05162079        0.05733215        0.52302949  C
       atom_frac         0.47538461        0.29961700        0.98515745  C
       atom_frac         0.97682278        0.44617845        0.98848210  C
       atom_frac         0.54365725        0.19078367        0.51575102  C
       atom_frac         0.08890987        0.12166246        0.96128866  C
       atom_frac         0.42006774        0.37396886        0.52941648  C
       atom_frac         0.94503640        0.37816919        0.54925850  C
       atom_frac         0.61741983        0.12405892        0.97110130  C
       atom_frac         0.01691125        0.08865657        0.87089167  C
       atom_frac         0.48405345        0.34591162        0.62048892  C
       atom_frac         1.00422064        0.40638384        0.63794757  C
       atom_frac         0.54608474        0.15101936        0.87959609  C
       atom_frac         0.10448080        0.04072416        0.73333225  H
       atom_frac         0.38740442        0.27282239        0.76634034  H
       atom_frac         0.88465838        0.47205387        0.76969305  H
       atom_frac         0.61947007        0.22135943        0.72880118  H
       atom_frac         0.17395825        0.16639731        0.64257544  H
       atom_frac         0.33006234        0.40414731        0.86293774  H
       atom_frac         0.84402873        0.33828704        0.86619226  H
       atom_frac         0.66780952        0.08047887        0.63651531  H
       atom_frac         0.15841475        0.20327020        0.98956928  H
       atom_frac         0.34800375        0.45540909        0.50279818  H
       atom_frac         0.87024944        0.29715993        0.52126756  H
       atom_frac         0.68999632        0.04143695        0.99765647  H
       atom_frac         0.04279583        0.14608670        0.83021723  H
       atom_frac         0.47152446        0.40914141        0.66407769  H
       atom_frac         0.97355377        0.34840572        0.67613904  H
       atom_frac         0.57727460        0.09220034        0.84157297  H
       atom_frac         0.12473346        0.50826515        0.17389847  C
       atom_frac         0.43971335        0.75645623        0.34015935  C
       atom_frac         0.94290094        0.99553030        0.34208401  C
       atom_frac         0.61648378        0.74031566        0.16900828  C
       atom_frac         0.15334504        0.58074747        0.11943934  C
       atom_frac         0.40189076        0.82949411        0.39099714  C
       atom_frac         0.90111573        0.92324074        0.39036728  C
       atom_frac         0.65147302        0.67502104        0.11440816  C
       atom_frac         0.07738486        0.55077020        0.02502737  C
       atom_frac         0.46309805        0.80288300        0.48512630  C
       atom_frac         0.95953374        0.95024411        0.48272539  C
       atom_frac         0.57636699        0.70458670        0.02190836  C
       atom_frac         0.11543756        0.62876178        0.48030976  C
       atom_frac         0.43987709        0.87581650        0.04198368  C
       atom_frac         0.94733063        0.86726431        0.04335093  C
       atom_frac         0.59295342        0.62373653        0.46964982  C
       atom_frac         0.05822109        0.60256145        0.39103642  C
       atom_frac         0.51455230        0.84452862        0.13201131  C
       atom_frac         1.00391164        0.89501684        0.13118856  C
       atom_frac         0.53052531        0.65110185        0.37940012  C
       atom_frac         0.16896117        0.53375505        0.24296997  H
       atom_frac         0.38401661        0.77559680        0.26724487  H
       atom_frac         0.90927580        0.97859428        0.27203756  H
       atom_frac         0.66661636        0.71394108        0.24092116  H
       atom_frac         0.23180552        0.66241498        0.14768419  H
       atom_frac         0.32276411        0.90850168        0.35847092  H
       atom_frac         0.83163521        0.84105135        0.36142313  H
       atom_frac         0.72934512        0.59515320        0.13983968  H
       atom_frac         0.19616354        0.70572811        0.51382216  H
       atom_frac         0.36161197        0.95622054        0.01792116  H
       atom_frac         0.87001777        0.78954798        0.01085774  H
       atom_frac         0.65713736        0.54203030        0.49719256  H
       atom_frac         0.09228007        0.66273822        0.35323564  H
       atom_frac         0.49229182        0.89771044        0.17478715  H
       atom_frac         0.98194160        0.83619613        0.17418956  H
       atom_frac         0.56505808        0.59820791        0.33801937  H
       atom_frac         0.09954052        0.51143603        0.67686920  C
       atom_frac         0.40582680        0.76042593        0.83100280  C
       atom_frac         0.92466337        0.98287879        0.83589860  C
       atom_frac         0.60040501        0.74893182        0.67021358  C
       atom_frac         0.13456727        0.58165488        0.62462510  C
       atom_frac         0.38552869        0.83521886        0.88665222  C
       atom_frac         0.90167660        0.91063973        0.89157608  C
       atom_frac         0.63435367        0.67395455        0.62075405  C
       atom_frac         0.07448269        0.55532071        0.53294735  C
       atom_frac         0.46034180        0.80702441        0.98031776  C
       atom_frac         0.97231753        0.94031987        0.98505223  C
       atom_frac         0.56012266        0.69747391        0.52430114  C
       atom_frac         0.10173588        0.62755724        0.96818346  C
       atom_frac         0.43004042        0.87772727        0.53722311  C
       atom_frac         0.92110166        0.87624579        0.53500527  C
       atom_frac         0.59605020        0.63201347        0.96123254  C
       atom_frac         0.04334140        0.59614899        0.87901393  C
       atom_frac         0.49272098        0.84949495        0.62731709  C
       atom_frac         0.97141237        0.90831650        0.62239814  C
       atom_frac         0.51245402        0.65749663        0.86946782  C
       atom_frac         0.15203886        0.53319360        0.74987838  H
       atom_frac         0.33514413        0.77832155        0.75691346  H
       atom_frac         0.86859677        0.95761785        0.76478322  H
       atom_frac         0.66064427        0.73550842        0.74381825  H
       atom_frac         0.21790804        0.66148485        0.65592036  H
       atom_frac         0.29223257        0.91252525        0.85517320  H
       atom_frac         0.84211200        0.82500000        0.86967824  H
       atom_frac         0.71840139        0.59667256        0.65359029  H
       atom_frac         0.18615955        0.70581566        1.00060938  H
       atom_frac         0.35862669        0.95978956        0.50811413  H
       atom_frac         0.85697628        0.79400084        0.50858407  H
       atom_frac         0.67155141        0.55172222        0.98555023  H
       atom_frac         0.07092661        0.65353620        0.83768017  H
       atom_frac         0.46358235        0.90599327        0.66712038  H
       atom_frac         0.93583906        0.85335859        0.66134362  H
       atom_frac         0.51989208        0.59484512        0.82609297  H

 
  Finished reading input file 'geometry.in'.
 

 
  Consistency checks for stacksize environment parameter are next.
 
  | Maximum stacksize for task 0: unlimited
  | Maximum stacksize for task 1: unlimited
  | Maximum stacksize for task 2: unlimited
  | Maximum stacksize for task 3: unlimited
  | Maximum stacksize for task 4: unlimited
  | Maximum stacksize for task 5: unlimited
  | Maximum stacksize for task 6: unlimited
  | Maximum stacksize for task 7: unlimited
  | Maximum stacksize for task 8: unlimited
  | Maximum stacksize for task 9: unlimited
  | Maximum stacksize for task 10: unlimited
  | Maximum stacksize for task 11: unlimited
  | Maximum stacksize for task 12: unlimited
  | Maximum stacksize for task 13: unlimited
  | Maximum stacksize for task 14: unlimited
  | Maximum stacksize for task 15: unlimited
  | Maximum stacksize for task 16: unlimited
  | Maximum stacksize for task 17: unlimited
  | Current stacksize for task 0: unlimited
  | Current stacksize for task 1: unlimited
  | Current stacksize for task 2: unlimited
  | Current stacksize for task 3: unlimited
  | Current stacksize for task 4: unlimited
  | Current stacksize for task 5: unlimited
  | Current stacksize for task 6: unlimited
  | Current stacksize for task 7: unlimited
  | Current stacksize for task 8: unlimited
  | Current stacksize for task 9: unlimited
  | Current stacksize for task 10: unlimited
  | Current stacksize for task 11: unlimited
  | Current stacksize for task 12: unlimited
  | Current stacksize for task 13: unlimited
  | Current stacksize for task 14: unlimited
  | Current stacksize for task 15: unlimited
  | Current stacksize for task 16: unlimited
  | Current stacksize for task 17: unlimited
 
  Consistency checks for the contents of control.in are next.
 
  MPI_IN_PLACE appears to work with this MPI implementation.
  | Keeping use_mpi_in_place .true. (see manual).
  Explicit treatment of the Coulomb operator is needed, but the RI method is not specified.
  Coulomb operator: Defaulting to 'LVL fast' resolution of identity - RI_type = LVL_fast
  Species H: Using default value for prodbas_acc =   1.000000E-06.
  Species H: Using default value max_l_prodbas =     6.
  Species C: Using default value for prodbas_acc =   1.000000E-06.
  Species C: Using default value max_l_prodbas =     6.
  Target number of points in a grid batch is not set.  Since GPU acceleration is enabled, defaulting to  200
  Method for grid partitioning is not set. Defaulting to parallel hash+maxmin partitioning.
  Batch size limit is not set. Defaulting to    200
  By default, will store active basis functions for each batch.
  If in need of memory, prune_basis_once .false. can be used to disable this option.
  communication_type for Hartree potential was not specified.
  Defaulting to calc_hartree .
  Defaulting to Pulay charge density mixer.
  Pulay mixer: Number of relevant iterations not set.
  Defaulting to    8 iterations.
  Pulay mixer: Number of initial linear mixing iterations not set.
  Defaulting to    0 iterations.
  Work space size for distributed Hartree potential not set.
  Defaulting to   0.200000E+03 MB.
  Algorithm-dependent basis array size parameters:
  | n_max_pulay                         :        8
  Maximum number of self-consistency iterations not provided.
  Presetting  1000 iterations.
  Presetting      1001 iterations before the initial mixing cycle
  is restarted anyway using the sc_init_iter criterion / keyword.
  Presetting a factor      1.000 between actual scf density residual
  and density convergence criterion sc_accuracy_rho below which sc_init_iter
  takes no effect.
 * No s.c.f. convergence criteria (sc_accuracy_*) were provided in control.in.
 * The run will proceed with a reasonable default guess, but please check whether.
 * the s.c.f. cycles seem to take too much or too little time.
  Geometry relaxation not requested: no relaxation will be performed.
 * Notice: The s.c.f. convergence criterion sc_accuracy_rho was not provided.
 * We used to stop in this case, and ask the user to provide reasonable
 * scf convergence criteria. However, this led some users to employ criteria
 * that led to extremely long run times, e.g., for simple relaxation.
 * We now preset a default value for sc_accuracy_rho if it is not set.
 * You may still wish to check if this setting is too tight or too loose for your needs.
 * Based on n_atoms and forces and force-correction status, FHI-aims chose sc_accuracy_rho =  0.391918E-04 .
  No accuracy limit for integral partition fn. given. Defaulting to  0.1000E-14.
  No threshold value for u(r) in integrations given. Defaulting to  0.1000E-05.
  No occupation type (smearing scheme) given. Defaulting to Gaussian broadening, width =  0.1000E-01 eV.
  The width will be adjusted in iteration number     2 of the first full s.c.f. cycle only.
  S.C.F. convergence parameters will be adjusted in iteration number     2 of the first full s.c.f. cycle only.
  No accuracy for occupation numbers given. Defaulting to  0.1000E-12.
  No threshold value for occupation numbers given. Defaulting to  0.0000E+00.
  No accuracy for fermi level given. Defaulting to  0.1000E-19.
  Maximum # of iterations to find E_F not set. Defaulting to  200.
  Preferred method for the eigenvalue solver ('KS_method') not specified in 'control.in'.
  Calling BLACS routine to test compilation state
  Since ScaLAPACK support is enabled, defaulting to ELPA (via ELSI).
  Will not use alltoall communication since running on < 1024 CPUs.
  Threshold for basis singularities not set.
  Default threshold for basis singularities:  0.1000E-04
  partition_type (choice of integration weights) for integrals was not specified.
  | Using a version of the partition function of Stratmann and coworkers ('stratmann_sparse').
  | At each grid point, the set of atoms used to build the partition table is smoothly restricted to
  | only those atoms whose free-atom density would be non-zero at that grid point.
  Partitioning for Hartree potential was not defined. Using partition_type for integrals.
  | Adjusted default value of keyword multip_moments_threshold to:       0.10000000E-11
  | This value may affect high angular momentum components of the Hartree potential in periodic systems.
  Angular momentum expansion for Kerker preconditioner not set explicitly.
  | Using default value of   0
  No explicit requirement for turning off preconditioner.
  | By default, it will be turned off when the charge convergence reaches
  | sc_accuracy_rho  =   0.391918E-04
  No special mixing parameter while Kerker preconditioner is on.
  Using default: charge_mix_param =     0.7500.
  Threshold for auxiliary basis singularities not set.
  Default threshold for auxiliary basis singularities:  0.1000E-04
  No q(lm)/r^(l+1) cutoff set for long-range Hartree potential.
  | Using default value of  0.100000E-09 .
  | Verify using the multipole_threshold keyword.
  Defaulting to new monopole extrapolation.
  Density update method: automatic selection selected.
  Using density matrix based charge density update.
  Using density matrix based charge density update.
  Using packed matrix style: index .
  Defaulting to use time-reversal symmetry for k-point grid.
  Charge integration errors on the 3D integration grid will be compensated
  by explicit normalization and distribution of residual charges.
  Use the "compensate_multipole_errors" flag to change this behaviour.
  Default to 1D ("use_logsbt") integrations for auxiliary 2-center integrals.
  Default onset of logarithmic r-grid for SBT is -38.000000000000
  Default onset of logarithmic k-grid for SBT is -25.000000000000
  Default range of logarithmic r- and k-grid for SBT is  45.000000000000
  Default number of logarithmic r- and k-grid for SBT is   4096
  Default of use_2d_corr is to use the efficient 2D distribution where possible
 
  Consistency checks for the contents of geometry.in are next.
 

  Range separation radius for Ewald summation (hartree_convergence_parameter):      2.91768261 bohr.
  Number of empty states per atom not set in control.in .
  | Since you are using a method that relies on the unoccupied spectrum
  | (MP2,GW,RPA et al.), will use the full Hamiltonian size (see below)
  | as the max. possible number of states (occupied plus empty).

  Structure-dependent array size parameters: 
  | Maximum number of distinct radial functions  :        9
  | Maximum number of basis functions            :     1440
  | Number of Kohn-Sham states (occupied + empty):     1440
------------------------------------------------------------
CUDA runtime version: 11060
CUDA driver version: 11060
  Initializing GPUs...

  Number of GPUs available to MPI task         0 :   1
  Number of GPUs available to MPI task         1 :   1
  Number of GPUs available to MPI task         2 :   1
  Number of GPUs available to MPI task         3 :   1
  Number of GPUs available to MPI task         4 :   1
  Number of GPUs available to MPI task         5 :   1
  Number of GPUs available to MPI task         6 :   1
  Number of GPUs available to MPI task         7 :   1
  Number of GPUs available to MPI task         8 :   1
  Number of GPUs available to MPI task         9 :   1
  Number of GPUs available to MPI task        10 :   1
  Number of GPUs available to MPI task        11 :   1
  Number of GPUs available to MPI task        12 :   1
  Number of GPUs available to MPI task        13 :   1
  Number of GPUs available to MPI task        14 :   1
  Number of GPUs available to MPI task        15 :   1
  Number of GPUs available to MPI task        16 :   1
  Number of GPUs available to MPI task        17 :   1

  | MPI task         0, GPU activated = T, Device Name = NVIDIA A100-SXM4-80GB
  | MPI task         1, GPU activated = T, Device Name = NVIDIA A100-SXM4-80GB
  | MPI task         2, GPU activated = T, Device Name = NVIDIA A100-SXM4-80GB
  | MPI task         3, GPU activated = T, Device Name = NVIDIA A100-SXM4-80GB
  | MPI task         4, GPU activated = T, Device Name = NVIDIA A100-SXM4-80GB
  | MPI task         5, GPU activated = T, Device Name = NVIDIA A100-SXM4-80GB
  | MPI task         6, GPU activated = T, Device Name = NVIDIA A100-SXM4-80GB
  | MPI task         7, GPU activated = T, Device Name = NVIDIA A100-SXM4-80GB
  | MPI task         8, GPU activated = T, Device Name = NVIDIA A100-SXM4-80GB
  | MPI task         9, GPU activated = T, Device Name = NVIDIA A100-SXM4-80GB
  | MPI task        10, GPU activated = T, Device Name = NVIDIA A100-SXM4-80GB
  | MPI task        11, GPU activated = T, Device Name = NVIDIA A100-SXM4-80GB
  | MPI task        12, GPU activated = T, Device Name = NVIDIA A100-SXM4-80GB
  | MPI task        13, GPU activated = T, Device Name = NVIDIA A100-SXM4-80GB
  | MPI task        14, GPU activated = T, Device Name = NVIDIA A100-SXM4-80GB
  | MPI task        15, GPU activated = T, Device Name = NVIDIA A100-SXM4-80GB
  | MPI task        16, GPU activated = T, Device Name = NVIDIA A100-SXM4-80GB
  | MPI task        17, GPU activated = T, Device Name = NVIDIA A100-SXM4-80GB

------------------------------------------------------------
          Preparing all fixed parts of the calculation.
------------------------------------------------------------
  Determining machine precision:
    2.225073858507201E-308
  Setting up grids for atomic and cluster calculations.

  Creating wave function, potential, and density for free atoms.
  Runtime choices for atomic solver:
  | atomic solver xc        : PW-LDA
  | compute density gradient: 0
  | compute kinetic density : F

  Species: H

  List of occupied orbitals and eigenvalues:
    n    l              occ      energy [Ha]    energy [eV]
    1    0           1.0000        -0.232375        -6.3233


  Species: C

  List of occupied orbitals and eigenvalues:
    n    l              occ      energy [Ha]    energy [eV]
    1    0           2.0000        -9.944615      -270.6068
    2    0           2.0000        -0.498807       -13.5732
    2    1           2.0000        -0.196968        -5.3598


  Adding cutoff potential to free-atom effective potential.
  Creating fixed part of basis set: Ionic, confined, hydrogenic.
 
  H                    hydrogenic:
 
  List of hydrogenic basis orbitals: 
    n    l      effective z      eigenvalue [eV]  inner max. [A]     outer max. [A]     outer radius [A]   
    2    0         2.100000       -14.9728           0.193243           1.317208           4.583499
    2    1         3.500000       -41.6669           0.602369           0.602369           3.723403
 
 
  C                    hydrogenic:
 
  List of hydrogenic basis orbitals: 
    n    l      effective z      eigenvalue [eV]  inner max. [A]     outer max. [A]     outer radius [A]   
    2    1         1.700000        -9.7616           1.230570           1.230570           4.607917
    3    2         6.000000       -54.4224           0.792453           0.792453           3.883070
    2    0         4.900000       -81.6679           0.082559           0.562749           3.078220
 
  Creating atomic-like basis functions for current effective potential.

  Species H                   :

  List of atomic basis orbitals and eigenvalues:
    n    l      energy [Ha]    energy [eV]    outer radius [A]
    1    0        -0.232375        -6.3233       4.527807


  Species C                   :

  List of atomic basis orbitals and eigenvalues:
    n    l      energy [Ha]    energy [eV]    outer radius [A]
    1    0        -9.944615      -270.6068       1.934409
    2    0        -0.498807       -13.5732       4.496620
    2    1        -0.196968        -5.3598       4.551928

  Assembling full basis from fixed parts.
  | Species H :   atomic orbital   1 s accepted.
  | Species H :    hydro orbital   2 s accepted.
  | Species H :    hydro orbital   2 p accepted.
  | Species C :   atomic orbital   1 s accepted.
  | Species C :    hydro orbital   2 s accepted.
  | Species C :   atomic orbital   2 s accepted.
  | Species C :   atomic orbital   2 p accepted.
  | Species C :    hydro orbital   2 p accepted.
  | Species C :    hydro orbital   3 d accepted.
 
  Basis size parameters after reduction:
  | Total number of radial functions:        9
  | Total number of basis functions :     1440
 
  Per-task memory consumption for arrays in subroutine allocate_ext:
  |           2.242384MB.
  Testing on-site integration grid accuracy.
  |  Species  Function  <phi|h_atom|phi> (log., in eV)  <phi|h_atom|phi> (rad., in eV)
           1        1                 -6.3245358373                 -6.3232436907
           1        2                 14.1326137532                 14.1384481100
           1        3                 25.3627025200                 25.3628451197
           2        4               -270.6067544938               -270.6067222788
           2        5                -10.5634280949                -10.5635685736
           2        6                 16.2089822398                 16.2052121796
           2        7                 -5.3613872565                 -5.3627872378
           2        8                  8.5292058327                  8.5051734780
           2        9                 27.4884461005                 27.4884542459

  Preparing densities etc. for the partition functions (integrals / Hartree potential).

  Preparations completed.
  max(cpu_time)          :      0.074 s.
  Wall clock time (cpu1) :      0.072 s.
------------------------------------------------------------

  Initializing index lists of integration centers etc. from given atomic structure:
  Mapping all atomic coordinates to central unit cell.

  Initializing the k-points
  Using symmetry for reducing the k-points
  | k-points reduced from:        2 to        2
  | Number of k-points                             :         2
  | Consuming          0 KiB for k_phase_exx.
  The eigenvectors in the calculations are REAL.
  | Number of basis functions in the Hamiltonian integrals :      8053
  | Number of basis functions in a single unit cell        :      1440
  | Number of centers in hartree potential         :      3348
  | Number of centers in hartree multipole         :      2556
  | Number of centers in electron density summation:      1996
  | Number of centers in basis integrals           :      2134
  | Number of centers in integrals                 :       965
  | Number of centers in hamiltonian               :      2007
  | Consuming          1 KiB for k_phase.
  | Number of super-cells (origin) [n_cells]                     :         175
  | Number of super-cells (after PM_index) [n_cells]             :          38
  | Number of super-cells in hamiltonian [n_cells_in_hamiltonian]:          38
  | Size of matrix packed + index [n_hamiltonian_matrix_size] :     1931167
  | Size of matrix packed + index (no_symmetry):     3859517

------------------------------------------------------------
          Begin self-consistency loop: Initialization.

          Date     :  20230119, Time     :  205003.186
------------------------------------------------------------
  | Estimated reciprocal-space cutoff momentum G_max:         3.24344278 bohr^-1 .
  | Reciprocal lattice points for long-range Hartree potential:    5310
  Using simple linear distribution as default method for k-point parallelism.
  * Using 18 tasks for Scalapack Eigenvalue solver.
  Detailed listing of tasks and assigned k-points:
   Task     0 k-point     1 on adag012
   Task     1 k-point     1 on adag012
   Task     2 k-point     1 on adag012
   Task     3 k-point     1 on adag012
   Task     4 k-point     1 on adag012
   Task     5 k-point     1 on adag012
   Task     6 k-point     1 on adag012
   Task     7 k-point     1 on adag012
   Task     8 k-point     1 on adag012
   Task     9 k-point     2 on adag012
   Task    10 k-point     2 on adag012
   Task    11 k-point     2 on adag012
   Task    12 k-point     2 on adag012
   Task    13 k-point     2 on adag012
   Task    14 k-point     2 on adag012
   Task    15 k-point     2 on adag012
   Task    16 k-point     2 on adag012
   Task    17 k-point     2 on adag012
  K-point:     1 Tasks:     9 split into      3 X      3 BLACS grid
  Calculating block size based on n_basis =         1440  max_nprow =            3  max_npcol =            3
  ScaLAPACK block size set to:           16
  Allocating        1.758 MB for ovlp
  Allocating        1.758 MB for ham
  Allocating        1.758 MB for eigenvec
  Required Scalapack workspace - INTEGER:            1  REAL:             1
  Partitioning the integration grid into batches with parallel hashing+maxmin method.
  | Number of batches:     5494
  | Maximal batch size:     200
  | Minimal batch size:      99
  | Average batch size:     139.032
  | Standard deviation of batch sizes:      30.334

  Integration load balanced across    18 MPI tasks.
  Work distribution over tasks is as follows:
  Task     0 has      42430 integration points.
  Task     1 has      42445 integration points.
  Task     2 has      42441 integration points.
  Task     3 has      42404 integration points.
  Task     4 has      42423 integration points.
  Task     5 has      42425 integration points.
  Task     6 has      42437 integration points.
  Task     7 has      42442 integration points.
  Task     8 has      42435 integration points.
  Task     9 has      42381 integration points.
  Task    10 has      42489 integration points.
  Task    11 has      42434 integration points.
  Task    12 has      42460 integration points.
  Task    13 has      42460 integration points.
  Task    14 has      42448 integration points.
  Task    15 has      42429 integration points.
  Task    16 has      42449 integration points.
  Task    17 has      42408 integration points.
  Initializing partition tables, free-atom densities, potentials, etc. across the integration grid (initialize_grid_storage).
  | initialize_grid_storage: Actual outermost partition radius vs. multipole_radius_free
  | (-- VB: in principle, multipole_radius_free should be larger, hence this output)
  | Species        1: Confinement radius =              4.999999999999999 AA, multipole_radius_free =              5.054417573612229 AA.
  | Species        1: outer_partition_radius set to              5.054417573612229 AA .
  | Species        2: Confinement radius =              4.999999999999999 AA, multipole_radius_free =              5.019602836301480 AA.
  | Species        2: outer_partition_radius set to              5.019602836301480 AA .
  | The sparse table of interatomic distances needs       7690.51 kbyte instead of     36431.65 kbyte of memory.
  | Net number of integration points:   763840
  | of which are non-zero points    :   605373
  | Numerical average free-atom electrostatic potential    :     -8.61465939 eV
  Renormalizing the initial density to the exact electron count on the 3D integration grid.
  | Initial density: Formal number of electrons (from input files) :     544.0000000000
  | Integrated number of electrons on 3D grid     :     543.9951339081
  | Charge integration error                      :      -0.0048660919
  | Normalization factor for density and gradient :       1.0000089451
  Renormalizing the free-atom superposition density to the exact electron count on the 3D integration grid.
  | Formal number of electrons (from input files) :     544.0000000000
  | Integrated number of electrons on 3D grid     :     543.9951339081
  | Charge integration error                      :      -0.0048660919
  | Normalization factor for density and gradient :       1.0000089451
  Obtaining max. number of non-zero basis functions in each batch (get_n_compute_maxes).
  | Maximal number of non-zero basis functions:      561 in task     0
  | Maximal number of non-zero basis functions:      541 in task     1
  | Maximal number of non-zero basis functions:      539 in task     2
  | Maximal number of non-zero basis functions:      552 in task     3
  | Maximal number of non-zero basis functions:      546 in task     4
  | Maximal number of non-zero basis functions:      531 in task     5
  | Maximal number of non-zero basis functions:      561 in task     6
  | Maximal number of non-zero basis functions:      535 in task     7
  | Maximal number of non-zero basis functions:      542 in task     8
  | Maximal number of non-zero basis functions:      537 in task     9
  | Maximal number of non-zero basis functions:      547 in task    10
  | Maximal number of non-zero basis functions:      540 in task    11
  | Maximal number of non-zero basis functions:      550 in task    12
  | Maximal number of non-zero basis functions:      557 in task    13
  | Maximal number of non-zero basis functions:      561 in task    14
  | Maximal number of non-zero basis functions:      532 in task    15
  | Maximal number of non-zero basis functions:      537 in task    16
  | Maximal number of non-zero basis functions:      543 in task    17
  Integrating Hamiltonian matrix: batch-based integration.
  GPU acceleration will be used when integrating the Hamiltonian matrix.
  Reporting GPU memory usage by myid 0.  Note that it is likely not the only MPI task binding to its GPU!
  Allocating        2.518 MB on GPU for hamiltonian_shell
  Allocating        0.898 MB on GPU for wave
  Allocating        0.002 MB on GPU for partition
  Allocating        0.898 MB on GPU for h_times_psi
  Time summed over all CPUs for integration: real work       21.653 s, elapsed       22.094 s
  Deallocating memory used on GPU for Hamiltonian integration.
  Integrating overlap matrix.
  Time summed over all CPUs for integration: real work       18.518 s, elapsed       18.764 s
  Deallocating overlap matrix.

  Updating Kohn-Sham eigenvalues and eigenvectors using ELSI and the ELPA eigensolver.
  Singularity check in k-point 1 (analysis for other k-points may follow below):
  Overlap matrix is not singular
  | Lowest and highest eigenvalues :  0.7855E-03,  0.8246E+01
  Finished singularity check of overlap matrix
  | Time :     0.096 s
  Starting ELPA eigensolver
  Finished Cholesky decomposition
  | Time :     0.016 s
  Finished transformation to standard eigenproblem
  | Time :     0.021 s
  Finished solving standard eigenproblem
  | Time :     0.203 s
  Finished back-transformation of eigenvectors
  | Time :     0.016 s

  Obtaining occupation numbers and electronic chemical potential using ELSI.
  | Note that, for insulating systems, the printed 'chemical potential' value is not uniquely defined.
  | It can be anywhere in the energy gap, as long as it correctly separates occupied and unoccupied states.
  | In systems with a gap, the physically relevant chemical potential is the VBM or HOMO.

  | Chemical potential (Fermi level):    -8.04940596 eV
  Writing Kohn-Sham eigenvalues.
  K-point:       1 at    0.000000    0.000000    0.000000 (in units of recip. lattice)

  State    Occupation    Eigenvalue [Ha]    Eigenvalue [eV]
      1       2.00000         -10.070150         -274.02272
      2       2.00000         -10.069729         -274.01125
      3       2.00000         -10.069573         -274.00702
      4       2.00000         -10.068792         -273.98577
      5       2.00000         -10.068772         -273.98524
      6       2.00000         -10.068510         -273.97809
      7       2.00000         -10.067702         -273.95610
      8       2.00000         -10.067573         -273.95260
      9       2.00000         -10.067413         -273.94823
     10       2.00000         -10.066953         -273.93572
     11       2.00000         -10.066897         -273.93421
     12       2.00000         -10.066773         -273.93084
     13       2.00000         -10.066531         -273.92425
     14       2.00000         -10.066380         -273.92013
     15       2.00000         -10.066290         -273.91768
     16       2.00000         -10.066287         -273.91761
     17       2.00000         -10.065952         -273.90849
     18       2.00000         -10.065901         -273.90710
     19       2.00000         -10.065838         -273.90540
     20       2.00000         -10.065771         -273.90356
     21       2.00000         -10.065167         -273.88712
     22       2.00000         -10.065136         -273.88628
     23       2.00000         -10.065093         -273.88511
     24       2.00000         -10.065072         -273.88455
     25       2.00000         -10.064970         -273.88176
     26       2.00000         -10.064920         -273.88042
     27       2.00000         -10.064749         -273.87576
     28       2.00000         -10.064700         -273.87442
     29       2.00000         -10.064510         -273.86924
     30       2.00000         -10.064409         -273.86651
     31       2.00000         -10.064378         -273.86567
     32       2.00000         -10.064311         -273.86384
     33       2.00000         -10.064172         -273.86005
     34       2.00000         -10.063910         -273.85291
     35       2.00000         -10.063834         -273.85086
     36       2.00000         -10.063776         -273.84928
     37       2.00000         -10.063764         -273.84895
     38       2.00000         -10.063428         -273.83981
     39       2.00000         -10.063403         -273.83912
     40       2.00000         -10.063237         -273.83462
     41       2.00000         -10.063232         -273.83448
     42       2.00000         -10.063181         -273.83307
     43       2.00000         -10.062974         -273.82746
     44       2.00000         -10.062734         -273.82093
     45       2.00000         -10.062697         -273.81992
     46       2.00000         -10.062666         -273.81908
     47       2.00000         -10.062516         -273.81500
     48       2.00000         -10.062446         -273.81309
     49       2.00000         -10.062434         -273.81275
     50       2.00000         -10.062059         -273.80255
     51       2.00000         -10.061997         -273.80086
     52       2.00000         -10.061850         -273.79688
     53       2.00000         -10.061772         -273.79474
     54       2.00000         -10.061261         -273.78083
     55       2.00000         -10.060567         -273.76195
     56       2.00000         -10.060562         -273.76182
     57       2.00000         -10.060155         -273.75074
     58       2.00000         -10.060100         -273.74924
     59       2.00000         -10.059671         -273.73758
     60       2.00000         -10.059294         -273.72733
     61       2.00000         -10.059113         -273.72240
     62       2.00000         -10.058995         -273.71919
     63       2.00000         -10.058825         -273.71456
     64       2.00000         -10.058819         -273.71439
     65       2.00000         -10.058761         -273.71280
     66       2.00000         -10.058335         -273.70123
     67       2.00000         -10.058000         -273.69211
     68       2.00000         -10.057846         -273.68790
     69       2.00000         -10.057706         -273.68411
     70       2.00000         -10.057585         -273.68082
     71       2.00000         -10.057221         -273.67090
     72       2.00000         -10.056798         -273.65938
     73       2.00000         -10.056461         -273.65022
[...]
  |    H      0     4.527807 A      4.583499 A        4.713786E-16 a.u.
  |    H      2     3.678162 A  1.011968E+04 A            0.556529 a.u.
  |    H      1     3.958095 A  1.721251E+06 A            0.841931 a.u.
  |    H      0     4.527807 A  3.866455E+12 A            0.581436 a.u.
  |    C      0     2.562483 A      2.562483 A        6.563029E-17 a.u.
  |    C      0     2.967371 A      2.967371 A        1.352164E-16 a.u.
  |    C      0     3.003870 A      3.003870 A        2.312640E-17 a.u.
  |    C      1     3.272245 A      3.272245 A       -3.835259E-17 a.u.
  |    C      0     3.312494 A      3.312494 A       -2.710381E-16 a.u.
  |    C      3     4.077671 A      4.077671 A       -1.683752E-15 a.u.
  |    C      3     4.077671 A      4.077671 A        1.412852E-15 a.u.
  |    C      1     4.496620 A      4.496620 A       -3.011059E-16 a.u.
  |    C      0     4.496620 A      4.551928 A        2.873903E-17 a.u.
  |    C      2     4.551928 A      4.551928 A       -4.610785E-16 a.u.
  |    C      2     4.551928 A      4.551928 A        7.440584E-16 a.u.
  |    C      2     4.551928 A      4.551928 A       -7.110458E-16 a.u.
  |    C      2     4.551928 A      4.551928 A       -1.935424E-16 a.u.
  |    C      0     4.551928 A      4.607917 A        2.067142E-16 a.u.
  |    C      0     4.551928 A      4.607917 A       -1.109786E-16 a.u.
  |    C      1     4.551928 A      4.607917 A       -9.951742E-17 a.u.
  |    C      1     4.551928 A      4.607917 A        1.937809E-16 a.u.
  |    C      1     4.607917 A      4.607917 A       -2.813308E-16 a.u.
  |    C      1     4.607917 A      4.607917 A       -7.330363E-17 a.u.
  |    C      2     4.607917 A      4.607917 A        1.318462E-15 a.u.
  |    C      2     4.607917 A      4.607917 A       -1.318397E-15 a.u.
  |    C      0     4.607917 A      4.664595 A        3.157826E-16 a.u.
  |    C      1     4.607917 A      4.664595 A        7.356967E-16 a.u.
  |    C      4     3.835889 A  2.962973E+02 A            4.379483 a.u.
  |    C      3     4.127827 A  1.725964E+03 A            9.005588 a.u.
  |    C      2     4.607917 A  2.608475E+04 A            9.531178 a.u.
  |    C      1     4.607917 A  2.736013E+06 A            2.127278 a.u.
  |    C      0     4.607917 A  4.399765E+12 A            0.661635 a.u.

  | Shrink_full_auxil_basis : there are       36  radial auxiliary wave functions
                            accepted and       7 rejected.
  | Shrink_full_auxil_basis : there are totally                8992 partial auxiliary wave functions.
 
  | Maximal number of product basis functions per thread :   512   512
 
  | Minimal total memory requirement for three-center overlap :      72.476 Gbs
  | Number of local auxiliary basis functions on task:      0   512
  | Number of local auxiliary basis functions on task:      1   512
  | Number of local auxiliary basis functions on task:      2   512
  | Number of local auxiliary basis functions on task:      3   512
  | Number of local auxiliary basis functions on task:      4   496
  | Number of local auxiliary basis functions on task:      5   496
  | Number of local auxiliary basis functions on task:      6   496
  | Number of local auxiliary basis functions on task:      7   496
  | Number of local auxiliary basis functions on task:      8   496
  | Number of local auxiliary basis functions on task:      9   496
  | Number of local auxiliary basis functions on task:     10   496
  | Number of local auxiliary basis functions on task:     11   496
  | Number of local auxiliary basis functions on task:     12   496
  | Number of local auxiliary basis functions on task:     13   496
  | Number of local auxiliary basis functions on task:     14   496
  | Number of local auxiliary basis functions on task:     15   496
  | Number of local auxiliary basis functions on task:     16   496
  | Number of local auxiliary basis functions on task:     17   496
  | 2D aux task distribution:      3 X      6
  | 2D block size (nb_aux_2d):     64
 
  Basis pair condensation :   1037520  -->     541393
 
 --------------------------------------------
  Constructing auxiliary basis (full product) ...
 
  Product basis:
  | charge radius: extent of product basis function
  | field radius: extent of its Coulomb potential
  | Species   l  charge radius    field radius  multipol momen
  |    H      1     3.910002 A      3.910002 A       -2.487223E-16 a.u.
  |    H      1     3.958095 A      3.958095 A       -2.441841E-16 a.u.
  |    H      0     4.527807 A      4.527807 A        1.268855E-16 a.u.
  |    H      0     4.527807 A      4.583499 A       -4.900954E-17 a.u.
  |    H      0     4.527807 A      4.583499 A        4.713786E-16 a.u.
  |    H      2     3.678162 A  1.011968E+04 A            0.556529 a.u.
  |    H      1     3.958095 A  1.721251E+06 A            0.841931 a.u.
  |    H      0     4.527807 A  3.866455E+12 A            0.581436 a.u.
  |    C      0     2.562483 A      2.562483 A        6.563029E-17 a.u.
  |    C      0     2.967371 A      2.967371 A        1.352164E-16 a.u.
  |    C      0     3.003870 A      3.003870 A        2.312640E-17 a.u.
  |    C      1     3.272245 A      3.272245 A       -3.835259E-17 a.u.
  |    C      0     3.312494 A      3.312494 A       -2.710381E-16 a.u.
  |    C      3     4.077671 A      4.077671 A       -1.683752E-15 a.u.
  |    C      3     4.077671 A      4.077671 A        1.412852E-15 a.u.
  |    C      1     4.496620 A      4.496620 A       -3.011059E-16 a.u.
  |    C      0     4.496620 A      4.551928 A        2.873903E-17 a.u.
  |    C      2     4.551928 A      4.551928 A       -4.610785E-16 a.u.
  |    C      2     4.551928 A      4.551928 A        7.440584E-16 a.u.
  |    C      2     4.551928 A      4.551928 A       -7.110458E-16 a.u.
  |    C      2     4.551928 A      4.551928 A       -1.935424E-16 a.u.
  |    C      0     4.551928 A      4.607917 A        2.067142E-16 a.u.
  |    C      0     4.551928 A      4.607917 A       -1.109786E-16 a.u.
  |    C      1     4.551928 A      4.607917 A       -9.951742E-17 a.u.
  |    C      1     4.551928 A      4.607917 A        1.937809E-16 a.u.
  |    C      1     4.607917 A      4.607917 A       -2.813308E-16 a.u.
  |    C      1     4.607917 A      4.607917 A       -7.330363E-17 a.u.
  |    C      2     4.607917 A      4.607917 A        1.318462E-15 a.u.
  |    C      2     4.607917 A      4.607917 A       -1.318397E-15 a.u.
  |    C      0     4.607917 A      4.664595 A        3.157826E-16 a.u.
  |    C      1     4.607917 A      4.664595 A        7.356967E-16 a.u.
  |    C      4     3.835889 A  2.962973E+02 A            4.379483 a.u.
  |    C      3     4.127827 A  1.725964E+03 A            9.005588 a.u.
  |    C      2     4.607917 A  2.608475E+04 A            9.531178 a.u.
  |    C      1     4.607917 A  2.736013E+06 A            2.127278 a.u.
  |    C      0     4.607917 A  4.399765E+12 A            0.661635 a.u.

  | Shrink_full_auxil_basis : there are       36  radial auxiliary wave functions
                            accepted and       7 rejected.
  | Shrink_full_auxil_basis : there are totally                8992 partial auxiliary wave functions.
 
  | Maximal number of product basis functions per thread :   512   512
 
  | Minimal total memory requirement for three-center overlap :      72.476 Gbs
  | Number of local auxiliary basis functions on task:      0   512
  | Number of local auxiliary basis functions on task:      1   512
  | Number of local auxiliary basis functions on task:      2   512
  | Number of local auxiliary basis functions on task:      3   512
  | Number of local auxiliary basis functions on task:      4   496
  | Number of local auxiliary basis functions on task:      5   496
  | Number of local auxiliary basis functions on task:      6   496
  | Number of local auxiliary basis functions on task:      7   496
  | Number of local auxiliary basis functions on task:      8   496
  | Number of local auxiliary basis functions on task:      9   496
  | Number of local auxiliary basis functions on task:     10   496
  | Number of local auxiliary basis functions on task:     11   496
  | Number of local auxiliary basis functions on task:     12   496
  | Number of local auxiliary basis functions on task:     13   496
  | Number of local auxiliary basis functions on task:     14   496
  | Number of local auxiliary basis functions on task:     15   496
  | Number of local auxiliary basis functions on task:     16   496
  | Number of local auxiliary basis functions on task:     17   496
  | 2D aux task distribution:      3 X      6
  | 2D block size (nb_aux_2d):     64
 
  Basis pair condensation :   1037520  -->     541393
  Allocating        0.069 MB for t_coeff
  Allocating        0.034 MB for basbas_idx
  Allocating        0.069 MB for wave
  Allocating        0.069 MB for total_wave
  Allocating        0.206 MB for wave_gradient
  Allocating        0.206 MB for total_wave_grad
 HERE1
 HERE2
  Deallocating        0.069 MB for t_coeff
  Deallocating        0.034 MB for basbas_idx
  Deallocating        0.069 MB for wave
  Deallocating        0.206 MB for wave_gradient
  Deallocating        0.206 MB for total_wave_grad
dP_dE (Bohr^3) at every cycle:--->
 (1015.66834375731,0.000000000000000E+000) (-3.14727960778945,0.000000000000000E+000) (-455.033003439485,0.000000000000000E+000)
 (-3.19766979659785,0.000000000000000E+000) (1337.48184282886,0.000000000000000E+000) (5.24474084795658,0.000000000000000E+000)
 (-455.227064780125,0.000000000000000E+000) (5.25679479741895,0.000000000000000E+000) (1681.59443306838,0.000000000000000E+000)
DFPT polarizability (Bohr^3)        xx        yy        zz        xy        xz        yz
  | Polarizability:--->                      1015.668343757                 1337.481842829                 1681.594433068                   -3.147279608                 -455.033003439                    5.244740848

DFPT for dielectric_constant:--->  # PARSE DFPT_dielectric_tensor
               2.378240277832495            -0.004270791294932            -0.617470079616112
              -0.004339169706300             2.814934331651113             0.007117001458081
              -0.617733416715947             0.007133358410385             3.281887776535379

                                               :  max(cpu_time)    wall_clock(cpu1)
  | Time for  dielectric calculation            :        0.000 s           0.000 s
===========================================================================

------------------------------------------------------------------------------
  Final output of selected total energy values:

  The following output summarizes some interesting total energy values
  at the end of a run (AFTER all relaxation, molecular dynamics, etc.).

  | Total energy of the DFT / Hartree-Fock s.c.f. calculation      :         -83267.624084175 eV
  | Final zero-broadening corrected energy (caution - metals only) :         -83267.624084175 eV
  | For reference only, the value of 1 Hartree used in FHI-aims is :             27.211384500 eV
  | For reference only, the overall average (free atom contribution
  | + realspace contribution) of the electrostatic potential after
  | s.c.f. convergence is                                          :             -7.705203608 eV

  Before relying on these values, please be sure to understand exactly which
  total energy value is referred to by a given number. Different objects may
  all carry the same name 'total energy'. Definitions:

  Total energy of the DFT / Hartree-Fock s.c.f. calculation:
  | Note that this energy does not include ANY quantities calculated after the
  | s.c.f. cycle, in particular not ANY RPA, MP2, etc. many-body perturbation terms.

  Final zero-broadening corrected energy:
  | For metallic systems only, a broadening of the occupation numbers at the Fermi
  | level can be extrapolated back to zero broadening by an electron-gas inspired
  | formula. For all systems that are not real metals, this value can be
  | meaningless and should be avoided.

------------------------------------------------------------------------------
  Methods described in the following list of references were used in this FHI-aims run.
  If you publish the results, please make sure to cite these reference if they apply.
  FHI-aims is an academic code, and for our developers (often, Ph.D. students
  and postdocs), scientific credit in the community is essential.
  Thank you for helping us!

  For any use of FHI-aims, please cite:

    Volker Blum, Ralf Gehrke, Felix Hanke, Paula Havu, Ville Havu,
    Xinguo Ren, Karsten Reuter, and Matthias Scheffler
    'Ab initio molecular simulations with numeric atom-centered orbitals'
    Computer Physics Communications 180, 2175-2196 (2009)
    http://doi.org/10.1016/j.cpc.2009.06.022


  For Hartree-Fock, hybrid functionals, or many-body perturbation theory used in your run, please cite:

    Xinguo Ren, Patrick Rinke, Volker Blum, Juergen Wieferink, Alex Tkatchenko,
    Andrea Sanfilippo, Karsten Reuter, and Matthias Scheffler,
    'Resolution-of-identity approach to Hartree-Fock, hybrid density functionals,
    RPA, MP2, and GW with numeric atom-centered orbital basis functions'
    New Journal of Physics 14, 053020 (2012).
    http://doi.org/10.1088/1367-2630/14/5/053020


  The provided symmetry information was generated with SPGlib:

    Atsushi Togo, Yusuke Seto, Dimitar Pashov
    SPGlib 1.7.3 obtained from http://spglib.sourceforge.net
    Copyright (C) 2008 Atsushi Togo


  The DFPT (perturbation by an electric field) part of the code was used.
  Here is the corresponding reference:

    Honghui Shang, Nathaniel Raimbault, Mariana Rossi,
    Christian Carbogno, Patrick Rinke and Matthias Scheffler,
    'All-Electron, Real-Space Perturbation Theory for Homogeneous
    Electric Fields: Theory, Implementation, and Application within dft'
    New Journal of Physics, 20(7):073040, 2018


  The ELSI infrastructure was used in your run to solve the Kohn-Sham electronic structure.
  Please check out http://elsi-interchange.org to learn more.
  If scalability is important for your project, please acknowledge ELSI by citing:

    V. W-z. Yu, F. Corsetti, A. Garcia, W. P. Huhn, M. Jacquelin, W. Jia,
    B. Lange, L. Lin, J. Lu, W. Mi, A. Seifitokaldani, A. Vazquez-Mayagoitia,
    C. Yang, H. Yang, and V. Blum
    'ELSI: A unified software interface for Kohn-Sham electronic structure solvers'
    Computer Physics Communications 222, 267-285 (2018).
    http://doi.org/10.1016/j.cpc.2017.09.007


  For the real-space grid partitioning and parallelization used in this calculation, please cite:

    Ville Havu, Volker Blum, Paula Havu, and Matthias Scheffler,
    'Efficient O(N) integration for all-electron electronic structure calculation'
    'using numerically tabulated basis functions'
    Journal of Computational Physics 228, 8367-8379 (2009).
    http://doi.org/10.1016/j.jcp.2009.08.008


  The high-level electronic structure method used in your calculation
  employed our efficient localized resolution of identity for the Coulomb operator.
  Some calculations, especially large-scale hybrid density functional theory,
  are only possible thanks to this development. For this feature, please cite:

    Arvid Ihrig, Juergen Wieferink, Igor Ying Zhang, Matti Ropo, Xinguo Ren,
    Patrick Rinke, Matthias Scheffler, and Volker Blum,
    'Accurate localized resolution of identity approach for linear-scaling
    hybrid density functionals and for many-body perturbation theory'
    New Journal of Physics 117, 093020 (2015).
    http://doi.org/10.1088/1367-2630/17/9/093020

  Of course, there are many other important community references, e.g., those cited in the
  above references. Our list is limited to references that describe implementations in the
  FHI-aims code. The reason is purely practical (length of this list) - please credit others as well.

------------------------------------------------------------
          Leaving FHI-aims.
          Date     :  20230119, Time     :  211339.734

          Computational steps:
          | Number of self-consistency cycles          :           46
          | Number of SCF (re)initializations          :            1
          | Number of coupled perturbed self-consistency cycles          :            0
          | Number of CPSCF (re)initializations          :            0

          Detailed time accounting                     :  max(cpu_time)    wall_clock(cpu1)
          | Total time                                  :     1418.634 s        1426.897 s
          | GPU initialization                          :        2.098 s           9.204 s
          | Preparation time                            :        0.074 s           0.072 s
          | Boundary condition initalization            :        0.965 s           0.965 s
          | Grid partitioning                           :        1.246 s           1.246 s
          | Preloading free-atom quantities on grid     :        3.662 s           3.664 s
          | Free-atom superposition energy              :        0.467 s           0.467 s
          | Total time for integrations                 :       17.177 s          17.265 s
          | Product basis setup: Total time             :        0.000 s           0.000 s
          | Product basis: | 2-center integrations     :(       0.000 s)  (       0.000 s)
          | Product basis: | LVL 3-center & coefficient:(       0.000 s)  (       0.000 s)
          | Total time for solution of K.-S. equations  :        3.280 s           3.282 s
          | Total time for density update               :       12.005 s          12.122 s
          | Total time for mixing & preconditioning     :       12.027 s          12.031 s
          | Total time for Hartree multipole update     :        0.096 s           0.097 s
          | Total time for Hartree multipole sum        :       44.129 s          44.140 s
          | Total time for total energy evaluation      :        0.006 s           0.003 s
          | Total time first_order_DM                   :        2.029 s           2.025 s
          | Total time first_order_density              :      304.748 s         304.808 s
          | Total time first_order_potential            :      122.113 s         122.150 s
          | Total time first_order_H                    :      585.884 s         586.053 s
          | Total time solving of Sternheimer equations :        1.959 s           1.965 s
          | Total time for dielectric constant          :        0.000 s           0.000 s
          | Total time momentum matrix                  :        0.000 s           0.000 s

          GPU acceleration has been used for charge density update.
          GPU acceleration has been used for real-space Hamiltonian integration.
          Due to GPU usage, wall_clock(cpu1) will give a more reliable estimate for timings.

          Partial memory accounting:
          | Residual value for overall tracked memory usage across tasks:     1.234863 MB (should be 0.000000 MB)
          |
          | Largest tracked array allocation:
          |   Minimum:      103.135 MB (DFPT_pulay_mixing::initialize_pulay_mixing::X_in_diffs on task  0)
          |   Maximum:      103.135 MB (DFPT_pulay_mixing::initialize_pulay_mixing::X_in_diffs on task  0)
          |   Average:      103.135 MB
          |
          | Because the residual tracked memory usage was not zero, the peak value for overall
          | tracked memory usage was not output, as it is probably incorrect.  This is likely due
          | to a missing aims_deallocate statement in the source code, which should be otherwise
          | harmless.
          |
          Note:  These values currently only include a subset of arrays which are explicitly tracked.
          The "true" memory usage will be greater.

          Have a nice day.
------------------------------------------------------------
