------------------------------------------------------------
          Invoking FHI-aims ...

          When using FHI-aims, please cite the following reference:

            Volker Blum, Ralf Gehrke, Felix Hanke, Paula Havu,
            Ville Havu, Xinguo Ren, Karsten Reuter, and Matthias Scheffler,
            'Ab Initio Molecular Simulations with Numeric Atom-Centered Orbitals',
            Computer Physics Communications 180, 2175-2196 (2009)

          In addition, many other developments in FHI-aims are likely important for
          your particular application. A partial list of references is given at the end of
          this file. Thank you for giving credit to the authors of these developments.

          For any questions about FHI-aims, please visit our slack channel at

            https://fhi-aims.slack.com

          and our main development and support site at

            https://aims-git.rz-berlin.mpg.de .

          The latter site, in particular, has a wiki to collect information, as well
          as an issue tracker to log discussions, suggest improvements, and report issues
          or bugs. https://aims-git.rz-berlin.mpg.de is also the main development site
          of the project and all new and updated code versions can be obtained there.
          Please send an email to aims-coordinators@fhi-berlin.mpg.de and we will add
          you to these sites. They are for you and everyone is welcome there.

------------------------------------------------------------



  Date     :  20230119, Time     :  173026.803
  Time zero on CPU 1             :   0.429501000000000E+00  s.
  Internal wall clock time zero  :           443381426.803  s.

  FHI-aims created a unique identifier for this run for later identification
  aims_uuid : AF5DAA77-1CA9-49C6-A258-16DE2110CE50

  Build configuration of the current instance of FHI-aims
  -------------------------------------------------------
  FHI-aims version      : 220829
  Commit number         : 9895fc21d
  CMake host system     : Linux-5.3.18-150300.59.68-default
  CMake version         : 3.17.0
  Fortran compiler      : /mpcdf/soft/SLE_15/packages/x86_64/intel_oneapi/2021.3/mpi/2021.3.0/bin/mpiifort (Intel) version 20.2.3.20210609
  Fortran compiler flags: -O3 -ip -fp-model precise
  C compiler            : /mpcdf/soft/SLE_15/packages/x86_64/intel/2021.3.0/bin/icc (Intel) version 20.2.3.20210609
  C compiler flags      : -O3 -ip -fp-model precise -std=gnu99
  CUDA compiler         : /mpcdf/soft/SLE_15/packages/x86_64/cuda/11.6.2/bin/nvcc
  CUDA compiler flags   : -O3 -DAdd_ -lcublas
  ELPA2 kernel          : AVX512
  Using MPI
  Using ScaLAPACK
  Using LibXC
  Using CUDA
  Using i-PI
  Using RLSY
  Linking against: /mpcdf/soft/SLE_15/packages/x86_64/cuda/11.6.2/lib64/libcublas.so
                   /mpcdf/soft/SLE_15/packages/x86_64/cuda/11.6.2/lib64/libcudart.so
                   /mpcdf/soft/SLE_15/packages/x86_64/intel_oneapi/2021.3/mkl/latest/lib/intel64/libmkl_intel_lp64.so
                   /mpcdf/soft/SLE_15/packages/x86_64/intel_oneapi/2021.3/mkl/latest/lib/intel64/libmkl_sequential.so
                   /mpcdf/soft/SLE_15/packages/x86_64/intel_oneapi/2021.3/mkl/latest/lib/intel64/libmkl_core.so
                   /mpcdf/soft/SLE_15/packages/x86_64/intel_oneapi/2021.3/mkl/latest/lib/intel64/libmkl_blacs_intelmpi_lp64.so
                   /mpcdf/soft/SLE_15/packages/x86_64/intel_oneapi/2021.3/mkl/latest/lib/intel64/libmkl_scalapack_lp64.so

  Using       18 parallel tasks.
  Task        0 on host adag003 reporting.
  Task        1 on host adag003 reporting.
  Task        2 on host adag003 reporting.
  Task        3 on host adag003 reporting.
  Task        4 on host adag003 reporting.
  Task        5 on host adag003 reporting.
  Task        6 on host adag003 reporting.
  Task        7 on host adag003 reporting.
  Task        8 on host adag003 reporting.
  Task        9 on host adag003 reporting.
  Task       10 on host adag003 reporting.
  Task       11 on host adag003 reporting.
  Task       12 on host adag003 reporting.
  Task       13 on host adag003 reporting.
  Task       14 on host adag003 reporting.
  Task       15 on host adag003 reporting.
  Task       16 on host adag003 reporting.
  Task       17 on host adag003 reporting.

  Performing system and environment tests:
  | Environment variable OMP_NUM_THREADS correctly set to 1.
  | Checking for ScaLAPACK...
  | Testing pdtran()...
  | All pdtran() tests passed.

  Obtaining array dimensions for all initial allocations:
  
  -----------------------------------------------------------------------
  Parsing control.in (first pass over file, find array dimensions only).
  The contents of control.in will be repeated verbatim below
  unless switched off by setting 'verbatim_writeout .false.' .
  in the first line of control.in .
  -----------------------------------------------------------------------
  
  #
  # Input for polarizability replays on generic oligoacene molecular crystals (light settings,  LDA+MBD).
  #
  #########################################################################################
  #
  #  Physical model
  #
    xc                 pw-lda
    spin               none
    relativistic       none
    charge             0.0
    k_grid 	     2 1 1
    DFPT dielectric
  #
  #  GPU acceleration
  #
  # Turns on GPU acceleration everywhere
    use_gpu
  
  # Turns OFF GPU acceleration of ELPA - may be necessary if GPU ELPA is slow
    elsi_elpa_gpu 0
  #
  #  Relaxation
  #
  #  relax_geometry trm 1E-3
  #  relax_unit_cell fixed_angles
  #
  #  SCF convergence        #
    charge_mix_param   0.75
    #sc_accuracy_rho 1E-4
  #
  # i-PI communication
  #
  compute_forces .false.
  # use_pimd_wrapper 130.183.223.27 26118
  #communicate_pimd_wrapper polarizability
  #output_level MD_light
  #
  # Output SALTED info
    ri_density_restart write
    ri_rho1 write
    ri_full_output .true.
  #  sc_accuracy_rho    1d-6
    default_prodbas_acc 1e-6
    default_max_l_prodbas 6
  #
  #
  ################################################################################
  #
  #  FHI-aims code project
  #  VB, Fritz-Haber Institut, 2009
  #
  #  Suggested "light" defaults for H atom (to be pasted into control.in file)
  #  Be sure to double-check any results obtained with these settings for post-processing,
  #  e.g., with the "tight" defaults and larger basis sets.
  #
  ################################################################################
    species        H
  #     global species definitions
      nucleus             1
      mass                1.00794
  #
      l_hartree           4
  #
      cut_pot             3.5  1.5  1.0
      basis_dep_cutoff    1e-4
  #
      radial_base         24 5.0
      radial_multiplier   1
      angular_grids       specified
        division   0.2421   50
        division   0.3822  110
        division   0.4799  194
        division   0.5341  302
  #      division   0.5626  434
  #      division   0.5922  590
  #      division   0.6542  770
  #      division   0.6868 1202
  #      outer_grid  770
        outer_grid  302
  ################################################################################
  #
  #  Definition of "minimal" basis
  #
  ################################################################################
  #     valence basis states
      valence      1  s   1.
  #     ion occupancy
      ion_occ      1  s   0.5
  ################################################################################
  #
  #  Suggested additional basis functions. For production calculations,
  #  uncomment them one after another (the most important basis functions are
  #  listed first).
  #
  #  Basis constructed for dimers: 0.5 A, 0.7 A, 1.0 A, 1.5 A, 2.5 A
  #
  ################################################################################
  #  "First tier" - improvements: -1014.90 meV to -62.69 meV
       hydro 2 s 2.1
       hydro 2 p 3.5
  #  "Second tier" - improvements: -12.89 meV to -1.83 meV
  #     hydro 1 s 0.85
  #     hydro 2 p 3.7
  #     hydro 2 s 1.2
  #     hydro 3 d 7
  #  "Third tier" - improvements: -0.25 meV to -0.12 meV
  #     hydro 4 f 11.2
  #     hydro 3 p 4.8
  #     hydro 4 d 9
  #     hydro 3 s 3.2
  ################################################################################
  ################################################################################
  #
  #  FHI-aims code project
  #  VB, Fritz-Haber Institut, 2009
  #
  #  Suggested "light" defaults for C atom (to be pasted into control.in file)
  #  Be sure to double-check any results obtained with these settings for post-processing,
  #  e.g., with the "tight" defaults and larger basis sets.
  #
  ################################################################################
    species        C
  #     global species definitions
      nucleus             6
      mass                12.0107
  #
      l_hartree           4
  #
      cut_pot             3.5  1.5  1.0
      basis_dep_cutoff    1e-4
  #
      radial_base         34 5.0
      radial_multiplier   1
      angular_grids specified
        division   0.3326   50
        division   0.5710  110
        division   0.7727  194
        division   0.8772  302
  #      division   0.9334  434
  #      division   0.9625  590
  #      division   0.9924  770
  #      division   1.0230  974
  #      division   1.4589 1202
  #     outer_grid  974
       outer_grid 302
  ################################################################################
  #
  #  Definition of "minimal" basis
  #
  ################################################################################
  #     valence basis states
      valence      2  s   2.
      valence      2  p   2.
  #     ion occupancy
      ion_occ      2  s   1.
      ion_occ      2  p   1.
  ################################################################################
  #
  #  Suggested additional basis functions. For production calculations,
  #  uncomment them one after another (the most important basis functions are
  #  listed first).
  #
  #  Constructed for dimers: 1.0 A, 1.25 A, 1.5 A, 2.0 A, 3.0 A
  #
  ################################################################################
  #  "First tier" - improvements: -1214.57 meV to -155.61 meV
       hydro 2 p 1.7
       hydro 3 d 6
       hydro 2 s 4.9
  #  "Second tier" - improvements: -67.75 meV to -5.23 meV
  #     hydro 4 f 9.8
  #     hydro 3 p 5.2
  #     hydro 3 s 4.3
  #     hydro 5 g 14.4
  #     hydro 3 d 6.2
  #  "Third tier" - improvements: -2.43 meV to -0.60 meV
  #     hydro 2 p 5.6
  #     hydro 2 s 1.4
  #     hydro 3 d 4.9
  #     hydro 4 f 11.2
  #  "Fourth tier" - improvements: -0.39 meV to -0.18 meV
  #     hydro 2 p 2.1
  #     hydro 5 g 16.4
  #     hydro 4 d 13.2
  #     hydro 3 s 13.6
  #     hydro 4 f 17.6
  #  Further basis functions - improvements: -0.08 meV and below
  #     hydro 3 s 2
  #     hydro 3 p 6
  #     hydro 4 d 20
  
  -----------------------------------------------------------------------
  Completed first pass over input file control.in .
  -----------------------------------------------------------------------
  
  
  -----------------------------------------------------------------------
  Parsing geometry.in (first pass over file, find array dimensions only).
  The contents of geometry.in will be repeated verbatim below
  unless switched off by setting 'verbatim_writeout .false.' .
  in the first line of geometry.in .
  -----------------------------------------------------------------------
  
  #=======================================================
  # FHI-aims file: /ada/ptmp/mpsd/alewis/naphthalene/qmdata/data/geoms/218.in
  # Created using the Atomic Simulation Environment (ASE)
  # Thu Jan 19 15:19:17 2023
  #=======================================================
  lattice_vector 8.1020000000000003 0.0000000000000000 0.0000000000000000
  lattice_vector 0.0000000000000000 11.8800000000000008 0.0000000000000000
  lattice_vector -9.7850918486534706 0.0000000000000000 14.2571119625755713
  atom -0.5114880000000001 0.0909635000000000 2.5163300000000000 C
  atom 0.3361120000000000 3.2235499999999999 4.8712700000000000 C
  atom 4.0989199999999997 5.7277199999999997 4.8333700000000004 C
  atom 3.2785899999999999 2.8455499999999998 2.4258999999999999 C
  atom 0.1932110000000000 0.9315360000000000 1.6739100000000000 C
  atom -0.3797980000000000 4.0658799999999999 5.6833499999999999 C
  atom 3.3537900000000000 4.8676899999999996 5.6350600000000002 C
  atom 4.0457400000000003 1.9782800000000000 1.7098300000000000 C
  atom 0.4092080000000000 0.6020210000000000 0.3031740000000000 C
  atom -0.8672080000000000 3.6379600000000001 6.9363900000000003 C
  atom 3.0525199999999999 5.2407500000000002 6.9932900000000000 C
  atom 4.4601600000000001 2.2992699999999999 0.4045330000000000 C
  atom -3.9299300000000001 1.5274500000000000 6.7477200000000002 C
  atom 3.1682399999999999 4.3777100000000004 0.5711370000000000 C
  atom 7.2643000000000004 4.5198499999999999 0.5865130000000000 C
  atom 0.2655000000000000 1.4738199999999999 6.5624099999999999 C
  atom -3.4451700000000001 1.2009600000000000 5.4963300000000004 C
  atom 2.7741699999999998 4.0464399999999996 1.8768899999999999 C
  atom 6.8802700000000003 4.9559400000000000 1.8492500000000001 C
  atom 0.6770720000000000 1.9096400000000000 5.3157199999999998 C
  atom -0.7280130000000000 0.4143670000000000 3.5706000000000002 H
  atom 0.7070460000000000 3.6485500000000002 3.9521799999999998 H
  atom 4.3850300000000004 5.4763700000000002 3.8351000000000002 H
  atom 3.0767400000000000 2.5391900000000001 3.4760599999999999 H
  atom 0.5540610000000000 1.8694900000000001 2.0458599999999998 H
  atom -0.6414750000000000 5.0421399999999998 5.3399200000000002 H
  atom 2.9322400000000002 3.9477400000000000 5.2686500000000001 H
  atom 4.4497000000000000 1.0724100000000001 2.1941299999999999 H
  atom -3.7124799999999998 2.4973900000000002 7.2163800000000000 H
  atom 2.8440900000000000 5.2957999999999998 0.0776992000000000 H
  atom 6.9682399999999998 3.5669300000000002 0.1599550000000000 H
  atom 0.4875210000000000 0.4656830000000000 6.8863000000000003 H
  atom -2.8105000000000002 1.9554900000000000 4.9465300000000001 H
  atom 2.0464899999999999 4.6567400000000001 2.4207700000000001 H
  atom 6.2283499999999998 4.3028500000000003 2.4290300000000000 H
  atom 1.2409800000000000 1.2239899999999999 4.6934800000000001 H
  atom -6.0414599999999998 -0.0055490100000000 9.4321699999999993 C
  atom -4.6357999999999997 2.9733000000000001 12.0371000000000006 C
  atom -0.6347300000000000 5.9109100000000003 11.9255999999999993 C
  atom -1.6876800000000001 2.7937900000000000 9.4907500000000002 C
  atom -5.2411500000000002 0.9003070000000000 8.8009299999999993 C
  atom -5.4167100000000001 3.8087399999999998 12.7594999999999992 C
  atom -1.4246600000000000 5.0696599999999998 12.6494999999999997 C
  atom -0.8806500000000000 1.9553600000000000 8.7141000000000002 C
  atom -4.7183400000000004 0.5993540000000001 7.4798499999999999 C
  atom -5.7449700000000004 3.5432999999999999 14.0935000000000006 C
  atom -1.7595499999999999 5.3646900000000004 14.0130999999999997 C
  atom -0.5011910000000001 2.3276900000000000 7.4104299999999999 C
  atom -8.6835900000000006 1.4432799999999999 13.6251999999999995 C
  atom -1.6663500000000000 4.4472600000000000 7.7530999999999999 C
  atom 2.2305500000000000 4.4271300000000000 7.8238599999999998 C
  atom -4.5075200000000004 1.4444600000000001 13.8835999999999995 C
  atom -8.5345099999999992 1.0770700000000000 12.3081999999999994 C
  atom -2.1183000000000001 4.0236200000000002 9.0034700000000001 C
  atom 1.9201800000000000 4.8478800000000000 9.0957299999999996 C
  atom -4.2088099999999997 1.7354000000000001 12.5932999999999993 C
  atom -6.4096500000000001 0.2224210000000000 10.4079999999999995 H
  atom -4.3311299999999999 3.2273600000000000 11.0320000000000000 H
  atom -0.3425650000000000 5.6822800000000004 10.9174000000000007 H
  atom -2.0386600000000001 2.4796900000000002 10.4669000000000008 H
  atom -4.9721700000000002 1.8598600000000001 9.2745300000000004 H
  atom -5.6905799999999997 4.7949700000000002 12.3302999999999994 H
  atom -1.7616600000000000 4.1196000000000002 12.2422000000000004 H
  atom -0.6095860000000000 0.9897270000000000 9.0946999999999996 H
  atom -8.2790499999999998 2.4090500000000001 13.9638000000000009 H
  atom -2.0232100000000002 5.4013000000000000 7.3638899999999996 H
  atom 1.9390099999999999 3.4380299999999999 7.4599000000000002 H
  atom -4.1365600000000002 0.5455090000000000 14.3552999999999997 H
  atom -8.0276499999999995 1.7030300000000000 11.5556000000000001 H
  atom -2.7296399999999998 4.6772200000000002 9.6028300000000009 H
  atom 1.3599399999999999 4.1954500000000001 9.7901799999999994 H
  atom -3.5182899999999999 1.1107800000000001 12.0007999999999999 H
  atom -0.8036930000000000 6.2043799999999996 2.3964300000000001 C
  atom 0.1993410000000000 9.0733200000000007 4.8507499999999997 C
  atom 4.3231799999999998 11.8468000000000000 4.9073099999999998 C
  atom 3.4306399999999999 8.9196500000000007 2.4419200000000001 C
  atom 0.0226095000000000 7.0232500000000000 1.6618200000000001 C
  atom -0.6486100000000000 9.8750900000000001 5.5800799999999997 C
  atom 3.5814400000000002 10.9231999999999996 5.5842599999999996 C
  atom 4.0382300000000004 7.9753800000000004 1.6271800000000001 C
  atom 0.3547420000000000 6.6281699999999999 0.3162070000000000 C
  atom -1.0222599999999999 9.5014900000000004 6.9117600000000001 C
  atom 3.0342500000000001 11.1979000000000006 6.8711200000000003 C
  atom 4.3798000000000004 8.3299800000000008 0.2874360000000000 C
  atom -3.9150700000000001 7.4060800000000002 6.6164100000000001 C
  atom 3.2408399999999999 10.5243000000000002 0.6408660000000000 C
  atom 7.2378400000000003 10.3993000000000002 0.6680830000000000 C
  atom 0.2866220000000000 7.4529100000000001 6.6409799999999999 C
  atom -3.5740400000000001 6.9929300000000003 5.3276000000000003 C
  atom 2.9978500000000001 10.1576000000000004 1.9351200000000000 C
  atom 7.0945400000000003 10.7659000000000002 1.9862200000000001 C
  atom 0.6341580000000000 7.8314899999999996 5.3857600000000003 C
  atom -1.1604500000000000 6.5832199999999998 3.3784299999999998 H
  atom 0.4882900000000000 9.3541299999999996 3.8421900000000000 H
  atom 4.7012299999999998 11.5657999999999994 3.9296700000000002 H
  atom 3.2206999999999999 8.6462500000000002 3.4585699999999999 H
  atom 0.4281550000000000 7.9465000000000003 2.0249400000000000 H
  atom -0.9807850000000000 10.8436000000000003 5.2059499999999996 H
  atom 3.3622399999999999 9.9564699999999995 5.1318200000000003 H
  atom 4.4273899999999999 7.0346900000000003 2.0464899999999999 H
  atom -3.6324900000000002 8.4129199999999997 6.9603999999999999 H
  atom 3.0032399999999999 11.5094999999999992 0.2431520000000000 H
  atom 6.8338000000000001 9.4562700000000000 0.2722000000000000 H
  atom 0.5206780000000000 6.4325099999999997 6.9914500000000004 H
  atom -2.9813800000000001 7.6466099999999999 4.6974000000000000 H
  atom 2.4876200000000002 10.8634000000000004 2.6432300000000000 H
  atom 6.5819400000000003 10.0985999999999994 2.6663100000000002 H
  atom 1.3109599999999999 7.2115600000000004 4.8067099999999998 H
  atom -5.7385799999999998 6.0890800000000000 9.5893999999999995 C
  atom -4.7677100000000001 9.0318699999999996 11.9129000000000005 C
  atom -0.9261610000000000 11.6813000000000002 11.8598999999999997 C
  atom -1.7699499999999999 8.7502999999999993 9.4589499999999997 C
  atom -4.9609899999999998 6.9195300000000000 8.7931699999999999 C
  atom -5.5227899999999996 9.8994499999999999 12.6884999999999994 C
  atom -1.6601600000000001 10.8405000000000005 12.6913000000000000 C
  atom -0.9627800000000000 7.9179899999999996 8.7597500000000004 C
  atom -4.6406299999999998 6.5203199999999999 7.4678599999999999 C
  atom -5.8617800000000004 9.6063299999999998 14.0215999999999994 C
  atom -1.8008299999999999 11.2416999999999998 14.0248000000000008 C
  atom -0.5420490000000000 8.2599900000000002 7.4393700000000003 C
  atom -8.6863100000000006 7.5259600000000004 13.7310999999999996 C
  atom -1.8772899999999999 10.3564000000000007 7.7097100000000003 C
  atom 2.2299899999999999 10.2760999999999996 7.6070300000000000 C
  atom -4.6585700000000001 7.4426199999999998 13.7340000000000000 C
  atom -8.3530999999999995 7.1845299999999996 12.4457000000000004 C
  atom -2.2240400000000000 10.0098000000000003 8.9781600000000008 C
  atom 1.7492799999999999 10.5864999999999991 8.8517399999999995 C
  atom -4.2776699999999996 7.8318700000000003 12.4454999999999991 C
  atom -5.9938500000000001 6.4018100000000002 10.5874000000000006 H
  atom -4.4872600000000000 9.3291100000000000 10.8949999999999996 H
  atom -0.8431520000000000 11.4878000000000000 10.7760999999999996 H
  atom -2.1311499999999999 8.4576100000000007 10.4532000000000007 H
  atom -4.6802500000000000 7.8749799999999999 9.1783500000000000 H
  atom -5.8515899999999998 10.8198000000000008 12.2573000000000008 H
  atom -2.0899000000000001 9.9377499999999994 12.2881000000000000 H
  atom -0.6777580000000000 6.9434100000000001 9.1719000000000008 H
  atom -8.2561599999999995 8.4338800000000003 14.1369000000000007 H
  atom -2.1708200000000000 11.3180999999999994 7.3103899999999999 H
  atom 2.0359099999999999 9.2867899999999999 7.1561899999999996 H
  atom -4.3786600000000000 6.4805999999999999 14.2014999999999993 H
  atom -7.7641200000000001 7.8846200000000000 11.8530999999999995 H
  atom -2.9010699999999998 10.6433999999999997 9.5960500000000000 H
  atom 1.1018900000000000 9.9238000000000000 9.4403600000000001 H
  atom -3.6253600000000001 7.1821500000000000 11.8408999999999995 H
  
  -----------------------------------------------------------------------
  Completed first pass over input file geometry.in .
  -----------------------------------------------------------------------
  

  Basic array size parameters:
  | Number of species                 :        2
  | Number of atoms                   :      144
  | Number of lattice vectors         :        3
  | Max. basis fn. angular momentum   :        2
  | Max. atomic/ionic basis occupied n:        2
  | Max. number of basis fn. types    :        2
  | Max. radial fns per species/type  :        3
  | Max. logarithmic grid size        :     1277
  | Max. radial integration grid size :       34
  | Max. angular integration grid size:      302
  | Max. angular grid division number :        8
  | Radial grid for Hartree potential :     1277
  | Number of spin channels           :        1

------------------------------------------------------------
          Reading file control.in.
------------------------------------------------------------
  XC: Using Perdew-Wang parametrisation of Ceperley-Alder LDA.
  Spin treatment: No spin polarisation.
  Non-relativistic treatment of kinetic energy.
  Charge =   0.000000E+00: Neutral system requested explicitly.
  Found k-point grid:         2         1         1
  DFPT calculation will begin after the DFT/HF calculation.
  Charge density mixing - mixing parameter:     0.7500
  Forces will not be computed.
 
  Reading configuration options for species H                   .
  | Found nuclear charge :   1.0000
  | Found atomic mass :    1.00794000000000      amu
  | Found l_max for Hartree potential  :   4
  | Found cutoff potl. onset [A], width [A], scale factor :    3.50000    1.50000    1.00000
  | Threshold for basis-dependent cutoff potential is   0.100000E-03
  | Found data for basic radial integration grid :    24 points, outermost radius =    5.000 A
  | Found multiplier for basic radial grid :   1
  | Found angular grid specification: user-specified.
  | Specified grid contains     5 separate shells.
  | Check grid settings after all constraints further below.
  | Found free-atom valence shell :  1 s   1.000
  | No ionic wave fns used. Skipping ion_occ.
  | Found hydrogenic basis function :  2 s   2.100
  | Found hydrogenic basis function :  2 p   3.500
  Species H                   : Missing cutoff potential type.
  Defaulting to exp(1/x)/(1-x)^2 type cutoff potential.
  Species H : No 'logarithmic' tag. Using default grid for free atom:
  | Default logarithmic grid data [bohr] : 0.1000E-03 0.1000E+03 0.1012E+01
  Species H : On-site basis accuracy parameter (for Gram-Schmidt orthonormalisation) not specified.
  Using default value basis_acc =  0.1000000E-03.
  Species H                   : Using default innermost maximum threshold i_radial=  2 for radial functions.
  Species H                   : Default cutoff onset for free atom density etc. : 0.35000000E+01 AA.
  Species H                   : Basic radial grid will be enhanced according to radial_multiplier =   1, to contain    24 grid points.
 
  Reading configuration options for species C                   .
  | Found nuclear charge :   6.0000
  | Found atomic mass :    12.0107000000000      amu
  | Found l_max for Hartree potential  :   4
  | Found cutoff potl. onset [A], width [A], scale factor :    3.50000    1.50000    1.00000
  | Threshold for basis-dependent cutoff potential is   0.100000E-03
  | Found data for basic radial integration grid :    34 points, outermost radius =    5.000 A
  | Found multiplier for basic radial grid :   1
  | Found angular grid specification: user-specified.
  | Specified grid contains     5 separate shells.
  | Check grid settings after all constraints further below.
  | Found free-atom valence shell :  2 s   2.000
  | Found free-atom valence shell :  2 p   2.000
  | No ionic wave fns used. Skipping ion_occ.
  | No ionic wave fns used. Skipping ion_occ.
  | Found hydrogenic basis function :  2 p   1.700
  | Found hydrogenic basis function :  3 d   6.000
  | Found hydrogenic basis function :  2 s   4.900
  Species C                   : Missing cutoff potential type.
  Defaulting to exp(1/x)/(1-x)^2 type cutoff potential.
  Species C : No 'logarithmic' tag. Using default grid for free atom:
  | Default logarithmic grid data [bohr] : 0.1000E-03 0.1000E+03 0.1012E+01
  Species C : On-site basis accuracy parameter (for Gram-Schmidt orthonormalisation) not specified.
  Using default value basis_acc =  0.1000000E-03.
  Species C                   : Using default innermost maximum threshold i_radial=  2 for radial functions.
  Species C                   : Default cutoff onset for free atom density etc. : 0.35000000E+01 AA.
  Species C                   : Basic radial grid will be enhanced according to radial_multiplier =   1, to contain    34 grid points.
 
  Finished reading input file 'control.in'.
 
------------------------------------------------------------


------------------------------------------------------------
          Reading geometry description geometry.in.
------------------------------------------------------------
  | The smallest distance between any two atoms is         1.06747487 AA.
  | The first atom of this pair is atom number                      6 .
  | The second atom of this pair is atom number                    26 .
  | Wigner-Seitz cell of the first atom image           0     0     0 .
  | (The Wigner-Seitz cell of the second atom is 0 0 0  by definition.)

  Symmetry information by spglib:
  | Precision set to  0.1E-04
  | Number of Operations  : 1
  | Space group           : 1
  | International         : P1
  | Schoenflies           : C1^1
  Input structure read successfully.
  The structure contains      144 atoms,  and a total of        544.000 electrons.

  Input geometry:
  | Unit cell:
  |        8.10200000        0.00000000        0.00000000
  |        0.00000000       11.88000000        0.00000000
  |       -9.78509185        0.00000000       14.25711196
  | Atomic structure:
  |       Atom                x [A]            y [A]            z [A]
  |    1: Species C            -0.51148800        0.09096350        2.51633000
  |    2: Species C             0.33611200        3.22355000        4.87127000
  |    3: Species C             4.09892000        5.72772000        4.83337000
  |    4: Species C             3.27859000        2.84555000        2.42590000
  |    5: Species C             0.19321100        0.93153600        1.67391000
  |    6: Species C            -0.37979800        4.06588000        5.68335000
  |    7: Species C             3.35379000        4.86769000        5.63506000
  |    8: Species C             4.04574000        1.97828000        1.70983000
  |    9: Species C             0.40920800        0.60202100        0.30317400
  |   10: Species C            -0.86720800        3.63796000        6.93639000
  |   11: Species C             3.05252000        5.24075000        6.99329000
  |   12: Species C             4.46016000        2.29927000        0.40453300
  |   13: Species C            -3.92993000        1.52745000        6.74772000
  |   14: Species C             3.16824000        4.37771000        0.57113700
  |   15: Species C             7.26430000        4.51985000        0.58651300
  |   16: Species C             0.26550000        1.47382000        6.56241000
  |   17: Species C            -3.44517000        1.20096000        5.49633000
  |   18: Species C             2.77417000        4.04644000        1.87689000
  |   19: Species C             6.88027000        4.95594000        1.84925000
  |   20: Species C             0.67707200        1.90964000        5.31572000
  |   21: Species H            -0.72801300        0.41436700        3.57060000
  |   22: Species H             0.70704600        3.64855000        3.95218000
  |   23: Species H             4.38503000        5.47637000        3.83510000
  |   24: Species H             3.07674000        2.53919000        3.47606000
  |   25: Species H             0.55406100        1.86949000        2.04586000
  |   26: Species H            -0.64147500        5.04214000        5.33992000
  |   27: Species H             2.93224000        3.94774000        5.26865000
  |   28: Species H             4.44970000        1.07241000        2.19413000
  |   29: Species H            -3.71248000        2.49739000        7.21638000
  |   30: Species H             2.84409000        5.29580000        0.07769920
  |   31: Species H             6.96824000        3.56693000        0.15995500
  |   32: Species H             0.48752100        0.46568300        6.88630000
  |   33: Species H            -2.81050000        1.95549000        4.94653000
  |   34: Species H             2.04649000        4.65674000        2.42077000
  |   35: Species H             6.22835000        4.30285000        2.42903000
  |   36: Species H             1.24098000        1.22399000        4.69348000
  |   37: Species C            -6.04146000       -0.00554901        9.43217000
  |   38: Species C            -4.63580000        2.97330000       12.03710000
  |   39: Species C            -0.63473000        5.91091000       11.92560000
  |   40: Species C            -1.68768000        2.79379000        9.49075000
  |   41: Species C            -5.24115000        0.90030700        8.80093000
  |   42: Species C            -5.41671000        3.80874000       12.75950000
  |   43: Species C            -1.42466000        5.06966000       12.64950000
  |   44: Species C            -0.88065000        1.95536000        8.71410000
  |   45: Species C            -4.71834000        0.59935400        7.47985000
  |   46: Species C            -5.74497000        3.54330000       14.09350000
  |   47: Species C            -1.75955000        5.36469000       14.01310000
  |   48: Species C            -0.50119100        2.32769000        7.41043000
  |   49: Species C            -8.68359000        1.44328000       13.62520000
  |   50: Species C            -1.66635000        4.44726000        7.75310000
  |   51: Species C             2.23055000        4.42713000        7.82386000
  |   52: Species C            -4.50752000        1.44446000       13.88360000
  |   53: Species C            -8.53451000        1.07707000       12.30820000
  |   54: Species C            -2.11830000        4.02362000        9.00347000
  |   55: Species C             1.92018000        4.84788000        9.09573000
  |   56: Species C            -4.20881000        1.73540000       12.59330000
  |   57: Species H            -6.40965000        0.22242100       10.40800000
  |   58: Species H            -4.33113000        3.22736000       11.03200000
  |   59: Species H            -0.34256500        5.68228000       10.91740000
  |   60: Species H            -2.03866000        2.47969000       10.46690000
  |   61: Species H            -4.97217000        1.85986000        9.27453000
  |   62: Species H            -5.69058000        4.79497000       12.33030000
  |   63: Species H            -1.76166000        4.11960000       12.24220000
  |   64: Species H            -0.60958600        0.98972700        9.09470000
  |   65: Species H            -8.27905000        2.40905000       13.96380000
  |   66: Species H            -2.02321000        5.40130000        7.36389000
  |   67: Species H             1.93901000        3.43803000        7.45990000
  |   68: Species H            -4.13656000        0.54550900       14.35530000
  |   69: Species H            -8.02765000        1.70303000       11.55560000
  |   70: Species H            -2.72964000        4.67722000        9.60283000
  |   71: Species H             1.35994000        4.19545000        9.79018000
  |   72: Species H            -3.51829000        1.11078000       12.00080000
  |   73: Species C            -0.80369300        6.20438000        2.39643000
  |   74: Species C             0.19934100        9.07332000        4.85075000
  |   75: Species C             4.32318000       11.84680000        4.90731000
  |   76: Species C             3.43064000        8.91965000        2.44192000
  |   77: Species C             0.02260950        7.02325000        1.66182000
  |   78: Species C            -0.64861000        9.87509000        5.58008000
  |   79: Species C             3.58144000       10.92320000        5.58426000
  |   80: Species C             4.03823000        7.97538000        1.62718000
  |   81: Species C             0.35474200        6.62817000        0.31620700
  |   82: Species C            -1.02226000        9.50149000        6.91176000
  |   83: Species C             3.03425000       11.19790000        6.87112000
  |   84: Species C             4.37980000        8.32998000        0.28743600
  |   85: Species C            -3.91507000        7.40608000        6.61641000
  |   86: Species C             3.24084000       10.52430000        0.64086600
  |   87: Species C             7.23784000       10.39930000        0.66808300
  |   88: Species C             0.28662200        7.45291000        6.64098000
  |   89: Species C            -3.57404000        6.99293000        5.32760000
  |   90: Species C             2.99785000       10.15760000        1.93512000
  |   91: Species C             7.09454000       10.76590000        1.98622000
  |   92: Species C             0.63415800        7.83149000        5.38576000
  |   93: Species H            -1.16045000        6.58322000        3.37843000
  |   94: Species H             0.48829000        9.35413000        3.84219000
  |   95: Species H             4.70123000       11.56580000        3.92967000
  |   96: Species H             3.22070000        8.64625000        3.45857000
  |   97: Species H             0.42815500        7.94650000        2.02494000
  |   98: Species H            -0.98078500       10.84360000        5.20595000
  |   99: Species H             3.36224000        9.95647000        5.13182000
  |  100: Species H             4.42739000        7.03469000        2.04649000
  |  101: Species H            -3.63249000        8.41292000        6.96040000
  |  102: Species H             3.00324000       11.50950000        0.24315200
  |  103: Species H             6.83380000        9.45627000        0.27220000
  |  104: Species H             0.52067800        6.43251000        6.99145000
  |  105: Species H            -2.98138000        7.64661000        4.69740000
  |  106: Species H             2.48762000       10.86340000        2.64323000
  |  107: Species H             6.58194000       10.09860000        2.66631000
  |  108: Species H             1.31096000        7.21156000        4.80671000
  |  109: Species C            -5.73858000        6.08908000        9.58940000
  |  110: Species C            -4.76771000        9.03187000       11.91290000
  |  111: Species C            -0.92616100       11.68130000       11.85990000
  |  112: Species C            -1.76995000        8.75030000        9.45895000
  |  113: Species C            -4.96099000        6.91953000        8.79317000
  |  114: Species C            -5.52279000        9.89945000       12.68850000
  |  115: Species C            -1.66016000       10.84050000       12.69130000
  |  116: Species C            -0.96278000        7.91799000        8.75975000
  |  117: Species C            -4.64063000        6.52032000        7.46786000
  |  118: Species C            -5.86178000        9.60633000       14.02160000
  |  119: Species C            -1.80083000       11.24170000       14.02480000
  |  120: Species C            -0.54204900        8.25999000        7.43937000
  |  121: Species C            -8.68631000        7.52596000       13.73110000
  |  122: Species C            -1.87729000       10.35640000        7.70971000
  |  123: Species C             2.22999000       10.27610000        7.60703000
  |  124: Species C            -4.65857000        7.44262000       13.73400000
  |  125: Species C            -8.35310000        7.18453000       12.44570000
  |  126: Species C            -2.22404000       10.00980000        8.97816000
  |  127: Species C             1.74928000       10.58650000        8.85174000
  |  128: Species C            -4.27767000        7.83187000       12.44550000
  |  129: Species H            -5.99385000        6.40181000       10.58740000
  |  130: Species H            -4.48726000        9.32911000       10.89500000
  |  131: Species H            -0.84315200       11.48780000       10.77610000
  |  132: Species H            -2.13115000        8.45761000       10.45320000
  |  133: Species H            -4.68025000        7.87498000        9.17835000
  |  134: Species H            -5.85159000       10.81980000       12.25730000
  |  135: Species H            -2.08990000        9.93775000       12.28810000
  |  136: Species H            -0.67775800        6.94341000        9.17190000
  |  137: Species H            -8.25616000        8.43388000       14.13690000
  |  138: Species H            -2.17082000       11.31810000        7.31039000
  |  139: Species H             2.03591000        9.28679000        7.15619000
  |  140: Species H            -4.37866000        6.48060000       14.20150000
  |  141: Species H            -7.76412000        7.88462000       11.85310000
  |  142: Species H            -2.90107000       10.64340000        9.59605000
  |  143: Species H             1.10189000        9.92380000        9.44036000
  |  144: Species H            -3.62536000        7.18215000       11.84090000

  Lattice parameters for 3D lattice (in Angstroms) :     8.102000   11.880000   17.292000
  Angle(s) between unit vectors (in degrees)       :    90.000000  124.463000   90.000000


  Quantities derived from the lattice vectors (in Angstrom^-1):
  | Reciprocal lattice vector 1:  0.775510  0.000000  0.532257
  | Reciprocal lattice vector 2:  0.000000  0.528888  0.000000
  | Reciprocal lattice vector 3: -0.000000  0.000000  0.440705
  | Unit cell volume                               :   0.137227E+04  Angstrom^3

  Fractional coordinates:
                         L1                L2                L3
       atom_frac         0.15003039        0.00765686        0.17649647  C
       atom_frac         0.45413645        0.27134259        0.34167298  C
       atom_frac         0.91535542        0.48213131        0.33901466  C
       atom_frac         0.61016531        0.23952441        0.17015368  C
       atom_frac         0.16564634        0.07841212        0.11740877  C
       atom_frac         0.43456663        0.34224579        0.39863263  C
       atom_frac         0.89129893        0.40973822        0.39524555  C
       atom_frac         0.64419262        0.16652189        0.11992822  C
       atom_frac         0.07618928        0.05067517        0.02126476  C
       atom_frac         0.48055400        0.30622559        0.48652139  C
       atom_frac         0.96917165        0.44114057        0.49051239  C
       atom_frac         0.58476961        0.19354125        0.02837412  C
       atom_frac         0.08655104        0.12857323        0.47328800  C
       atom_frac         0.43942592        0.36849411        0.04005980  C
       atom_frac         0.94629003        0.38045875        0.04113828  C
       atom_frac         0.58867966        0.12405892        0.46029028  C
       atom_frac         0.04037637        0.10109091        0.38551496  C
       atom_frac         0.50139928        0.34060943        0.13164588  C
       atom_frac         1.00585865        0.41716667        0.12970719  C
       atom_frac         0.53386981        0.16074411        0.37284690  C
       atom_frac         0.21261404        0.03487938        0.25044343  H
       atom_frac         0.42206220        0.30711700        0.27720761  H
       atom_frac         0.86610422        0.46097391        0.26899557  H
       atom_frac         0.67421208        0.21373653        0.24381235  H
       atom_frac         0.24169307        0.15736448        0.14349751  H
       atom_frac         0.37317642        0.42442256        0.37454430  H
       atom_frac         0.80822952        0.33230135        0.36954539  H
       atom_frac         0.73507757        0.09027020        0.15389723  H
       atom_frac         0.15309087        0.21021801        0.50616001  H
       atom_frac         0.35761754        0.44577441        0.00544986  H
       atom_frac         0.87361417        0.30024663        0.01121931  H
       atom_frac         0.64352002        0.03919891        0.48300806  H
       atom_frac         0.07213710        0.16460354        0.34695175  H
       atom_frac         0.45765718        0.39198148        0.16979385  H
       atom_frac         0.97450846        0.36219276        0.17037321  H
       atom_frac         0.55076016        0.10302946        0.32920272  H
       atom_frac         0.05333580       -0.00046709        0.66157648  C
       atom_frac         0.44749812        0.25027778        0.84428740  C
       atom_frac         0.93189014        0.49755135        0.83646674  C
       atom_frac         0.59566921        0.23516751        0.66568531  C
       atom_frac         0.09864198        0.07578342        0.61730104  C
       atom_frac         0.41230869        0.32060101        0.89495685  C
       atom_frac         0.89571447        0.42673906        0.88724140  C
       atom_frac         0.62948695        0.16459259        0.61121074  C
       atom_frac         0.05126015        0.05045067        0.52463991  C
       atom_frac         0.48479758        0.29825758        0.98852419  C
       atom_frac         0.96989249        0.45157323        0.98288490  C
       atom_frac         0.56588666        0.19593350        0.51977077  C
       atom_frac         0.08242426        0.12148822        0.95567742  C
       atom_frac         0.45110338        0.37434848        0.54380579  C
       atom_frac         0.93807755        0.37265404        0.54876892  C
       atom_frac         0.61975058        0.12158754        0.97380171  C
       atom_frac        -0.01074007        0.09066246        0.86330247  C
       atom_frac         0.50124127        0.33868855        0.63150728  C
       atom_frac         1.00751143        0.40807071        0.63797844  C
       atom_frac         0.54731632        0.14607744        0.88329951  C
       atom_frac         0.09055525        0.01872231        0.73002162  H
       atom_frac         0.39995913        0.27166330        0.77378925  H
       atom_frac         0.88254510        0.47830640        0.76575116  H
       atom_frac         0.63503993        0.20872811        0.73415289  H
       atom_frac         0.17196044        0.15655387        0.65051955  H
       atom_frac         0.34214785        0.40361700        0.86485258  H
       atom_frac         0.81961690        0.34676768        0.85867320  H
       atom_frac         0.69518448        0.08331035        0.63790619  H
       atom_frac         0.16103837        0.20278199        0.97942697  H
       atom_frac         0.37408700        0.45465488        0.51650643  H
       atom_frac         0.87126234        0.28939646        0.52324061  H
       atom_frac         0.70549510        0.04591827        1.00688695  H
       atom_frac        -0.01193389        0.14335269        0.81051478  H
       atom_frac         0.47655836        0.39370539        0.67354665  H
       atom_frac         0.99719080        0.35315236        0.68668746  H
       atom_frac         0.58235324        0.09350000        0.84174130  H
       atom_frac         0.10380772        0.52225421        0.16808664  C
       atom_frac         0.43551704        0.76374747        0.34023370  C
       atom_frac         0.94929856        0.99720539        0.34420085  C
       atom_frac         0.63028936        0.75081229        0.17127733  C
       atom_frac         0.14356546        0.59118266        0.11656077  C
       atom_frac         0.39264003        0.83123653        0.39138922  C
       atom_frac         0.91509360        0.91946128        0.39168241  C
       atom_frac         0.63626430        0.67132828        0.11413111  C
       atom_frac         0.07057079        0.55792677        0.02217890  C
       atom_frac         0.45933007        0.79978872        0.48479384  C
       atom_frac         0.95656748        0.94258418        0.48194333  C
       atom_frac         0.56493164        0.70117677        0.02016089  C
       atom_frac         0.07726172        0.62340741        0.46407786  C
       atom_frac         0.45429350        0.88588384        0.04495062  C
       atom_frac         0.94993406        0.87536195        0.04685963  C
       atom_frac         0.59794244        0.62734933        0.46580121  C
       atom_frac         0.01017709        0.58863047        0.37368017  C
       atom_frac         0.53394002        0.85501684        0.13573015  C
       atom_frac         1.04390811        0.90622054        0.13931433  C
       atom_frac         0.53450626        0.65921633        0.37775954  C
       atom_frac         0.14296097        0.55414310        0.23696454  H
       atom_frac         0.38574457        0.78738468        0.26949287  H
       atom_frac         0.91314276        0.97355219        0.27562875  H
       atom_frac         0.69049893        0.72779882        0.24258560  H
       atom_frac         0.22438080        0.66889731        0.14203017  H
       atom_frac         0.31994787        0.91276094        0.36514758  H
       atom_frac         0.84971180        0.83808670        0.35994807  H
       atom_frac         0.71981716        0.59214562        0.14354169  H
       atom_frac         0.14127935        0.70815825        0.48820547  H
       atom_frac         0.39127656        0.96881313        0.01705479  H
       atom_frac         0.86652915        0.79598232        0.01909223  H
       atom_frac         0.65651986        0.54145707        0.49038333  H
       atom_frac         0.02994190        0.64365404        0.32947767  H
       atom_frac         0.53094909        0.91442761        0.18539730  H
       atom_frac         1.03825106        0.85005051        0.18701614  H
       atom_frac         0.56898939        0.60703367        0.33714472  H
       atom_frac         0.10403831        0.51254882        0.67260466  C
       atom_frac         0.42069582        0.76025842        0.83557596  C
       atom_frac         0.89035436        0.98327441        0.83185852  C
       atom_frac         0.58282110        0.73655724        0.66345484  C
       atom_frac         0.13256374        0.58245202        0.61675675  C
       atom_frac         0.39320112        0.83328704        0.88997688  C
       atom_frac         0.87018850        0.91250000        0.89017327  C
       atom_frac         0.62321701        0.66649747        0.61441265  C
       atom_frac         0.05983592        0.54884848        0.52379893  C
       atom_frac         0.46428941        0.80861364        0.98348109  C
       atom_frac         0.96578858        0.94627104        0.98370554  C
       atom_frac         0.56329525        0.69528535        0.52180063  C
       atom_frac         0.09105946        0.63349832        0.96310529  C
       atom_frac         0.42139221        0.87175084        0.54076239  C
       atom_frac         0.91964049        0.86499158        0.53356037  C
       atom_frac         0.58843423        0.62648316        0.96330870  C
       atom_frac         0.02329850        0.60475842        0.87294678  C
       atom_frac         0.48604613        0.84257576        0.62973203  C
       atom_frac         0.96574917        0.89111953        0.62086487  C
       atom_frac         0.52629686        0.65924832        0.87293275  C
       atom_frac         0.15707311        0.53887290        0.74260482  H
       atom_frac         0.36908314        0.78527862        0.76418001  H
       atom_frac         0.80878979        0.96698653        0.75584032  H
       atom_frac         0.62246368        0.71192003        0.73319197  H
       atom_frac         0.19984352        0.66287710        0.64377344  H
       atom_frac         0.31609106        0.91075758        0.85973232  H
       atom_frac         0.78299170        0.83651094        0.86189265  H
       atom_frac         0.69330997        0.58446212        0.64332103  H
       atom_frac         0.17852712        0.70992256        0.99156828  H
       atom_frac         0.35133599        0.95270202        0.51275392  H
       atom_frac         0.85749469        0.78171633        0.50193826  H
       atom_frac         0.66258500        0.54550505        0.99609935  H
       atom_frac         0.04579424        0.66368855        0.83138156  H
       atom_frac         0.45482504        0.89590909        0.67307110  H
       atom_frac         0.93570695        0.83533670        0.66215093  H
       atom_frac         0.55559266        0.60455808        0.83052585  H

 
  Finished reading input file 'geometry.in'.
 

 
  Consistency checks for stacksize environment parameter are next.
 
  | Maximum stacksize for task 0: unlimited
  | Maximum stacksize for task 1: unlimited
  | Maximum stacksize for task 2: unlimited
  | Maximum stacksize for task 3: unlimited
  | Maximum stacksize for task 4: unlimited
  | Maximum stacksize for task 5: unlimited
  | Maximum stacksize for task 6: unlimited
  | Maximum stacksize for task 7: unlimited
  | Maximum stacksize for task 8: unlimited
  | Maximum stacksize for task 9: unlimited
  | Maximum stacksize for task 10: unlimited
  | Maximum stacksize for task 11: unlimited
  | Maximum stacksize for task 12: unlimited
  | Maximum stacksize for task 13: unlimited
  | Maximum stacksize for task 14: unlimited
  | Maximum stacksize for task 15: unlimited
  | Maximum stacksize for task 16: unlimited
  | Maximum stacksize for task 17: unlimited
  | Current stacksize for task 0: unlimited
  | Current stacksize for task 1: unlimited
  | Current stacksize for task 2: unlimited
  | Current stacksize for task 3: unlimited
  | Current stacksize for task 4: unlimited
  | Current stacksize for task 5: unlimited
  | Current stacksize for task 6: unlimited
  | Current stacksize for task 7: unlimited
  | Current stacksize for task 8: unlimited
  | Current stacksize for task 9: unlimited
  | Current stacksize for task 10: unlimited
  | Current stacksize for task 11: unlimited
  | Current stacksize for task 12: unlimited
  | Current stacksize for task 13: unlimited
  | Current stacksize for task 14: unlimited
  | Current stacksize for task 15: unlimited
  | Current stacksize for task 16: unlimited
  | Current stacksize for task 17: unlimited
 
  Consistency checks for the contents of control.in are next.
 
  MPI_IN_PLACE appears to work with this MPI implementation.
  | Keeping use_mpi_in_place .true. (see manual).
  Explicit treatment of the Coulomb operator is needed, but the RI method is not specified.
  Coulomb operator: Defaulting to 'LVL fast' resolution of identity - RI_type = LVL_fast
  Species H: Using default value for prodbas_acc =   1.000000E-06.
  Species H: Using default value max_l_prodbas =     6.
  Species C: Using default value for prodbas_acc =   1.000000E-06.
  Species C: Using default value max_l_prodbas =     6.
  Target number of points in a grid batch is not set.  Since GPU acceleration is enabled, defaulting to  200
  Method for grid partitioning is not set. Defaulting to parallel hash+maxmin partitioning.
  Batch size limit is not set. Defaulting to    200
  By default, will store active basis functions for each batch.
  If in need of memory, prune_basis_once .false. can be used to disable this option.
  communication_type for Hartree potential was not specified.
  Defaulting to calc_hartree .
  Defaulting to Pulay charge density mixer.
  Pulay mixer: Number of relevant iterations not set.
  Defaulting to    8 iterations.
  Pulay mixer: Number of initial linear mixing iterations not set.
  Defaulting to    0 iterations.
  Work space size for distributed Hartree potential not set.
  Defaulting to   0.200000E+03 MB.
  Algorithm-dependent basis array size parameters:
  | n_max_pulay                         :        8
  Maximum number of self-consistency iterations not provided.
  Presetting  1000 iterations.
  Presetting      1001 iterations before the initial mixing cycle
  is restarted anyway using the sc_init_iter criterion / keyword.
  Presetting a factor      1.000 between actual scf density residual
  and density convergence criterion sc_accuracy_rho below which sc_init_iter
  takes no effect.
 * No s.c.f. convergence criteria (sc_accuracy_*) were provided in control.in.
 * The run will proceed with a reasonable default guess, but please check whether.
 * the s.c.f. cycles seem to take too much or too little time.
  Geometry relaxation not requested: no relaxation will be performed.
 * Notice: The s.c.f. convergence criterion sc_accuracy_rho was not provided.
 * We used to stop in this case, and ask the user to provide reasonable
 * scf convergence criteria. However, this led some users to employ criteria
 * that led to extremely long run times, e.g., for simple relaxation.
 * We now preset a default value for sc_accuracy_rho if it is not set.
 * You may still wish to check if this setting is too tight or too loose for your needs.
 * Based on n_atoms and forces and force-correction status, FHI-aims chose sc_accuracy_rho =  0.391918E-04 .
  No accuracy limit for integral partition fn. given. Defaulting to  0.1000E-14.
  No threshold value for u(r) in integrations given. Defaulting to  0.1000E-05.
  No occupation type (smearing scheme) given. Defaulting to Gaussian broadening, width =  0.1000E-01 eV.
  The width will be adjusted in iteration number     2 of the first full s.c.f. cycle only.
  S.C.F. convergence parameters will be adjusted in iteration number     2 of the first full s.c.f. cycle only.
  No accuracy for occupation numbers given. Defaulting to  0.1000E-12.
  No threshold value for occupation numbers given. Defaulting to  0.0000E+00.
  No accuracy for fermi level given. Defaulting to  0.1000E-19.
  Maximum # of iterations to find E_F not set. Defaulting to  200.
  Preferred method for the eigenvalue solver ('KS_method') not specified in 'control.in'.
  Calling BLACS routine to test compilation state
  Since ScaLAPACK support is enabled, defaulting to ELPA (via ELSI).
  Will not use alltoall communication since running on < 1024 CPUs.
  Threshold for basis singularities not set.
  Default threshold for basis singularities:  0.1000E-04
  partition_type (choice of integration weights) for integrals was not specified.
  | Using a version of the partition function of Stratmann and coworkers ('stratmann_sparse').
  | At each grid point, the set of atoms used to build the partition table is smoothly restricted to
  | only those atoms whose free-atom density would be non-zero at that grid point.
  Partitioning for Hartree potential was not defined. Using partition_type for integrals.
  | Adjusted default value of keyword multip_moments_threshold to:       0.10000000E-11
  | This value may affect high angular momentum components of the Hartree potential in periodic systems.
  Angular momentum expansion for Kerker preconditioner not set explicitly.
  | Using default value of   0
  No explicit requirement for turning off preconditioner.
  | By default, it will be turned off when the charge convergence reaches
  | sc_accuracy_rho  =   0.391918E-04
  No special mixing parameter while Kerker preconditioner is on.
  Using default: charge_mix_param =     0.7500.
  Threshold for auxiliary basis singularities not set.
  Default threshold for auxiliary basis singularities:  0.1000E-04
  No q(lm)/r^(l+1) cutoff set for long-range Hartree potential.
  | Using default value of  0.100000E-09 .
  | Verify using the multipole_threshold keyword.
  Defaulting to new monopole extrapolation.
  Density update method: automatic selection selected.
  Using density matrix based charge density update.
  Using density matrix based charge density update.
  Using packed matrix style: index .
  Defaulting to use time-reversal symmetry for k-point grid.
  Charge integration errors on the 3D integration grid will be compensated
  by explicit normalization and distribution of residual charges.
  Use the "compensate_multipole_errors" flag to change this behaviour.
  Default to 1D ("use_logsbt") integrations for auxiliary 2-center integrals.
  Default onset of logarithmic r-grid for SBT is -38.000000000000
  Default onset of logarithmic k-grid for SBT is -25.000000000000
  Default range of logarithmic r- and k-grid for SBT is  45.000000000000
  Default number of logarithmic r- and k-grid for SBT is   4096
  Default of use_2d_corr is to use the efficient 2D distribution where possible
 
  Consistency checks for the contents of geometry.in are next.
 

  Range separation radius for Ewald summation (hartree_convergence_parameter):      2.91768261 bohr.
  Number of empty states per atom not set in control.in .
  | Since you are using a method that relies on the unoccupied spectrum
  | (MP2,GW,RPA et al.), will use the full Hamiltonian size (see below)
  | as the max. possible number of states (occupied plus empty).

  Structure-dependent array size parameters: 
  | Maximum number of distinct radial functions  :        9
  | Maximum number of basis functions            :     1440
  | Number of Kohn-Sham states (occupied + empty):     1440
------------------------------------------------------------
CUDA runtime version: 11060
CUDA driver version: 11060
  Initializing GPUs...

  Number of GPUs available to MPI task         0 :   1
  Number of GPUs available to MPI task         1 :   1
  Number of GPUs available to MPI task         2 :   1
  Number of GPUs available to MPI task         3 :   1
  Number of GPUs available to MPI task         4 :   1
  Number of GPUs available to MPI task         5 :   1
  Number of GPUs available to MPI task         6 :   1
  Number of GPUs available to MPI task         7 :   1
  Number of GPUs available to MPI task         8 :   1
  Number of GPUs available to MPI task         9 :   1
  Number of GPUs available to MPI task        10 :   1
  Number of GPUs available to MPI task        11 :   1
  Number of GPUs available to MPI task        12 :   1
  Number of GPUs available to MPI task        13 :   1
  Number of GPUs available to MPI task        14 :   1
  Number of GPUs available to MPI task        15 :   1
  Number of GPUs available to MPI task        16 :   1
  Number of GPUs available to MPI task        17 :   1

  | MPI task         0, GPU activated = T, Device Name = NVIDIA A100-SXM4-80GB
  | MPI task         1, GPU activated = T, Device Name = NVIDIA A100-SXM4-80GB
  | MPI task         2, GPU activated = T, Device Name = NVIDIA A100-SXM4-80GB
  | MPI task         3, GPU activated = T, Device Name = NVIDIA A100-SXM4-80GB
  | MPI task         4, GPU activated = T, Device Name = NVIDIA A100-SXM4-80GB
  | MPI task         5, GPU activated = T, Device Name = NVIDIA A100-SXM4-80GB
  | MPI task         6, GPU activated = T, Device Name = NVIDIA A100-SXM4-80GB
  | MPI task         7, GPU activated = T, Device Name = NVIDIA A100-SXM4-80GB
  | MPI task         8, GPU activated = T, Device Name = NVIDIA A100-SXM4-80GB
  | MPI task         9, GPU activated = T, Device Name = NVIDIA A100-SXM4-80GB
  | MPI task        10, GPU activated = T, Device Name = NVIDIA A100-SXM4-80GB
  | MPI task        11, GPU activated = T, Device Name = NVIDIA A100-SXM4-80GB
  | MPI task        12, GPU activated = T, Device Name = NVIDIA A100-SXM4-80GB
  | MPI task        13, GPU activated = T, Device Name = NVIDIA A100-SXM4-80GB
  | MPI task        14, GPU activated = T, Device Name = NVIDIA A100-SXM4-80GB
  | MPI task        15, GPU activated = T, Device Name = NVIDIA A100-SXM4-80GB
  | MPI task        16, GPU activated = T, Device Name = NVIDIA A100-SXM4-80GB
  | MPI task        17, GPU activated = T, Device Name = NVIDIA A100-SXM4-80GB

------------------------------------------------------------
          Preparing all fixed parts of the calculation.
------------------------------------------------------------
  Determining machine precision:
    2.225073858507201E-308
  Setting up grids for atomic and cluster calculations.

  Creating wave function, potential, and density for free atoms.
  Runtime choices for atomic solver:
  | atomic solver xc        : PW-LDA
  | compute density gradient: 0
  | compute kinetic density : F

  Species: H

  List of occupied orbitals and eigenvalues:
    n    l              occ      energy [Ha]    energy [eV]
    1    0           1.0000        -0.232375        -6.3233


  Species: C

  List of occupied orbitals and eigenvalues:
    n    l              occ      energy [Ha]    energy [eV]
    1    0           2.0000        -9.944615      -270.6068
    2    0           2.0000        -0.498807       -13.5732
    2    1           2.0000        -0.196968        -5.3598


  Adding cutoff potential to free-atom effective potential.
  Creating fixed part of basis set: Ionic, confined, hydrogenic.
 
  H                    hydrogenic:
 
  List of hydrogenic basis orbitals: 
    n    l      effective z      eigenvalue [eV]  inner max. [A]     outer max. [A]     outer radius [A]   
    2    0         2.100000       -14.9728           0.193243           1.317208           4.583499
    2    1         3.500000       -41.6669           0.602369           0.602369           3.723403
 
 
  C                    hydrogenic:
 
  List of hydrogenic basis orbitals: 
    n    l      effective z      eigenvalue [eV]  inner max. [A]     outer max. [A]     outer radius [A]   
    2    1         1.700000        -9.7616           1.230570           1.230570           4.607917
    3    2         6.000000       -54.4224           0.792453           0.792453           3.883070
    2    0         4.900000       -81.6679           0.082559           0.562749           3.078220
 
  Creating atomic-like basis functions for current effective potential.

  Species H                   :

  List of atomic basis orbitals and eigenvalues:
    n    l      energy [Ha]    energy [eV]    outer radius [A]
    1    0        -0.232375        -6.3233       4.527807


  Species C                   :

  List of atomic basis orbitals and eigenvalues:
    n    l      energy [Ha]    energy [eV]    outer radius [A]
    1    0        -9.944615      -270.6068       1.934409
    2    0        -0.498807       -13.5732       4.496620
    2    1        -0.196968        -5.3598       4.551928

  Assembling full basis from fixed parts.
  | Species H :   atomic orbital   1 s accepted.
  | Species H :    hydro orbital   2 s accepted.
  | Species H :    hydro orbital   2 p accepted.
  | Species C :   atomic orbital   1 s accepted.
  | Species C :    hydro orbital   2 s accepted.
  | Species C :   atomic orbital   2 s accepted.
  | Species C :   atomic orbital   2 p accepted.
  | Species C :    hydro orbital   2 p accepted.
  | Species C :    hydro orbital   3 d accepted.
 
  Basis size parameters after reduction:
  | Total number of radial functions:        9
  | Total number of basis functions :     1440
 
  Per-task memory consumption for arrays in subroutine allocate_ext:
  |           2.242384MB.
  Testing on-site integration grid accuracy.
  |  Species  Function  <phi|h_atom|phi> (log., in eV)  <phi|h_atom|phi> (rad., in eV)
           1        1                 -6.3245358373                 -6.3232436907
           1        2                 14.1326137532                 14.1384481100
           1        3                 25.3627025200                 25.3628451197
           2        4               -270.6067544938               -270.6067222788
           2        5                -10.5634280949                -10.5635685736
           2        6                 16.2089822398                 16.2052121796
           2        7                 -5.3613872565                 -5.3627872378
           2        8                  8.5292058327                  8.5051734780
           2        9                 27.4884461005                 27.4884542459

  Preparing densities etc. for the partition functions (integrals / Hartree potential).

  Preparations completed.
  max(cpu_time)          :      0.088 s.
  Wall clock time (cpu1) :      0.082 s.
------------------------------------------------------------

  Initializing index lists of integration centers etc. from given atomic structure:
  Mapping all atomic coordinates to central unit cell.

  Initializing the k-points
  Using symmetry for reducing the k-points
  | k-points reduced from:        2 to        2
  | Number of k-points                             :         2
  | Consuming          0 KiB for k_phase_exx.
  The eigenvectors in the calculations are REAL.
  | Number of basis functions in the Hamiltonian integrals :      8023
  | Number of basis functions in a single unit cell        :      1440
  | Number of centers in hartree potential         :      3329
  | Number of centers in hartree multipole         :      2550
  | Number of centers in electron density summation:      1995
  | Number of centers in basis integrals           :      2120
  | Number of centers in integrals                 :       965
  | Number of centers in hamiltonian               :      2009
  | Consuming          1 KiB for k_phase.
  | Number of super-cells (origin) [n_cells]                     :         175
  | Number of super-cells (after PM_index) [n_cells]             :          40
  | Number of super-cells in hamiltonian [n_cells_in_hamiltonian]:          40
  | Size of matrix packed + index [n_hamiltonian_matrix_size] :     1931293
  | Size of matrix packed + index (no_symmetry):     3859769

------------------------------------------------------------
          Begin self-consistency loop: Initialization.

          Date     :  20230119, Time     :  173043.791
------------------------------------------------------------
  | Estimated reciprocal-space cutoff momentum G_max:         3.24344278 bohr^-1 .
  | Reciprocal lattice points for long-range Hartree potential:    5310
  Using simple linear distribution as default method for k-point parallelism.
  * Using 18 tasks for Scalapack Eigenvalue solver.
  Detailed listing of tasks and assigned k-points:
   Task     0 k-point     1 on adag003
   Task     1 k-point     1 on adag003
   Task     2 k-point     1 on adag003
   Task     3 k-point     1 on adag003
   Task     4 k-point     1 on adag003
   Task     5 k-point     1 on adag003
   Task     6 k-point     1 on adag003
   Task     7 k-point     1 on adag003
   Task     8 k-point     1 on adag003
   Task     9 k-point     2 on adag003
   Task    10 k-point     2 on adag003
   Task    11 k-point     2 on adag003
   Task    12 k-point     2 on adag003
   Task    13 k-point     2 on adag003
   Task    14 k-point     2 on adag003
   Task    15 k-point     2 on adag003
   Task    16 k-point     2 on adag003
   Task    17 k-point     2 on adag003
  K-point:     1 Tasks:     9 split into      3 X      3 BLACS grid
  Calculating block size based on n_basis =         1440  max_nprow =            3  max_npcol =            3
  ScaLAPACK block size set to:           16
  Allocating        1.758 MB for ovlp
  Allocating        1.758 MB for ham
  Allocating        1.758 MB for eigenvec
  Required Scalapack workspace - INTEGER:            1  REAL:             1
  Partitioning the integration grid into batches with parallel hashing+maxmin method.
  | Number of batches:     5421
  | Maximal batch size:     200
  | Minimal batch size:      99
  | Average batch size:     140.904
  | Standard deviation of batch sizes:      30.077

  Integration load balanced across    18 MPI tasks.
  Work distribution over tasks is as follows:
  Task     0 has      42448 integration points.
  Task     1 has      42387 integration points.
  Task     2 has      42363 integration points.
  Task     3 has      42451 integration points.
  Task     4 has      42351 integration points.
  Task     5 has      42502 integration points.
  Task     6 has      42409 integration points.
  Task     7 has      42530 integration points.
  Task     8 has      42439 integration points.
  Task     9 has      42431 integration points.
  Task    10 has      42427 integration points.
  Task    11 has      42459 integration points.
  Task    12 has      42449 integration points.
  Task    13 has      42411 integration points.
  Task    14 has      42434 integration points.
  Task    15 has      42367 integration points.
  Task    16 has      42442 integration points.
  Task    17 has      42540 integration points.
  Initializing partition tables, free-atom densities, potentials, etc. across the integration grid (initialize_grid_storage).
  | initialize_grid_storage: Actual outermost partition radius vs. multipole_radius_free
  | (-- VB: in principle, multipole_radius_free should be larger, hence this output)
  | Species        1: Confinement radius =              4.999999999999999 AA, multipole_radius_free =              5.054417573612229 AA.
  | Species        1: outer_partition_radius set to              5.054417573612229 AA .
  | Species        2: Confinement radius =              4.999999999999999 AA, multipole_radius_free =              5.019602836301480 AA.
  | Species        2: outer_partition_radius set to              5.019602836301480 AA .
  | The sparse table of interatomic distances needs       7623.76 kbyte instead of     35955.20 kbyte of memory.
  | Net number of integration points:   763840
  | of which are non-zero points    :   605416
  | Numerical average free-atom electrostatic potential    :     -8.61472920 eV
  Renormalizing the initial density to the exact electron count on the 3D integration grid.
  | Initial density: Formal number of electrons (from input files) :     544.0000000000
  | Integrated number of electrons on 3D grid     :     544.0000249866
  | Charge integration error                      :       0.0000249866
  | Normalization factor for density and gradient :       0.9999999541
  Renormalizing the free-atom superposition density to the exact electron count on the 3D integration grid.
  | Formal number of electrons (from input files) :     544.0000000000
  | Integrated number of electrons on 3D grid     :     544.0000249866
  | Charge integration error                      :       0.0000249866
  | Normalization factor for density and gradient :       0.9999999541
  Obtaining max. number of non-zero basis functions in each batch (get_n_compute_maxes).
  | Maximal number of non-zero basis functions:      549 in task     0
  | Maximal number of non-zero basis functions:      538 in task     1
  | Maximal number of non-zero basis functions:      536 in task     2
  | Maximal number of non-zero basis functions:      540 in task     3
  | Maximal number of non-zero basis functions:      535 in task     4
  | Maximal number of non-zero basis functions:      540 in task     5
  | Maximal number of non-zero basis functions:      545 in task     6
  | Maximal number of non-zero basis functions:      557 in task     7
  | Maximal number of non-zero basis functions:      536 in task     8
  | Maximal number of non-zero basis functions:      544 in task     9
  | Maximal number of non-zero basis functions:      536 in task    10
  | Maximal number of non-zero basis functions:      540 in task    11
  | Maximal number of non-zero basis functions:      542 in task    12
  | Maximal number of non-zero basis functions:      540 in task    13
  | Maximal number of non-zero basis functions:      546 in task    14
  | Maximal number of non-zero basis functions:      545 in task    15
  | Maximal number of non-zero basis functions:      539 in task    16
  | Maximal number of non-zero basis functions:      551 in task    17
  Integrating Hamiltonian matrix: batch-based integration.
  GPU acceleration will be used when integrating the Hamiltonian matrix.
  Reporting GPU memory usage by myid 0.  Note that it is likely not the only MPI task binding to its GPU!
  Allocating        2.411 MB on GPU for hamiltonian_shell
  Allocating        0.878 MB on GPU for wave
  Allocating        0.002 MB on GPU for partition
  Allocating        0.878 MB on GPU for h_times_psi
  Time summed over all CPUs for integration: real work       35.900 s, elapsed       36.868 s
  Deallocating memory used on GPU for Hamiltonian integration.
  Integrating overlap matrix.
  Time summed over all CPUs for integration: real work       29.959 s, elapsed       31.022 s
  Deallocating overlap matrix.

  Updating Kohn-Sham eigenvalues and eigenvectors using ELSI and the ELPA eigensolver.
  Singularity check in k-point 1 (analysis for other k-points may follow below):
  Overlap matrix is not singular
  | Lowest and highest eigenvalues :  0.7803E-03,  0.8268E+01
  Finished singularity check of overlap matrix
  | Time :     0.117 s
  Starting ELPA eigensolver
  Finished Cholesky decomposition
  | Time :     0.020 s
  Finished transformation to standard eigenproblem
  | Time :     0.036 s
  Finished solving standard eigenproblem
  | Time :     0.246 s
  Finished back-transformation of eigenvectors
  | Time :     0.024 s

  Obtaining occupation numbers and electronic chemical potential using ELSI.
  | Note that, for insulating systems, the printed 'chemical potential' value is not uniquely defined.
  | It can be anywhere in the energy gap, as long as it correctly separates occupied and unoccupied states.
  | In systems with a gap, the physically relevant chemical potential is the VBM or HOMO.

  | Chemical potential (Fermi level):    -8.35575508 eV
  Writing Kohn-Sham eigenvalues.
  K-point:       1 at    0.000000    0.000000    0.000000 (in units of recip. lattice)

  State    Occupation    Eigenvalue [Ha]    Eigenvalue [eV]
      1       2.00000         -10.070050         -274.02001
      2       2.00000         -10.070022         -274.01925
      3       2.00000         -10.069992         -274.01842
      4       2.00000         -10.069163         -273.99588
      5       2.00000         -10.069040         -273.99253
      6       2.00000         -10.069012         -273.99175
      7       2.00000         -10.068259         -273.97126
      8       2.00000         -10.068021         -273.96479
      9       2.00000         -10.067736         -273.95705
     10       2.00000         -10.067722         -273.95665
     11       2.00000         -10.067690         -273.95579
     12       2.00000         -10.067454         -273.94935
     13       2.00000         -10.067397         -273.94781
     14       2.00000         -10.067157         -273.94128
     15       2.00000         -10.066536         -273.92437
     16       2.00000         -10.066451         -273.92207
     17       2.00000         -10.066396         -273.92058
     18       2.00000         -10.066336         -273.91895
     19       2.00000         -10.066281         -273.91745
     20       2.00000         -10.066080         -273.91199
     21       2.00000         -10.065999         -273.90977
     22       2.00000         -10.065934         -273.90799
     23       2.00000         -10.065597         -273.89882
     24       2.00000         -10.065292         -273.89053
     25       2.00000         -10.065195         -273.88789
     26       2.00000         -10.065138         -273.88633
     27       2.00000         -10.065031         -273.88343
     28       2.00000         -10.064953         -273.88130
     29       2.00000         -10.064815         -273.87755
     30       2.00000         -10.064774         -273.87644
     31       2.00000         -10.064695         -273.87428
     32       2.00000         -10.064614         -273.87208
     33       2.00000         -10.064583         -273.87124
     34       2.00000         -10.064558         -273.87057
     35       2.00000         -10.064320         -273.86407
     36       2.00000         -10.064171         -273.86002
     37       2.00000         -10.064105         -273.85823
     38       2.00000         -10.063927         -273.85340
     39       2.00000         -10.063795         -273.84981
     40       2.00000         -10.063758         -273.84880
     41       2.00000         -10.063672         -273.84646
     42       2.00000         -10.063178         -273.83301
     43       2.00000         -10.063072         -273.83013
     44       2.00000         -10.062801         -273.82275
     45       2.00000         -10.062466         -273.81362
     46       2.00000         -10.062340         -273.81020
     47       2.00000         -10.062114         -273.80405
     48       2.00000         -10.061929         -273.79902
     49       2.00000         -10.061786         -273.79514
     50       2.00000         -10.061555         -273.78885
     51       2.00000         -10.061235         -273.78013
     52       2.00000         -10.061175         -273.77850
     53       2.00000         -10.061135         -273.77741
     54       2.00000         -10.061036         -273.77471
     55       2.00000         -10.060979         -273.77318
     56       2.00000         -10.060882         -273.77054
     57       2.00000         -10.060739         -273.76665
     58       2.00000         -10.060674         -273.76487
     59       2.00000         -10.060546         -273.76138
     60       2.00000         -10.060521         -273.76072
     61       2.00000         -10.060460         -273.75903
     62       2.00000         -10.060419         -273.75793
     63       2.00000         -10.060384         -273.75697
     64       2.00000         -10.060365         -273.75646
     65       2.00000         -10.059636         -273.73661
     66       2.00000         -10.059113         -273.72238
     67       2.00000         -10.058499         -273.70567
     68       2.00000         -10.058009         -273.69235
     69       2.00000         -10.057249         -273.67168
     70       2.00000         -10.057156         -273.66915
     71       2.00000         -10.055361         -273.62029
     72       2.00000         -10.055153         -273.61465
     73       2.00000         -10.055037         -273.61147
[...]
  |    H      0     4.527807 A      4.583499 A        4.713786E-16 a.u.
  |    H      2     3.678162 A  1.011968E+04 A            0.556529 a.u.
  |    H      1     3.958095 A  1.721251E+06 A            0.841931 a.u.
  |    H      0     4.527807 A  3.866455E+12 A            0.581436 a.u.
  |    C      0     2.562483 A      2.562483 A        6.563029E-17 a.u.
  |    C      0     2.967371 A      2.967371 A        1.352164E-16 a.u.
  |    C      0     3.003870 A      3.003870 A        2.312640E-17 a.u.
  |    C      1     3.272245 A      3.272245 A       -3.835259E-17 a.u.
  |    C      0     3.312494 A      3.312494 A       -2.710381E-16 a.u.
  |    C      3     4.077671 A      4.077671 A       -1.683752E-15 a.u.
  |    C      3     4.077671 A      4.077671 A        1.412852E-15 a.u.
  |    C      1     4.496620 A      4.496620 A       -3.011059E-16 a.u.
  |    C      0     4.496620 A      4.551928 A        2.873903E-17 a.u.
  |    C      2     4.551928 A      4.551928 A       -4.610785E-16 a.u.
  |    C      2     4.551928 A      4.551928 A        7.440584E-16 a.u.
  |    C      2     4.551928 A      4.551928 A       -7.110458E-16 a.u.
  |    C      2     4.551928 A      4.551928 A       -1.935424E-16 a.u.
  |    C      0     4.551928 A      4.607917 A        2.067142E-16 a.u.
  |    C      0     4.551928 A      4.607917 A       -1.109786E-16 a.u.
  |    C      1     4.551928 A      4.607917 A       -9.951742E-17 a.u.
  |    C      1     4.551928 A      4.607917 A        1.937809E-16 a.u.
  |    C      1     4.607917 A      4.607917 A       -2.813308E-16 a.u.
  |    C      1     4.607917 A      4.607917 A       -7.330363E-17 a.u.
  |    C      2     4.607917 A      4.607917 A        1.318462E-15 a.u.
  |    C      2     4.607917 A      4.607917 A       -1.318397E-15 a.u.
  |    C      0     4.607917 A      4.664595 A        3.157826E-16 a.u.
  |    C      1     4.607917 A      4.664595 A        7.356967E-16 a.u.
  |    C      4     3.835889 A  2.962973E+02 A            4.379483 a.u.
  |    C      3     4.127827 A  1.725964E+03 A            9.005588 a.u.
  |    C      2     4.607917 A  2.608475E+04 A            9.531178 a.u.
  |    C      1     4.607917 A  2.736013E+06 A            2.127278 a.u.
  |    C      0     4.607917 A  4.399765E+12 A            0.661635 a.u.

  | Shrink_full_auxil_basis : there are       36  radial auxiliary wave functions
                            accepted and       7 rejected.
  | Shrink_full_auxil_basis : there are totally                8992 partial auxiliary wave functions.
 
  | Maximal number of product basis functions per thread :   512   512
 
  | Minimal total memory requirement for three-center overlap :      72.476 Gbs
  | Number of local auxiliary basis functions on task:      0   512
  | Number of local auxiliary basis functions on task:      1   512
  | Number of local auxiliary basis functions on task:      2   512
  | Number of local auxiliary basis functions on task:      3   512
  | Number of local auxiliary basis functions on task:      4   496
  | Number of local auxiliary basis functions on task:      5   496
  | Number of local auxiliary basis functions on task:      6   496
  | Number of local auxiliary basis functions on task:      7   496
  | Number of local auxiliary basis functions on task:      8   496
  | Number of local auxiliary basis functions on task:      9   496
  | Number of local auxiliary basis functions on task:     10   496
  | Number of local auxiliary basis functions on task:     11   496
  | Number of local auxiliary basis functions on task:     12   496
  | Number of local auxiliary basis functions on task:     13   496
  | Number of local auxiliary basis functions on task:     14   496
  | Number of local auxiliary basis functions on task:     15   496
  | Number of local auxiliary basis functions on task:     16   496
  | Number of local auxiliary basis functions on task:     17   496
  | 2D aux task distribution:      3 X      6
  | 2D block size (nb_aux_2d):     64
 
  Basis pair condensation :   1037520  -->     543702
 
 --------------------------------------------
  Constructing auxiliary basis (full product) ...
 
  Product basis:
  | charge radius: extent of product basis function
  | field radius: extent of its Coulomb potential
  | Species   l  charge radius    field radius  multipol momen
  |    H      1     3.910002 A      3.910002 A       -2.487223E-16 a.u.
  |    H      1     3.958095 A      3.958095 A       -2.441841E-16 a.u.
  |    H      0     4.527807 A      4.527807 A        1.268855E-16 a.u.
  |    H      0     4.527807 A      4.583499 A       -4.900954E-17 a.u.
  |    H      0     4.527807 A      4.583499 A        4.713786E-16 a.u.
  |    H      2     3.678162 A  1.011968E+04 A            0.556529 a.u.
  |    H      1     3.958095 A  1.721251E+06 A            0.841931 a.u.
  |    H      0     4.527807 A  3.866455E+12 A            0.581436 a.u.
  |    C      0     2.562483 A      2.562483 A        6.563029E-17 a.u.
  |    C      0     2.967371 A      2.967371 A        1.352164E-16 a.u.
  |    C      0     3.003870 A      3.003870 A        2.312640E-17 a.u.
  |    C      1     3.272245 A      3.272245 A       -3.835259E-17 a.u.
  |    C      0     3.312494 A      3.312494 A       -2.710381E-16 a.u.
  |    C      3     4.077671 A      4.077671 A       -1.683752E-15 a.u.
  |    C      3     4.077671 A      4.077671 A        1.412852E-15 a.u.
  |    C      1     4.496620 A      4.496620 A       -3.011059E-16 a.u.
  |    C      0     4.496620 A      4.551928 A        2.873903E-17 a.u.
  |    C      2     4.551928 A      4.551928 A       -4.610785E-16 a.u.
  |    C      2     4.551928 A      4.551928 A        7.440584E-16 a.u.
  |    C      2     4.551928 A      4.551928 A       -7.110458E-16 a.u.
  |    C      2     4.551928 A      4.551928 A       -1.935424E-16 a.u.
  |    C      0     4.551928 A      4.607917 A        2.067142E-16 a.u.
  |    C      0     4.551928 A      4.607917 A       -1.109786E-16 a.u.
  |    C      1     4.551928 A      4.607917 A       -9.951742E-17 a.u.
  |    C      1     4.551928 A      4.607917 A        1.937809E-16 a.u.
  |    C      1     4.607917 A      4.607917 A       -2.813308E-16 a.u.
  |    C      1     4.607917 A      4.607917 A       -7.330363E-17 a.u.
  |    C      2     4.607917 A      4.607917 A        1.318462E-15 a.u.
  |    C      2     4.607917 A      4.607917 A       -1.318397E-15 a.u.
  |    C      0     4.607917 A      4.664595 A        3.157826E-16 a.u.
  |    C      1     4.607917 A      4.664595 A        7.356967E-16 a.u.
  |    C      4     3.835889 A  2.962973E+02 A            4.379483 a.u.
  |    C      3     4.127827 A  1.725964E+03 A            9.005588 a.u.
  |    C      2     4.607917 A  2.608475E+04 A            9.531178 a.u.
  |    C      1     4.607917 A  2.736013E+06 A            2.127278 a.u.
  |    C      0     4.607917 A  4.399765E+12 A            0.661635 a.u.

  | Shrink_full_auxil_basis : there are       36  radial auxiliary wave functions
                            accepted and       7 rejected.
  | Shrink_full_auxil_basis : there are totally                8992 partial auxiliary wave functions.
 
  | Maximal number of product basis functions per thread :   512   512
 
  | Minimal total memory requirement for three-center overlap :      72.476 Gbs
  | Number of local auxiliary basis functions on task:      0   512
  | Number of local auxiliary basis functions on task:      1   512
  | Number of local auxiliary basis functions on task:      2   512
  | Number of local auxiliary basis functions on task:      3   512
  | Number of local auxiliary basis functions on task:      4   496
  | Number of local auxiliary basis functions on task:      5   496
  | Number of local auxiliary basis functions on task:      6   496
  | Number of local auxiliary basis functions on task:      7   496
  | Number of local auxiliary basis functions on task:      8   496
  | Number of local auxiliary basis functions on task:      9   496
  | Number of local auxiliary basis functions on task:     10   496
  | Number of local auxiliary basis functions on task:     11   496
  | Number of local auxiliary basis functions on task:     12   496
  | Number of local auxiliary basis functions on task:     13   496
  | Number of local auxiliary basis functions on task:     14   496
  | Number of local auxiliary basis functions on task:     15   496
  | Number of local auxiliary basis functions on task:     16   496
  | Number of local auxiliary basis functions on task:     17   496
  | 2D aux task distribution:      3 X      6
  | 2D block size (nb_aux_2d):     64
 
  Basis pair condensation :   1037520  -->     543702
  Allocating        0.069 MB for t_coeff
  Allocating        0.034 MB for basbas_idx
  Allocating        0.069 MB for wave
  Allocating        0.069 MB for total_wave
  Allocating        0.206 MB for wave_gradient
  Allocating        0.206 MB for total_wave_grad
 HERE1
 HERE2
  Deallocating        0.069 MB for t_coeff
  Deallocating        0.034 MB for basbas_idx
  Deallocating        0.069 MB for wave
  Deallocating        0.206 MB for wave_gradient
  Deallocating        0.206 MB for total_wave_grad
dP_dE (Bohr^3) at every cycle:--->
 (996.837709043949,0.000000000000000E+000) (1.03979402036572,0.000000000000000E+000) (-450.644133002855,0.000000000000000E+000)
 (1.06404934521596,0.000000000000000E+000) (1359.12673588907,0.000000000000000E+000) (-3.84701664237247,0.000000000000000E+000)
 (-450.810729649517,0.000000000000000E+000) (-3.90072135730214,0.000000000000000E+000) (1691.55028069106,0.000000000000000E+000)
DFPT polarizability (Bohr^3)        xx        yy        zz        xy        xz        yz
  | Polarizability:--->                       996.837709044                 1359.126735889                 1691.550280691                    1.039794020                 -450.644133003                   -3.847016642

DFPT for dielectric_constant:--->  # PARSE DFPT_dielectric_tensor
               2.352687508192067             0.001410978306379            -0.611514476050113
               0.001443892264824             2.844305989838865            -0.005220319525166
              -0.611740544146055            -0.005293195677781             3.295397649396810

                                               :  max(cpu_time)    wall_clock(cpu1)
  | Time for  dielectric calculation            :        0.000 s           0.000 s
===========================================================================

------------------------------------------------------------------------------
  Final output of selected total energy values:

  The following output summarizes some interesting total energy values
  at the end of a run (AFTER all relaxation, molecular dynamics, etc.).

  | Total energy of the DFT / Hartree-Fock s.c.f. calculation      :         -83267.355173293 eV
  | Final zero-broadening corrected energy (caution - metals only) :         -83267.355173293 eV
  | For reference only, the value of 1 Hartree used in FHI-aims is :             27.211384500 eV
  | For reference only, the overall average (free atom contribution
  | + realspace contribution) of the electrostatic potential after
  | s.c.f. convergence is                                          :             -7.699305873 eV

  Before relying on these values, please be sure to understand exactly which
  total energy value is referred to by a given number. Different objects may
  all carry the same name 'total energy'. Definitions:

  Total energy of the DFT / Hartree-Fock s.c.f. calculation:
  | Note that this energy does not include ANY quantities calculated after the
  | s.c.f. cycle, in particular not ANY RPA, MP2, etc. many-body perturbation terms.

  Final zero-broadening corrected energy:
  | For metallic systems only, a broadening of the occupation numbers at the Fermi
  | level can be extrapolated back to zero broadening by an electron-gas inspired
  | formula. For all systems that are not real metals, this value can be
  | meaningless and should be avoided.

------------------------------------------------------------------------------
  Methods described in the following list of references were used in this FHI-aims run.
  If you publish the results, please make sure to cite these reference if they apply.
  FHI-aims is an academic code, and for our developers (often, Ph.D. students
  and postdocs), scientific credit in the community is essential.
  Thank you for helping us!

  For any use of FHI-aims, please cite:

    Volker Blum, Ralf Gehrke, Felix Hanke, Paula Havu, Ville Havu,
    Xinguo Ren, Karsten Reuter, and Matthias Scheffler
    'Ab initio molecular simulations with numeric atom-centered orbitals'
    Computer Physics Communications 180, 2175-2196 (2009)
    http://doi.org/10.1016/j.cpc.2009.06.022


  For Hartree-Fock, hybrid functionals, or many-body perturbation theory used in your run, please cite:

    Xinguo Ren, Patrick Rinke, Volker Blum, Juergen Wieferink, Alex Tkatchenko,
    Andrea Sanfilippo, Karsten Reuter, and Matthias Scheffler,
    'Resolution-of-identity approach to Hartree-Fock, hybrid density functionals,
    RPA, MP2, and GW with numeric atom-centered orbital basis functions'
    New Journal of Physics 14, 053020 (2012).
    http://doi.org/10.1088/1367-2630/14/5/053020


  The provided symmetry information was generated with SPGlib:

    Atsushi Togo, Yusuke Seto, Dimitar Pashov
    SPGlib 1.7.3 obtained from http://spglib.sourceforge.net
    Copyright (C) 2008 Atsushi Togo


  The DFPT (perturbation by an electric field) part of the code was used.
  Here is the corresponding reference:

    Honghui Shang, Nathaniel Raimbault, Mariana Rossi,
    Christian Carbogno, Patrick Rinke and Matthias Scheffler,
    'All-Electron, Real-Space Perturbation Theory for Homogeneous
    Electric Fields: Theory, Implementation, and Application within dft'
    New Journal of Physics, 20(7):073040, 2018


  The ELSI infrastructure was used in your run to solve the Kohn-Sham electronic structure.
  Please check out http://elsi-interchange.org to learn more.
  If scalability is important for your project, please acknowledge ELSI by citing:

    V. W-z. Yu, F. Corsetti, A. Garcia, W. P. Huhn, M. Jacquelin, W. Jia,
    B. Lange, L. Lin, J. Lu, W. Mi, A. Seifitokaldani, A. Vazquez-Mayagoitia,
    C. Yang, H. Yang, and V. Blum
    'ELSI: A unified software interface for Kohn-Sham electronic structure solvers'
    Computer Physics Communications 222, 267-285 (2018).
    http://doi.org/10.1016/j.cpc.2017.09.007


  For the real-space grid partitioning and parallelization used in this calculation, please cite:

    Ville Havu, Volker Blum, Paula Havu, and Matthias Scheffler,
    'Efficient O(N) integration for all-electron electronic structure calculation'
    'using numerically tabulated basis functions'
    Journal of Computational Physics 228, 8367-8379 (2009).
    http://doi.org/10.1016/j.jcp.2009.08.008


  The high-level electronic structure method used in your calculation
  employed our efficient localized resolution of identity for the Coulomb operator.
  Some calculations, especially large-scale hybrid density functional theory,
  are only possible thanks to this development. For this feature, please cite:

    Arvid Ihrig, Juergen Wieferink, Igor Ying Zhang, Matti Ropo, Xinguo Ren,
    Patrick Rinke, Matthias Scheffler, and Volker Blum,
    'Accurate localized resolution of identity approach for linear-scaling
    hybrid density functionals and for many-body perturbation theory'
    New Journal of Physics 117, 093020 (2015).
    http://doi.org/10.1088/1367-2630/17/9/093020

  Of course, there are many other important community references, e.g., those cited in the
  above references. Our list is limited to references that describe implementations in the
  FHI-aims code. The reason is purely practical (length of this list) - please credit others as well.

------------------------------------------------------------
          Leaving FHI-aims.
          Date     :  20230119, Time     :  175410.636

          Computational steps:
          | Number of self-consistency cycles          :           46
          | Number of SCF (re)initializations          :            1
          | Number of coupled perturbed self-consistency cycles          :            0
          | Number of CPSCF (re)initializations          :            0

          Detailed time accounting                     :  max(cpu_time)    wall_clock(cpu1)
          | Total time                                  :     1409.734 s        1423.833 s
          | GPU initialization                          :        2.754 s          15.762 s
          | Preparation time                            :        0.088 s           0.082 s
          | Boundary condition initalization            :        1.040 s           1.040 s
          | Grid partitioning                           :        1.242 s           1.243 s
          | Preloading free-atom quantities on grid     :        3.762 s           3.763 s
          | Free-atom superposition energy              :        0.475 s           0.475 s
          | Total time for integrations                 :       19.956 s          20.189 s
          | Product basis setup: Total time             :        0.000 s           0.000 s
          | Product basis: | 2-center integrations     :(       0.000 s)  (       0.000 s)
          | Product basis: | LVL 3-center & coefficient:(       0.000 s)  (       0.000 s)
          | Total time for solution of K.-S. equations  :        3.438 s           3.439 s
          | Total time for density update               :       13.760 s          14.142 s
          | Total time for mixing & preconditioning     :       34.562 s          34.567 s
          | Total time for Hartree multipole update     :        0.092 s           0.091 s
          | Total time for Hartree multipole sum        :       43.504 s          43.516 s
          | Total time for total energy evaluation      :        0.006 s           0.004 s
          | Total time first_order_DM                   :        1.831 s           1.828 s
          | Total time first_order_density              :      294.685 s         294.765 s
          | Total time first_order_potential            :      116.168 s         116.202 s
          | Total time first_order_H                    :      557.248 s         557.398 s
          | Total time solving of Sternheimer equations :        1.794 s           1.800 s
          | Total time for dielectric constant          :        0.000 s           0.000 s
          | Total time momentum matrix                  :        0.000 s           0.000 s

          GPU acceleration has been used for charge density update.
          GPU acceleration has been used for real-space Hamiltonian integration.
          Due to GPU usage, wall_clock(cpu1) will give a more reliable estimate for timings.

          Partial memory accounting:
          | Residual value for overall tracked memory usage across tasks:     1.234863 MB (should be 0.000000 MB)
          |
          | Largest tracked array allocation:
          |   Minimum:      103.142 MB (DFPT_pulay_mixing::initialize_pulay_mixing::X_in_diffs on task  0)
          |   Maximum:      103.142 MB (DFPT_pulay_mixing::initialize_pulay_mixing::X_in_diffs on task  0)
          |   Average:      103.142 MB
          |
          | Because the residual tracked memory usage was not zero, the peak value for overall
          | tracked memory usage was not output, as it is probably incorrect.  This is likely due
          | to a missing aims_deallocate statement in the source code, which should be otherwise
          | harmless.
          |
          Note:  These values currently only include a subset of arrays which are explicitly tracked.
          The "true" memory usage will be greater.

          Have a nice day.
------------------------------------------------------------
