------------------------------------------------------------
          Invoking FHI-aims ...

          When using FHI-aims, please cite the following reference:

            Volker Blum, Ralf Gehrke, Felix Hanke, Paula Havu,
            Ville Havu, Xinguo Ren, Karsten Reuter, and Matthias Scheffler,
            'Ab Initio Molecular Simulations with Numeric Atom-Centered Orbitals',
            Computer Physics Communications 180, 2175-2196 (2009)

          In addition, many other developments in FHI-aims are likely important for
          your particular application. A partial list of references is given at the end of
          this file. Thank you for giving credit to the authors of these developments.

          For any questions about FHI-aims, please visit our slack channel at

            https://fhi-aims.slack.com

          and our main development and support site at

            https://aims-git.rz-berlin.mpg.de .

          The latter site, in particular, has a wiki to collect information, as well
          as an issue tracker to log discussions, suggest improvements, and report issues
          or bugs. https://aims-git.rz-berlin.mpg.de is also the main development site
          of the project and all new and updated code versions can be obtained there.
          Please send an email to aims-coordinators@fhi-berlin.mpg.de and we will add
          you to these sites. They are for you and everyone is welcome there.

------------------------------------------------------------



  Date     :  20230119, Time     :  175838.855
  Time zero on CPU 1             :   0.461588000000000E+00  s.
  Internal wall clock time zero  :           443383118.855  s.

  FHI-aims created a unique identifier for this run for later identification
  aims_uuid : F307FD3B-3DA7-40E3-A429-6F94E8085FAB

  Build configuration of the current instance of FHI-aims
  -------------------------------------------------------
  FHI-aims version      : 220829
  Commit number         : 9895fc21d
  CMake host system     : Linux-5.3.18-150300.59.68-default
  CMake version         : 3.17.0
  Fortran compiler      : /mpcdf/soft/SLE_15/packages/x86_64/intel_oneapi/2021.3/mpi/2021.3.0/bin/mpiifort (Intel) version 20.2.3.20210609
  Fortran compiler flags: -O3 -ip -fp-model precise
  C compiler            : /mpcdf/soft/SLE_15/packages/x86_64/intel/2021.3.0/bin/icc (Intel) version 20.2.3.20210609
  C compiler flags      : -O3 -ip -fp-model precise -std=gnu99
  CUDA compiler         : /mpcdf/soft/SLE_15/packages/x86_64/cuda/11.6.2/bin/nvcc
  CUDA compiler flags   : -O3 -DAdd_ -lcublas
  ELPA2 kernel          : AVX512
  Using MPI
  Using ScaLAPACK
  Using LibXC
  Using CUDA
  Using i-PI
  Using RLSY
  Linking against: /mpcdf/soft/SLE_15/packages/x86_64/cuda/11.6.2/lib64/libcublas.so
                   /mpcdf/soft/SLE_15/packages/x86_64/cuda/11.6.2/lib64/libcudart.so
                   /mpcdf/soft/SLE_15/packages/x86_64/intel_oneapi/2021.3/mkl/latest/lib/intel64/libmkl_intel_lp64.so
                   /mpcdf/soft/SLE_15/packages/x86_64/intel_oneapi/2021.3/mkl/latest/lib/intel64/libmkl_sequential.so
                   /mpcdf/soft/SLE_15/packages/x86_64/intel_oneapi/2021.3/mkl/latest/lib/intel64/libmkl_core.so
                   /mpcdf/soft/SLE_15/packages/x86_64/intel_oneapi/2021.3/mkl/latest/lib/intel64/libmkl_blacs_intelmpi_lp64.so
                   /mpcdf/soft/SLE_15/packages/x86_64/intel_oneapi/2021.3/mkl/latest/lib/intel64/libmkl_scalapack_lp64.so

  Using       18 parallel tasks.
  Task        0 on host adag015 reporting.
  Task        1 on host adag015 reporting.
  Task        2 on host adag015 reporting.
  Task        3 on host adag015 reporting.
  Task        4 on host adag015 reporting.
  Task        5 on host adag015 reporting.
  Task        6 on host adag015 reporting.
  Task        7 on host adag015 reporting.
  Task        8 on host adag015 reporting.
  Task        9 on host adag015 reporting.
  Task       10 on host adag015 reporting.
  Task       11 on host adag015 reporting.
  Task       12 on host adag015 reporting.
  Task       13 on host adag015 reporting.
  Task       14 on host adag015 reporting.
  Task       15 on host adag015 reporting.
  Task       16 on host adag015 reporting.
  Task       17 on host adag015 reporting.

  Performing system and environment tests:
  | Environment variable OMP_NUM_THREADS correctly set to 1.
  | Checking for ScaLAPACK...
  | Testing pdtran()...
  | All pdtran() tests passed.

  Obtaining array dimensions for all initial allocations:
  
  -----------------------------------------------------------------------
  Parsing control.in (first pass over file, find array dimensions only).
  The contents of control.in will be repeated verbatim below
  unless switched off by setting 'verbatim_writeout .false.' .
  in the first line of control.in .
  -----------------------------------------------------------------------
  
  #
  # Input for polarizability replays on generic oligoacene molecular crystals (light settings,  LDA+MBD).
  #
  #########################################################################################
  #
  #  Physical model
  #
    xc                 pw-lda
    spin               none
    relativistic       none
    charge             0.0
    k_grid 	     2 1 1
    DFPT dielectric
  #
  #  GPU acceleration
  #
  # Turns on GPU acceleration everywhere
    use_gpu
  
  # Turns OFF GPU acceleration of ELPA - may be necessary if GPU ELPA is slow
    elsi_elpa_gpu 0
  #
  #  Relaxation
  #
  #  relax_geometry trm 1E-3
  #  relax_unit_cell fixed_angles
  #
  #  SCF convergence        #
    charge_mix_param   0.75
    #sc_accuracy_rho 1E-4
  #
  # i-PI communication
  #
  compute_forces .false.
  # use_pimd_wrapper 130.183.223.27 26118
  #communicate_pimd_wrapper polarizability
  #output_level MD_light
  #
  # Output SALTED info
    ri_density_restart write
    ri_rho1 write
    ri_full_output .true.
  #  sc_accuracy_rho    1d-6
    default_prodbas_acc 1e-6
    default_max_l_prodbas 6
  #
  #
  ################################################################################
  #
  #  FHI-aims code project
  #  VB, Fritz-Haber Institut, 2009
  #
  #  Suggested "light" defaults for H atom (to be pasted into control.in file)
  #  Be sure to double-check any results obtained with these settings for post-processing,
  #  e.g., with the "tight" defaults and larger basis sets.
  #
  ################################################################################
    species        H
  #     global species definitions
      nucleus             1
      mass                1.00794
  #
      l_hartree           4
  #
      cut_pot             3.5  1.5  1.0
      basis_dep_cutoff    1e-4
  #
      radial_base         24 5.0
      radial_multiplier   1
      angular_grids       specified
        division   0.2421   50
        division   0.3822  110
        division   0.4799  194
        division   0.5341  302
  #      division   0.5626  434
  #      division   0.5922  590
  #      division   0.6542  770
  #      division   0.6868 1202
  #      outer_grid  770
        outer_grid  302
  ################################################################################
  #
  #  Definition of "minimal" basis
  #
  ################################################################################
  #     valence basis states
      valence      1  s   1.
  #     ion occupancy
      ion_occ      1  s   0.5
  ################################################################################
  #
  #  Suggested additional basis functions. For production calculations,
  #  uncomment them one after another (the most important basis functions are
  #  listed first).
  #
  #  Basis constructed for dimers: 0.5 A, 0.7 A, 1.0 A, 1.5 A, 2.5 A
  #
  ################################################################################
  #  "First tier" - improvements: -1014.90 meV to -62.69 meV
       hydro 2 s 2.1
       hydro 2 p 3.5
  #  "Second tier" - improvements: -12.89 meV to -1.83 meV
  #     hydro 1 s 0.85
  #     hydro 2 p 3.7
  #     hydro 2 s 1.2
  #     hydro 3 d 7
  #  "Third tier" - improvements: -0.25 meV to -0.12 meV
  #     hydro 4 f 11.2
  #     hydro 3 p 4.8
  #     hydro 4 d 9
  #     hydro 3 s 3.2
  ################################################################################
  ################################################################################
  #
  #  FHI-aims code project
  #  VB, Fritz-Haber Institut, 2009
  #
  #  Suggested "light" defaults for C atom (to be pasted into control.in file)
  #  Be sure to double-check any results obtained with these settings for post-processing,
  #  e.g., with the "tight" defaults and larger basis sets.
  #
  ################################################################################
    species        C
  #     global species definitions
      nucleus             6
      mass                12.0107
  #
      l_hartree           4
  #
      cut_pot             3.5  1.5  1.0
      basis_dep_cutoff    1e-4
  #
      radial_base         34 5.0
      radial_multiplier   1
      angular_grids specified
        division   0.3326   50
        division   0.5710  110
        division   0.7727  194
        division   0.8772  302
  #      division   0.9334  434
  #      division   0.9625  590
  #      division   0.9924  770
  #      division   1.0230  974
  #      division   1.4589 1202
  #     outer_grid  974
       outer_grid 302
  ################################################################################
  #
  #  Definition of "minimal" basis
  #
  ################################################################################
  #     valence basis states
      valence      2  s   2.
      valence      2  p   2.
  #     ion occupancy
      ion_occ      2  s   1.
      ion_occ      2  p   1.
  ################################################################################
  #
  #  Suggested additional basis functions. For production calculations,
  #  uncomment them one after another (the most important basis functions are
  #  listed first).
  #
  #  Constructed for dimers: 1.0 A, 1.25 A, 1.5 A, 2.0 A, 3.0 A
  #
  ################################################################################
  #  "First tier" - improvements: -1214.57 meV to -155.61 meV
       hydro 2 p 1.7
       hydro 3 d 6
       hydro 2 s 4.9
  #  "Second tier" - improvements: -67.75 meV to -5.23 meV
  #     hydro 4 f 9.8
  #     hydro 3 p 5.2
  #     hydro 3 s 4.3
  #     hydro 5 g 14.4
  #     hydro 3 d 6.2
  #  "Third tier" - improvements: -2.43 meV to -0.60 meV
  #     hydro 2 p 5.6
  #     hydro 2 s 1.4
  #     hydro 3 d 4.9
  #     hydro 4 f 11.2
  #  "Fourth tier" - improvements: -0.39 meV to -0.18 meV
  #     hydro 2 p 2.1
  #     hydro 5 g 16.4
  #     hydro 4 d 13.2
  #     hydro 3 s 13.6
  #     hydro 4 f 17.6
  #  Further basis functions - improvements: -0.08 meV and below
  #     hydro 3 s 2
  #     hydro 3 p 6
  #     hydro 4 d 20
  
  -----------------------------------------------------------------------
  Completed first pass over input file control.in .
  -----------------------------------------------------------------------
  
  
  -----------------------------------------------------------------------
  Parsing geometry.in (first pass over file, find array dimensions only).
  The contents of geometry.in will be repeated verbatim below
  unless switched off by setting 'verbatim_writeout .false.' .
  in the first line of geometry.in .
  -----------------------------------------------------------------------
  
  #=======================================================
  # FHI-aims file: /ada/ptmp/mpsd/alewis/naphthalene/qmdata/data/geoms/221.in
  # Created using the Atomic Simulation Environment (ASE)
  # Thu Jan 19 15:19:17 2023
  #=======================================================
  lattice_vector 8.1020000000000003 0.0000000000000000 0.0000000000000000
  lattice_vector 0.0000000000000000 11.8800000000000008 0.0000000000000000
  lattice_vector -9.7850918486534706 0.0000000000000000 14.2571119625755713
  atom -1.0670500000000001 0.1951720000000000 2.3297500000000002 C
  atom 0.2376430000000000 2.9034300000000002 4.9340599999999997 C
  atom 4.2191599999999996 5.8934400000000000 4.7774900000000002 C
  atom 3.0896900000000000 2.8657800000000000 2.2825799999999998 C
  atom -0.2176250000000000 1.0178600000000000 1.6263099999999999 C
  atom -0.4887090000000000 3.8120599999999998 5.6786599999999998 C
  atom 3.4755699999999998 5.0150399999999999 5.5410899999999996 C
  atom 3.8392800000000000 2.0330800000000000 1.4917100000000001 C
  atom 0.2091530000000000 0.6951750000000000 0.3134340000000000 C
  atom -0.8572170000000000 3.5067200000000001 7.0016400000000001 C
  atom 3.0611100000000002 5.3942600000000001 6.8562000000000003 C
  atom 4.2570199999999998 2.4109699999999998 0.1973700000000000 C
  atom -3.8805499999999999 1.4874600000000000 6.5455300000000003 C
  atom 3.1533899999999999 4.5806300000000002 0.5478990000000000 C
  atom 7.1518899999999999 4.3908600000000000 0.5295830000000000 C
  atom 0.1884870000000000 1.3308400000000000 6.7500799999999996 C
  atom -3.5776300000000001 1.0887600000000000 5.2659399999999996 C
  atom 2.7479800000000001 4.1919599999999999 1.7986000000000000 C
  atom 6.8584800000000001 4.6663600000000001 1.8503400000000001 C
  atom 0.5762440000000000 1.6406600000000000 5.4563499999999996 C
  atom -1.4309099999999999 0.4938300000000000 3.2910400000000002 H
  atom 0.4806460000000000 3.1841300000000001 3.8819400000000002 H
  atom 4.5578599999999998 5.6283700000000003 3.7443700000000000 H
  atom 2.8599999999999999 2.5729799999999998 3.2826000000000000 H
  atom 0.0638870000000000 1.9604900000000001 2.1331300000000000 H
  atom -0.7033520000000000 4.7921399999999998 5.2179599999999997 H
  atom 3.2738800000000001 3.9809100000000002 5.1988700000000003 H
  atom 4.1518800000000002 1.0493399999999999 1.8340600000000000 H
  atom -3.5569999999999999 2.4378899999999999 6.9262800000000002 H
  atom 2.9276900000000001 5.5803000000000003 0.1769780000000000 H
  atom 6.8148200000000001 3.4862199999999999 0.0195071000000000 H
  atom 0.4367790000000000 0.3551500000000000 7.1900500000000003 H
  atom -3.0678500000000000 1.7584500000000001 4.5899400000000004 H
  atom 2.2236600000000002 4.8977899999999996 2.4568699999999999 H
  atom 6.2924400000000000 3.9349300000000000 2.4274800000000001 H
  atom 1.1009899999999999 0.9152450000000000 4.8464600000000004 H
  atom -5.5248200000000001 0.1180350000000000 9.6023700000000005 C
  atom -4.6407400000000001 3.3010999999999999 11.9297000000000004 C
  atom -0.6428670000000000 5.8942899999999998 11.9779000000000000 C
  atom -1.4634900000000000 2.8505600000000002 9.6942199999999996 C
  atom -4.8961699999999997 1.0087500000000000 8.7325999999999997 C
  atom -5.4200799999999996 4.1398599999999997 12.6975999999999996 C
  atom -1.4152499999999999 4.9829299999999996 12.6804000000000006 C
  atom -0.7670160000000000 1.9669700000000001 8.9269900000000000 C
  atom -4.5630300000000004 0.6100520000000000 7.4062599999999996 C
  atom -5.8460700000000001 3.7202099999999998 13.9770000000000003 C
  atom -1.8364400000000001 5.2958999999999996 14.0183999999999997 C
  atom -0.4747610000000000 2.2648899999999998 7.5587600000000004 C
  atom -8.6657799999999998 1.5046500000000000 13.8028999999999993 C
  atom -1.6831300000000000 4.3625200000000000 7.8002000000000002 C
  atom 2.2535500000000002 4.5237100000000003 7.6308800000000003 C
  atom -4.7622700000000000 1.5868000000000000 13.6041000000000007 C
  atom -8.1925799999999995 1.1451499999999999 12.5547000000000004 C
  atom -1.9735600000000000 4.0556200000000002 9.1102100000000004 C
  atom 1.8494400000000000 4.9006600000000002 8.9037400000000009 C
  atom -4.2677600000000000 2.0543800000000001 12.4021000000000008 C
  atom -5.7553599999999996 0.4400590000000000 10.6420999999999992 H
  atom -4.2508999999999997 3.6640799999999998 10.9748000000000001 H
  atom -0.3128260000000000 5.6040900000000002 10.9539000000000009 H
  atom -1.7388900000000000 2.5894300000000001 10.7319999999999993 H
  atom -4.6170900000000001 2.0294900000000000 9.0149699999999999 H
  atom -5.7131999999999996 5.1146399999999996 12.3706999999999994 H
  atom -1.7400400000000000 4.0389200000000001 12.2323000000000004 H
  atom -0.3680120000000000 1.0038600000000000 9.3119099999999992 H
  atom -8.3551500000000001 2.4685999999999999 14.1867999999999999 H
  atom -2.0633800000000000 5.3112399999999997 7.4052899999999999 H
  atom 1.8866200000000000 3.6157900000000001 7.1661900000000003 H
  atom -4.4501799999999996 0.5951510000000000 13.9459000000000000 H
  atom -7.5719000000000003 1.8337000000000001 12.0107999999999997 H
  atom -2.5652499999999998 4.7806800000000003 9.6994199999999999 H
  atom 1.2078599999999999 4.2584799999999996 9.5221800000000005 H
  atom -3.5903100000000001 1.4416400000000000 11.8361000000000001 H
  atom -0.8644460000000000 5.9283799999999998 2.3961800000000002 C
  atom 0.0452699000000000 8.9264299999999999 4.6706500000000002 C
  atom 4.1026800000000003 11.6837999999999997 4.7732599999999996 C
  atom 3.1782900000000001 8.7749900000000007 2.5327799999999998 C
  atom -0.1442310000000000 6.8360099999999999 1.6493700000000000 C
  atom -0.5933500000000000 9.8220799999999997 5.5002800000000001 C
  atom 3.3871899999999999 10.8386999999999993 5.5728499999999999 C
  atom 3.9848200000000000 7.9388600000000000 1.8087000000000000 C
  atom 0.2735480000000000 6.5724099999999996 0.3320990000000000 C
  atom -0.8803820000000000 9.5101200000000006 6.8516500000000002 C
  atom 3.1155200000000001 11.1830999999999996 6.9202700000000004 C
  atom 4.3838999999999997 8.2768599999999992 0.4737450000000000 C
  atom -3.7595100000000001 7.4730999999999996 6.6057199999999998 C
  atom 3.1341199999999998 10.3575999999999997 0.6838140000000000 C
  atom 7.0920300000000003 10.4321999999999999 0.5175140000000000 C
  atom 0.2537690000000000 7.3575499999999998 6.5447499999999996 C
  atom -3.4542099999999998 7.1186400000000001 5.2992200000000000 C
  atom 2.6676099999999998 9.9764900000000001 1.9475199999999999 C
  atom 6.6574700000000000 10.8217999999999996 1.7846900000000001 C
  atom 0.4700870000000000 7.7008099999999997 5.2378299999999998 C
  atom -1.0428100000000000 6.1607599999999998 3.4311500000000001 H
  atom 0.2187670000000000 9.2297799999999999 3.6137700000000001 H
  atom 4.3207899999999997 11.3628000000000000 3.7575599999999998 H
  atom 2.9030399999999998 8.5383800000000001 3.5750700000000002 H
  atom 0.1366190000000000 7.8204099999999999 2.0918100000000002 H
  atom -0.8912540000000000 10.7993000000000006 5.1226900000000004 H
  atom 2.9789900000000000 9.8763400000000008 5.2499000000000002 H
  atom 4.3040700000000003 6.9550299999999998 2.1906900000000000 H
  atom -3.4241600000000001 8.4184900000000003 7.0213299999999998 H
  atom 2.7829500000000000 11.2957999999999998 0.2409320000000000 H
  atom 6.6925699999999999 9.5157699999999998 0.0853966000000000 H
  atom 0.6361680000000000 6.4224500000000004 6.9337999999999997 H
  atom -2.8443499999999999 7.7865799999999998 4.6560300000000003 H
  atom 2.0425800000000001 10.6462000000000003 2.5477500000000002 H
  atom 5.9192900000000002 10.2004999999999999 2.3212899999999999 H
  atom 0.9563020000000000 6.9248399999999997 4.6460299999999997 H
  atom -5.7417699999999998 6.0968099999999996 9.4581599999999995 C
  atom -4.7408700000000001 8.9915199999999995 12.0699000000000005 C
  atom -0.5502100000000000 11.8018999999999998 12.0322999999999993 C
  atom -1.4680299999999999 8.8206299999999995 9.5655400000000004 C
  atom -4.9152800000000001 6.9424200000000003 8.7509599999999992 C
  atom -5.4593400000000001 9.8590699999999991 12.8256999999999994 C
  atom -1.4084600000000000 10.9693000000000005 12.7269000000000005 C
  atom -0.7387970000000000 7.9456800000000003 8.7790999999999997 C
  atom -4.5659099999999997 6.6446300000000003 7.4155100000000003 C
  atom -5.8418799999999997 9.5065799999999996 14.1631000000000000 C
  atom -1.8959100000000000 11.2954000000000008 14.0183999999999997 C
  atom -0.4356060000000000 8.2215000000000007 7.4215200000000001 C
  atom -8.6574299999999997 7.4436200000000001 13.8252000000000006 C
  atom -1.5621400000000001 10.3989999999999991 7.7142099999999996 C
  atom 2.3705099999999999 10.3358000000000008 7.8319099999999997 C
  atom -4.6443099999999999 7.3794899999999997 13.9221000000000004 C
  atom -8.3099200000000000 7.1183600000000000 12.5236999999999998 C
  atom -1.8608300000000000 10.0672999999999995 9.0281099999999999 C
  atom 2.1295999999999999 10.7174999999999994 9.1342199999999991 C
  atom -4.3079499999999999 7.7452100000000002 12.6302000000000003 C
  atom -6.0079700000000003 6.3609000000000000 10.4943000000000008 H
  atom -4.4565400000000004 9.2965900000000001 11.0673999999999992 H
  atom -0.1623370000000000 11.4733999999999998 11.0724000000000000 H
  atom -1.7296899999999999 8.5158900000000006 10.5650999999999993 H
  atom -4.5238199999999997 7.8806799999999999 9.2143099999999993 H
  atom -5.7196100000000003 10.8927999999999994 12.4979999999999993 H
  atom -1.7028300000000001 10.0091999999999999 12.2706999999999997 H
  atom -0.4678190000000000 6.9864600000000001 9.2007999999999992 H
  atom -8.3818000000000001 8.3958300000000001 14.3036999999999992 H
  atom -1.9045099999999999 11.3539999999999992 7.2944199999999997 H
  atom 2.0301200000000001 9.3978699999999993 7.4293300000000002 H
  atom -4.3253100000000000 6.4596799999999996 14.3864000000000001 H
  atom -7.7406499999999996 7.8105700000000002 11.9015000000000004 H
  atom -2.3906299999999998 10.7658000000000005 9.6423000000000005 H
  atom 1.6043400000000001 10.0099999999999998 9.8175500000000007 H
  atom -3.6436799999999998 7.0923100000000003 12.0428999999999995 H
  
  -----------------------------------------------------------------------
  Completed first pass over input file geometry.in .
  -----------------------------------------------------------------------
  

  Basic array size parameters:
  | Number of species                 :        2
  | Number of atoms                   :      144
  | Number of lattice vectors         :        3
  | Max. basis fn. angular momentum   :        2
  | Max. atomic/ionic basis occupied n:        2
  | Max. number of basis fn. types    :        2
  | Max. radial fns per species/type  :        3
  | Max. logarithmic grid size        :     1277
  | Max. radial integration grid size :       34
  | Max. angular integration grid size:      302
  | Max. angular grid division number :        8
  | Radial grid for Hartree potential :     1277
  | Number of spin channels           :        1

------------------------------------------------------------
          Reading file control.in.
------------------------------------------------------------
  XC: Using Perdew-Wang parametrisation of Ceperley-Alder LDA.
  Spin treatment: No spin polarisation.
  Non-relativistic treatment of kinetic energy.
  Charge =   0.000000E+00: Neutral system requested explicitly.
  Found k-point grid:         2         1         1
  DFPT calculation will begin after the DFT/HF calculation.
  Charge density mixing - mixing parameter:     0.7500
  Forces will not be computed.
 
  Reading configuration options for species H                   .
  | Found nuclear charge :   1.0000
  | Found atomic mass :    1.00794000000000      amu
  | Found l_max for Hartree potential  :   4
  | Found cutoff potl. onset [A], width [A], scale factor :    3.50000    1.50000    1.00000
  | Threshold for basis-dependent cutoff potential is   0.100000E-03
  | Found data for basic radial integration grid :    24 points, outermost radius =    5.000 A
  | Found multiplier for basic radial grid :   1
  | Found angular grid specification: user-specified.
  | Specified grid contains     5 separate shells.
  | Check grid settings after all constraints further below.
  | Found free-atom valence shell :  1 s   1.000
  | No ionic wave fns used. Skipping ion_occ.
  | Found hydrogenic basis function :  2 s   2.100
  | Found hydrogenic basis function :  2 p   3.500
  Species H                   : Missing cutoff potential type.
  Defaulting to exp(1/x)/(1-x)^2 type cutoff potential.
  Species H : No 'logarithmic' tag. Using default grid for free atom:
  | Default logarithmic grid data [bohr] : 0.1000E-03 0.1000E+03 0.1012E+01
  Species H : On-site basis accuracy parameter (for Gram-Schmidt orthonormalisation) not specified.
  Using default value basis_acc =  0.1000000E-03.
  Species H                   : Using default innermost maximum threshold i_radial=  2 for radial functions.
  Species H                   : Default cutoff onset for free atom density etc. : 0.35000000E+01 AA.
  Species H                   : Basic radial grid will be enhanced according to radial_multiplier =   1, to contain    24 grid points.
 
  Reading configuration options for species C                   .
  | Found nuclear charge :   6.0000
  | Found atomic mass :    12.0107000000000      amu
  | Found l_max for Hartree potential  :   4
  | Found cutoff potl. onset [A], width [A], scale factor :    3.50000    1.50000    1.00000
  | Threshold for basis-dependent cutoff potential is   0.100000E-03
  | Found data for basic radial integration grid :    34 points, outermost radius =    5.000 A
  | Found multiplier for basic radial grid :   1
  | Found angular grid specification: user-specified.
  | Specified grid contains     5 separate shells.
  | Check grid settings after all constraints further below.
  | Found free-atom valence shell :  2 s   2.000
  | Found free-atom valence shell :  2 p   2.000
  | No ionic wave fns used. Skipping ion_occ.
  | No ionic wave fns used. Skipping ion_occ.
  | Found hydrogenic basis function :  2 p   1.700
  | Found hydrogenic basis function :  3 d   6.000
  | Found hydrogenic basis function :  2 s   4.900
  Species C                   : Missing cutoff potential type.
  Defaulting to exp(1/x)/(1-x)^2 type cutoff potential.
  Species C : No 'logarithmic' tag. Using default grid for free atom:
  | Default logarithmic grid data [bohr] : 0.1000E-03 0.1000E+03 0.1012E+01
  Species C : On-site basis accuracy parameter (for Gram-Schmidt orthonormalisation) not specified.
  Using default value basis_acc =  0.1000000E-03.
  Species C                   : Using default innermost maximum threshold i_radial=  2 for radial functions.
  Species C                   : Default cutoff onset for free atom density etc. : 0.35000000E+01 AA.
  Species C                   : Basic radial grid will be enhanced according to radial_multiplier =   1, to contain    34 grid points.
 
  Finished reading input file 'control.in'.
 
------------------------------------------------------------


------------------------------------------------------------
          Reading geometry description geometry.in.
------------------------------------------------------------
  | The smallest distance between any two atoms is         1.06701890 AA.
  | The first atom of this pair is atom number                      4 .
  | The second atom of this pair is atom number                    24 .
  | Wigner-Seitz cell of the first atom image           0     0     0 .
  | (The Wigner-Seitz cell of the second atom is 0 0 0  by definition.)

  Symmetry information by spglib:
  | Precision set to  0.1E-04
  | Number of Operations  : 1
  | Space group           : 1
  | International         : P1
  | Schoenflies           : C1^1
  Input structure read successfully.
  The structure contains      144 atoms,  and a total of        544.000 electrons.

  Input geometry:
  | Unit cell:
  |        8.10200000        0.00000000        0.00000000
  |        0.00000000       11.88000000        0.00000000
  |       -9.78509185        0.00000000       14.25711196
  | Atomic structure:
  |       Atom                x [A]            y [A]            z [A]
  |    1: Species C            -1.06705000        0.19517200        2.32975000
  |    2: Species C             0.23764300        2.90343000        4.93406000
  |    3: Species C             4.21916000        5.89344000        4.77749000
  |    4: Species C             3.08969000        2.86578000        2.28258000
  |    5: Species C            -0.21762500        1.01786000        1.62631000
  |    6: Species C            -0.48870900        3.81206000        5.67866000
  |    7: Species C             3.47557000        5.01504000        5.54109000
  |    8: Species C             3.83928000        2.03308000        1.49171000
  |    9: Species C             0.20915300        0.69517500        0.31343400
  |   10: Species C            -0.85721700        3.50672000        7.00164000
  |   11: Species C             3.06111000        5.39426000        6.85620000
  |   12: Species C             4.25702000        2.41097000        0.19737000
  |   13: Species C            -3.88055000        1.48746000        6.54553000
  |   14: Species C             3.15339000        4.58063000        0.54789900
  |   15: Species C             7.15189000        4.39086000        0.52958300
  |   16: Species C             0.18848700        1.33084000        6.75008000
  |   17: Species C            -3.57763000        1.08876000        5.26594000
  |   18: Species C             2.74798000        4.19196000        1.79860000
  |   19: Species C             6.85848000        4.66636000        1.85034000
  |   20: Species C             0.57624400        1.64066000        5.45635000
  |   21: Species H            -1.43091000        0.49383000        3.29104000
  |   22: Species H             0.48064600        3.18413000        3.88194000
  |   23: Species H             4.55786000        5.62837000        3.74437000
  |   24: Species H             2.86000000        2.57298000        3.28260000
  |   25: Species H             0.06388700        1.96049000        2.13313000
  |   26: Species H            -0.70335200        4.79214000        5.21796000
  |   27: Species H             3.27388000        3.98091000        5.19887000
  |   28: Species H             4.15188000        1.04934000        1.83406000
  |   29: Species H            -3.55700000        2.43789000        6.92628000
  |   30: Species H             2.92769000        5.58030000        0.17697800
  |   31: Species H             6.81482000        3.48622000        0.01950710
  |   32: Species H             0.43677900        0.35515000        7.19005000
  |   33: Species H            -3.06785000        1.75845000        4.58994000
  |   34: Species H             2.22366000        4.89779000        2.45687000
  |   35: Species H             6.29244000        3.93493000        2.42748000
  |   36: Species H             1.10099000        0.91524500        4.84646000
  |   37: Species C            -5.52482000        0.11803500        9.60237000
  |   38: Species C            -4.64074000        3.30110000       11.92970000
  |   39: Species C            -0.64286700        5.89429000       11.97790000
  |   40: Species C            -1.46349000        2.85056000        9.69422000
  |   41: Species C            -4.89617000        1.00875000        8.73260000
  |   42: Species C            -5.42008000        4.13986000       12.69760000
  |   43: Species C            -1.41525000        4.98293000       12.68040000
  |   44: Species C            -0.76701600        1.96697000        8.92699000
  |   45: Species C            -4.56303000        0.61005200        7.40626000
  |   46: Species C            -5.84607000        3.72021000       13.97700000
  |   47: Species C            -1.83644000        5.29590000       14.01840000
  |   48: Species C            -0.47476100        2.26489000        7.55876000
  |   49: Species C            -8.66578000        1.50465000       13.80290000
  |   50: Species C            -1.68313000        4.36252000        7.80020000
  |   51: Species C             2.25355000        4.52371000        7.63088000
  |   52: Species C            -4.76227000        1.58680000       13.60410000
  |   53: Species C            -8.19258000        1.14515000       12.55470000
  |   54: Species C            -1.97356000        4.05562000        9.11021000
  |   55: Species C             1.84944000        4.90066000        8.90374000
  |   56: Species C            -4.26776000        2.05438000       12.40210000
  |   57: Species H            -5.75536000        0.44005900       10.64210000
  |   58: Species H            -4.25090000        3.66408000       10.97480000
  |   59: Species H            -0.31282600        5.60409000       10.95390000
  |   60: Species H            -1.73889000        2.58943000       10.73200000
  |   61: Species H            -4.61709000        2.02949000        9.01497000
  |   62: Species H            -5.71320000        5.11464000       12.37070000
  |   63: Species H            -1.74004000        4.03892000       12.23230000
  |   64: Species H            -0.36801200        1.00386000        9.31191000
  |   65: Species H            -8.35515000        2.46860000       14.18680000
  |   66: Species H            -2.06338000        5.31124000        7.40529000
  |   67: Species H             1.88662000        3.61579000        7.16619000
  |   68: Species H            -4.45018000        0.59515100       13.94590000
  |   69: Species H            -7.57190000        1.83370000       12.01080000
  |   70: Species H            -2.56525000        4.78068000        9.69942000
  |   71: Species H             1.20786000        4.25848000        9.52218000
  |   72: Species H            -3.59031000        1.44164000       11.83610000
  |   73: Species C            -0.86444600        5.92838000        2.39618000
  |   74: Species C             0.04526990        8.92643000        4.67065000
  |   75: Species C             4.10268000       11.68380000        4.77326000
  |   76: Species C             3.17829000        8.77499000        2.53278000
  |   77: Species C            -0.14423100        6.83601000        1.64937000
  |   78: Species C            -0.59335000        9.82208000        5.50028000
  |   79: Species C             3.38719000       10.83870000        5.57285000
  |   80: Species C             3.98482000        7.93886000        1.80870000
  |   81: Species C             0.27354800        6.57241000        0.33209900
  |   82: Species C            -0.88038200        9.51012000        6.85165000
  |   83: Species C             3.11552000       11.18310000        6.92027000
  |   84: Species C             4.38390000        8.27686000        0.47374500
  |   85: Species C            -3.75951000        7.47310000        6.60572000
  |   86: Species C             3.13412000       10.35760000        0.68381400
  |   87: Species C             7.09203000       10.43220000        0.51751400
  |   88: Species C             0.25376900        7.35755000        6.54475000
  |   89: Species C            -3.45421000        7.11864000        5.29922000
  |   90: Species C             2.66761000        9.97649000        1.94752000
  |   91: Species C             6.65747000       10.82180000        1.78469000
  |   92: Species C             0.47008700        7.70081000        5.23783000
  |   93: Species H            -1.04281000        6.16076000        3.43115000
  |   94: Species H             0.21876700        9.22978000        3.61377000
  |   95: Species H             4.32079000       11.36280000        3.75756000
  |   96: Species H             2.90304000        8.53838000        3.57507000
  |   97: Species H             0.13661900        7.82041000        2.09181000
  |   98: Species H            -0.89125400       10.79930000        5.12269000
  |   99: Species H             2.97899000        9.87634000        5.24990000
  |  100: Species H             4.30407000        6.95503000        2.19069000
  |  101: Species H            -3.42416000        8.41849000        7.02133000
  |  102: Species H             2.78295000       11.29580000        0.24093200
  |  103: Species H             6.69257000        9.51577000        0.08539660
  |  104: Species H             0.63616800        6.42245000        6.93380000
  |  105: Species H            -2.84435000        7.78658000        4.65603000
  |  106: Species H             2.04258000       10.64620000        2.54775000
  |  107: Species H             5.91929000       10.20050000        2.32129000
  |  108: Species H             0.95630200        6.92484000        4.64603000
  |  109: Species C            -5.74177000        6.09681000        9.45816000
  |  110: Species C            -4.74087000        8.99152000       12.06990000
  |  111: Species C            -0.55021000       11.80190000       12.03230000
  |  112: Species C            -1.46803000        8.82063000        9.56554000
  |  113: Species C            -4.91528000        6.94242000        8.75096000
  |  114: Species C            -5.45934000        9.85907000       12.82570000
  |  115: Species C            -1.40846000       10.96930000       12.72690000
  |  116: Species C            -0.73879700        7.94568000        8.77910000
  |  117: Species C            -4.56591000        6.64463000        7.41551000
  |  118: Species C            -5.84188000        9.50658000       14.16310000
  |  119: Species C            -1.89591000       11.29540000       14.01840000
  |  120: Species C            -0.43560600        8.22150000        7.42152000
  |  121: Species C            -8.65743000        7.44362000       13.82520000
  |  122: Species C            -1.56214000       10.39900000        7.71421000
  |  123: Species C             2.37051000       10.33580000        7.83191000
  |  124: Species C            -4.64431000        7.37949000       13.92210000
  |  125: Species C            -8.30992000        7.11836000       12.52370000
  |  126: Species C            -1.86083000       10.06730000        9.02811000
  |  127: Species C             2.12960000       10.71750000        9.13422000
  |  128: Species C            -4.30795000        7.74521000       12.63020000
  |  129: Species H            -6.00797000        6.36090000       10.49430000
  |  130: Species H            -4.45654000        9.29659000       11.06740000
  |  131: Species H            -0.16233700       11.47340000       11.07240000
  |  132: Species H            -1.72969000        8.51589000       10.56510000
  |  133: Species H            -4.52382000        7.88068000        9.21431000
  |  134: Species H            -5.71961000       10.89280000       12.49800000
  |  135: Species H            -1.70283000       10.00920000       12.27070000
  |  136: Species H            -0.46781900        6.98646000        9.20080000
  |  137: Species H            -8.38180000        8.39583000       14.30370000
  |  138: Species H            -1.90451000       11.35400000        7.29442000
  |  139: Species H             2.03012000        9.39787000        7.42933000
  |  140: Species H            -4.32531000        6.45968000       14.38640000
  |  141: Species H            -7.74065000        7.81057000       11.90150000
  |  142: Species H            -2.39063000       10.76580000        9.64230000
  |  143: Species H             1.60434000       10.01000000        9.81755000
  |  144: Species H            -3.64368000        7.09231000       12.04290000

  Lattice parameters for 3D lattice (in Angstroms) :     8.102000   11.880000   17.292000
  Angle(s) between unit vectors (in degrees)       :    90.000000  124.463000   90.000000


  Quantities derived from the lattice vectors (in Angstrom^-1):
  | Reciprocal lattice vector 1:  0.775510  0.000000  0.532257
  | Reciprocal lattice vector 2:  0.000000  0.528888  0.000000
  | Reciprocal lattice vector 3: -0.000000  0.000000  0.440705
  | Unit cell volume                               :   0.137227E+04  Angstrom^3

  Fractional coordinates:
                         L1                L2                L3
       atom_frac         0.06565399        0.01642862        0.16340967  C
       atom_frac         0.44730181        0.24439646        0.34607710  C
       atom_frac         0.92546253        0.49608081        0.33509522  C
       atom_frac         0.57470926        0.24122727        0.16010115  C
       atom_frac         0.11090611        0.08567845        0.11407009  C
       atom_frac         0.42072686        0.32088047        0.39830367  C
       atom_frac         0.89836947        0.42214141        0.38865445  C
       atom_frac         0.60023280        0.17113468        0.10462918  C
       atom_frac         0.05236637        0.05851641        0.02198440  C
       atom_frac         0.48731457        0.29517845        0.49109806  C
       atom_frac         0.95861882        0.45406229        0.48089683  C
       atom_frac         0.54214775        0.20294360        0.01384362  C
       atom_frac         0.07551807        0.12520707        0.45910631  C
       atom_frac         0.43562452        0.38557492        0.03842987  C
       atom_frac         0.92759306        0.36960101        0.03714518  C
       atom_frac         0.59507199        0.11202357        0.47345353  C
       atom_frac         0.00451069        0.09164646        0.36935531  C
       atom_frac         0.49153470        0.35285859        0.12615458  C
       atom_frac         1.00326153        0.39279125        0.12978365  C
       atom_frac         0.53333792        0.13810269        0.38271075  C
       atom_frac         0.10217618        0.04156818        0.23083497  H
       atom_frac         0.38816837        0.26802441        0.27228095  H
       atom_frac         0.87975014        0.47376852        0.26263173  H
       atom_frac         0.63107242        0.21658081        0.23024298  H
       atom_frac         0.18858545        0.16502441        0.14961866  H
       atom_frac         0.35520779        0.40337879        0.36598997  H
       atom_frac         0.84448574        0.33509343        0.36465099  H
       atom_frac         0.66781677        0.08832828        0.12864176  H
       atom_frac         0.14770646        0.20520960        0.48581228  H
       atom_frac         0.37634601        0.46972222        0.01241331  H
       atom_frac         0.84278059        0.29345286        0.00136824  H
       atom_frac         0.66298817        0.02989478        0.50431322  H
       atom_frac         0.01016615        0.14801768        0.32194038  H
       atom_frac         0.48258270        0.41227189        0.17232592  H
       atom_frac         0.98228755        0.33122306        0.17026450  H
       atom_frac         0.54644084        0.07704082        0.33993280  H
       atom_frac         0.13152063        0.00993561        0.67351439  C
       atom_frac         0.43779040        0.27787037        0.83675432  C
       atom_frac         0.93531622        0.49615236        0.84013509  C
       atom_frac         0.64057635        0.23994613        0.67995678  C
       atom_frac         0.13543327        0.08491162        0.61250834  C
       atom_frac         0.40664911        0.34847306        0.89061516  C
       atom_frac         0.89949349        0.41943855        0.88940874  C
       atom_frac         0.66154655        0.16556987        0.62614294  C
       atom_frac         0.06419559        0.05135118        0.51947828  C
       atom_frac         0.46245031        0.31314899        0.98035283  C
       atom_frac         0.96085121        0.44578283        0.98325664  C
       atom_frac         0.58171403        0.19064731        0.53017470  C
       atom_frac         0.09967567        0.12665404        0.96814138  C
       atom_frac         0.45302219        0.36721549        0.54710940  C
       atom_frac         0.92456878        0.38078367        0.53523322  C
       atom_frac         0.56463093        0.13356902        0.95419746  C
       atom_frac         0.05234442        0.09639310        0.88059209  C
       atom_frac         0.52814807        0.34138215        0.63899407  C
       atom_frac         0.98251654        0.41251347        0.62451217  C
       atom_frac         0.52384355        0.17292761        0.86988866  C
       atom_frac         0.19114276        0.03704200        0.74644150  H
       atom_frac         0.40501614        0.30842424        0.76977722  H
       atom_frac         0.88930764        0.47172475        0.76831128  H
       atom_frac         0.69449639        0.21796549        0.75274712  H
       atom_frac         0.19379901        0.17083249        0.63231390  H
       atom_frac         0.34277828        0.43052525        0.86768625  H
       atom_frac         0.82144674        0.33997643        0.85797881  H
       atom_frac         0.74340120        0.08450000        0.65314140  H
       atom_frac         0.17053624        0.20779461        0.99506829  H
       atom_frac         0.37263601        0.44707407        0.51941024  H
       atom_frac         0.83991549        0.30435943        0.50263967  H
       atom_frac         0.63210535        0.05009689        0.97817146  H
       atom_frac         0.08287821        0.15435185        0.84244271  H
       atom_frac         0.50503067        0.40241414        0.68032151  H
       atom_frac         0.95571751        0.35845791        0.66788982  H
       atom_frac         0.55951213        0.12135017        0.83018917  H
       atom_frac         0.09628803        0.49902189        0.16806910  C
       atom_frac         0.40124411        0.75138300        0.32760141  C
       atom_frac         0.91072751        0.98348485        0.33479852  C
       atom_frac         0.60683959        0.73863552        0.17765028  C
       atom_frac         0.12191830        0.57542172        0.11568753  C
       atom_frac         0.39270061        0.82677441        0.38579202  C
       atom_frac         0.89015149        0.91234848        0.39088211  C
       atom_frac         0.64504889        0.66825421        0.12686300  C
       atom_frac         0.06189554        0.55323316        0.02329357  C
       atom_frac         0.47174955        0.80051515        0.48057769  C
       atom_frac         0.97076190        0.94133838        0.48539073  C
       atom_frac         0.58122015        0.69670539        0.03322868  C
       atom_frac         0.09555636        0.62904882        0.46332806  C
       atom_frac         0.44475962        0.87185185        0.04796301  C
       atom_frac         0.91918238        0.87813131        0.03629866  C
       atom_frac         0.58573575        0.61932239        0.45905160  C
       atom_frac         0.02256316        0.59921212        0.37168958  C
       atom_frac         0.49423013        0.83977189        0.13659990  C
       atom_frac         0.97289031        0.91092593        0.12517893  C
       atom_frac         0.50172425        0.64821633        0.36738366  C
       atom_frac         0.16194682        0.51858249        0.24066235  H
       atom_frac         0.33312859        0.77691751        0.25347139  H
       atom_frac         0.85160680        0.95646465        0.26355688  H
       atom_frac         0.66116019        0.71871886        0.25075696  H
       atom_frac         0.19406223        0.65828367        0.14672046  H
       atom_frac         0.32394529        0.90903199        0.35930769  H
       atom_frac         0.81241137        0.83134175        0.36823026  H
       atom_frac         0.71681159        0.58544024        0.15365594  H
       atom_frac         0.17215422        0.70862710        0.49247912  H
       atom_frac         0.36389891        0.95082492        0.01689907  H
       atom_frac         0.83327330        0.80099074        0.00598975  H
       atom_frac         0.66589076        0.54061027        0.48633973  H
       atom_frac         0.04335050        0.65543603        0.32657596  H
       atom_frac         0.46793122        0.89614478        0.17870029  H
       atom_frac         0.92723553        0.85862795        0.16281628  H
       atom_frac         0.51160386        0.58289899        0.32587455  H
       atom_frac         0.09252708        0.51319949        0.66339943  C
       atom_frac         0.43730825        0.75686195        0.84658801  C
       atom_frac         0.95136082        0.99342593        0.84395073  C
       atom_frac         0.62911535        0.74247727        0.67093111  C
       atom_frac         0.13462989        0.58437879        0.61379612  C
       atom_frac         0.41265491        0.82988805        0.89960015  C
       atom_frac         0.90427062        0.92334175        0.89267027  C
       atom_frac         0.65250157        0.66882828        0.61576987  C
       atom_frac         0.06462370        0.55931229        0.52012708  C
       atom_frac         0.47873223        0.80021717        0.99340596  C
       atom_frac         0.95351105        0.95079125        0.98325664  C
       atom_frac         0.57492102        0.69204545        0.52054862  C
       atom_frac         0.10259534        0.62656734        0.96970551  C
       atom_frac         0.46067121        0.87533670        0.54107803  C
       atom_frac         0.95603423        0.87001684        0.54933356  C
       atom_frac         0.60612847        0.62116919        0.97650212  C
       atom_frac         0.03523552        0.59918855        0.87841774  C
       atom_frac         0.53510712        0.84741582        0.63323554  C
       atom_frac         1.03661990        0.90214646        0.64067814  C
       atom_frac         0.53820568        0.65195370        0.88588769  C
       atom_frac         0.14744371        0.53542929        0.73607474  H
       atom_frac         0.38747902        0.78254125        0.77627222  H
       atom_frac         0.91792022        0.96577441        0.77662293  H
       atom_frac         0.68149360        0.71682576        0.74104068  H
       atom_frac         0.22219732        0.66335690        0.64629569  H
       atom_frac         0.35277086        0.91690236        0.87661513  H
       atom_frac         0.82929235        0.84252525        0.86067221  H
       atom_frac         0.72167013        0.58808586        0.64534809  H
       atom_frac         0.17714967        0.70671970        1.00326771  H
       atom_frac         0.38285281        0.95572391        0.51163377  H
       atom_frac         0.87991809        0.79106650        0.52109642  H
       atom_frac         0.68483290        0.54374411        1.00906832  H
       atom_frac         0.05279108        0.65745539        0.83477636  H
       atom_frac         0.52174467        0.90621212        0.67631509  H
       atom_frac         1.02967474        0.84259259        0.68860720  H
       atom_frac         0.57044316        0.59699579        0.84469422  H

 
  Finished reading input file 'geometry.in'.
 

 
  Consistency checks for stacksize environment parameter are next.
 
  | Maximum stacksize for task 0: unlimited
  | Maximum stacksize for task 1: unlimited
  | Maximum stacksize for task 2: unlimited
  | Maximum stacksize for task 3: unlimited
  | Maximum stacksize for task 4: unlimited
  | Maximum stacksize for task 5: unlimited
  | Maximum stacksize for task 6: unlimited
  | Maximum stacksize for task 7: unlimited
  | Maximum stacksize for task 8: unlimited
  | Maximum stacksize for task 9: unlimited
  | Maximum stacksize for task 10: unlimited
  | Maximum stacksize for task 11: unlimited
  | Maximum stacksize for task 12: unlimited
  | Maximum stacksize for task 13: unlimited
  | Maximum stacksize for task 14: unlimited
  | Maximum stacksize for task 15: unlimited
  | Maximum stacksize for task 16: unlimited
  | Maximum stacksize for task 17: unlimited
  | Current stacksize for task 0: unlimited
  | Current stacksize for task 1: unlimited
  | Current stacksize for task 2: unlimited
  | Current stacksize for task 3: unlimited
  | Current stacksize for task 4: unlimited
  | Current stacksize for task 5: unlimited
  | Current stacksize for task 6: unlimited
  | Current stacksize for task 7: unlimited
  | Current stacksize for task 8: unlimited
  | Current stacksize for task 9: unlimited
  | Current stacksize for task 10: unlimited
  | Current stacksize for task 11: unlimited
  | Current stacksize for task 12: unlimited
  | Current stacksize for task 13: unlimited
  | Current stacksize for task 14: unlimited
  | Current stacksize for task 15: unlimited
  | Current stacksize for task 16: unlimited
  | Current stacksize for task 17: unlimited
 
  Consistency checks for the contents of control.in are next.
 
  MPI_IN_PLACE appears to work with this MPI implementation.
  | Keeping use_mpi_in_place .true. (see manual).
  Explicit treatment of the Coulomb operator is needed, but the RI method is not specified.
  Coulomb operator: Defaulting to 'LVL fast' resolution of identity - RI_type = LVL_fast
  Species H: Using default value for prodbas_acc =   1.000000E-06.
  Species H: Using default value max_l_prodbas =     6.
  Species C: Using default value for prodbas_acc =   1.000000E-06.
  Species C: Using default value max_l_prodbas =     6.
  Target number of points in a grid batch is not set.  Since GPU acceleration is enabled, defaulting to  200
  Method for grid partitioning is not set. Defaulting to parallel hash+maxmin partitioning.
  Batch size limit is not set. Defaulting to    200
  By default, will store active basis functions for each batch.
  If in need of memory, prune_basis_once .false. can be used to disable this option.
  communication_type for Hartree potential was not specified.
  Defaulting to calc_hartree .
  Defaulting to Pulay charge density mixer.
  Pulay mixer: Number of relevant iterations not set.
  Defaulting to    8 iterations.
  Pulay mixer: Number of initial linear mixing iterations not set.
  Defaulting to    0 iterations.
  Work space size for distributed Hartree potential not set.
  Defaulting to   0.200000E+03 MB.
  Algorithm-dependent basis array size parameters:
  | n_max_pulay                         :        8
  Maximum number of self-consistency iterations not provided.
  Presetting  1000 iterations.
  Presetting      1001 iterations before the initial mixing cycle
  is restarted anyway using the sc_init_iter criterion / keyword.
  Presetting a factor      1.000 between actual scf density residual
  and density convergence criterion sc_accuracy_rho below which sc_init_iter
  takes no effect.
 * No s.c.f. convergence criteria (sc_accuracy_*) were provided in control.in.
 * The run will proceed with a reasonable default guess, but please check whether.
 * the s.c.f. cycles seem to take too much or too little time.
  Geometry relaxation not requested: no relaxation will be performed.
 * Notice: The s.c.f. convergence criterion sc_accuracy_rho was not provided.
 * We used to stop in this case, and ask the user to provide reasonable
 * scf convergence criteria. However, this led some users to employ criteria
 * that led to extremely long run times, e.g., for simple relaxation.
 * We now preset a default value for sc_accuracy_rho if it is not set.
 * You may still wish to check if this setting is too tight or too loose for your needs.
 * Based on n_atoms and forces and force-correction status, FHI-aims chose sc_accuracy_rho =  0.391918E-04 .
  No accuracy limit for integral partition fn. given. Defaulting to  0.1000E-14.
  No threshold value for u(r) in integrations given. Defaulting to  0.1000E-05.
  No occupation type (smearing scheme) given. Defaulting to Gaussian broadening, width =  0.1000E-01 eV.
  The width will be adjusted in iteration number     2 of the first full s.c.f. cycle only.
  S.C.F. convergence parameters will be adjusted in iteration number     2 of the first full s.c.f. cycle only.
  No accuracy for occupation numbers given. Defaulting to  0.1000E-12.
  No threshold value for occupation numbers given. Defaulting to  0.0000E+00.
  No accuracy for fermi level given. Defaulting to  0.1000E-19.
  Maximum # of iterations to find E_F not set. Defaulting to  200.
  Preferred method for the eigenvalue solver ('KS_method') not specified in 'control.in'.
  Calling BLACS routine to test compilation state
  Since ScaLAPACK support is enabled, defaulting to ELPA (via ELSI).
  Will not use alltoall communication since running on < 1024 CPUs.
  Threshold for basis singularities not set.
  Default threshold for basis singularities:  0.1000E-04
  partition_type (choice of integration weights) for integrals was not specified.
  | Using a version of the partition function of Stratmann and coworkers ('stratmann_sparse').
  | At each grid point, the set of atoms used to build the partition table is smoothly restricted to
  | only those atoms whose free-atom density would be non-zero at that grid point.
  Partitioning for Hartree potential was not defined. Using partition_type for integrals.
  | Adjusted default value of keyword multip_moments_threshold to:       0.10000000E-11
  | This value may affect high angular momentum components of the Hartree potential in periodic systems.
  Angular momentum expansion for Kerker preconditioner not set explicitly.
  | Using default value of   0
  No explicit requirement for turning off preconditioner.
  | By default, it will be turned off when the charge convergence reaches
  | sc_accuracy_rho  =   0.391918E-04
  No special mixing parameter while Kerker preconditioner is on.
  Using default: charge_mix_param =     0.7500.
  Threshold for auxiliary basis singularities not set.
  Default threshold for auxiliary basis singularities:  0.1000E-04
  No q(lm)/r^(l+1) cutoff set for long-range Hartree potential.
  | Using default value of  0.100000E-09 .
  | Verify using the multipole_threshold keyword.
  Defaulting to new monopole extrapolation.
  Density update method: automatic selection selected.
  Using density matrix based charge density update.
  Using density matrix based charge density update.
  Using packed matrix style: index .
  Defaulting to use time-reversal symmetry for k-point grid.
  Charge integration errors on the 3D integration grid will be compensated
  by explicit normalization and distribution of residual charges.
  Use the "compensate_multipole_errors" flag to change this behaviour.
  Default to 1D ("use_logsbt") integrations for auxiliary 2-center integrals.
  Default onset of logarithmic r-grid for SBT is -38.000000000000
  Default onset of logarithmic k-grid for SBT is -25.000000000000
  Default range of logarithmic r- and k-grid for SBT is  45.000000000000
  Default number of logarithmic r- and k-grid for SBT is   4096
  Default of use_2d_corr is to use the efficient 2D distribution where possible
 
  Consistency checks for the contents of geometry.in are next.
 

  Range separation radius for Ewald summation (hartree_convergence_parameter):      2.91768261 bohr.
  Number of empty states per atom not set in control.in .
  | Since you are using a method that relies on the unoccupied spectrum
  | (MP2,GW,RPA et al.), will use the full Hamiltonian size (see below)
  | as the max. possible number of states (occupied plus empty).

  Structure-dependent array size parameters: 
  | Maximum number of distinct radial functions  :        9
  | Maximum number of basis functions            :     1440
  | Number of Kohn-Sham states (occupied + empty):     1440
------------------------------------------------------------
CUDA runtime version: 11060
CUDA driver version: 11060
  Initializing GPUs...

  Number of GPUs available to MPI task         0 :   1
  Number of GPUs available to MPI task         1 :   1
  Number of GPUs available to MPI task         2 :   1
  Number of GPUs available to MPI task         3 :   1
  Number of GPUs available to MPI task         4 :   1
  Number of GPUs available to MPI task         5 :   1
  Number of GPUs available to MPI task         6 :   1
  Number of GPUs available to MPI task         7 :   1
  Number of GPUs available to MPI task         8 :   1
  Number of GPUs available to MPI task         9 :   1
  Number of GPUs available to MPI task        10 :   1
  Number of GPUs available to MPI task        11 :   1
  Number of GPUs available to MPI task        12 :   1
  Number of GPUs available to MPI task        13 :   1
  Number of GPUs available to MPI task        14 :   1
  Number of GPUs available to MPI task        15 :   1
  Number of GPUs available to MPI task        16 :   1
  Number of GPUs available to MPI task        17 :   1

  | MPI task         0, GPU activated = T, Device Name = NVIDIA A100-SXM4-80GB
  | MPI task         1, GPU activated = T, Device Name = NVIDIA A100-SXM4-80GB
  | MPI task         2, GPU activated = T, Device Name = NVIDIA A100-SXM4-80GB
  | MPI task         3, GPU activated = T, Device Name = NVIDIA A100-SXM4-80GB
  | MPI task         4, GPU activated = T, Device Name = NVIDIA A100-SXM4-80GB
  | MPI task         5, GPU activated = T, Device Name = NVIDIA A100-SXM4-80GB
  | MPI task         6, GPU activated = T, Device Name = NVIDIA A100-SXM4-80GB
  | MPI task         7, GPU activated = T, Device Name = NVIDIA A100-SXM4-80GB
  | MPI task         8, GPU activated = T, Device Name = NVIDIA A100-SXM4-80GB
  | MPI task         9, GPU activated = T, Device Name = NVIDIA A100-SXM4-80GB
  | MPI task        10, GPU activated = T, Device Name = NVIDIA A100-SXM4-80GB
  | MPI task        11, GPU activated = T, Device Name = NVIDIA A100-SXM4-80GB
  | MPI task        12, GPU activated = T, Device Name = NVIDIA A100-SXM4-80GB
  | MPI task        13, GPU activated = T, Device Name = NVIDIA A100-SXM4-80GB
  | MPI task        14, GPU activated = T, Device Name = NVIDIA A100-SXM4-80GB
  | MPI task        15, GPU activated = T, Device Name = NVIDIA A100-SXM4-80GB
  | MPI task        16, GPU activated = T, Device Name = NVIDIA A100-SXM4-80GB
  | MPI task        17, GPU activated = T, Device Name = NVIDIA A100-SXM4-80GB

------------------------------------------------------------
          Preparing all fixed parts of the calculation.
------------------------------------------------------------
  Determining machine precision:
    2.225073858507201E-308
  Setting up grids for atomic and cluster calculations.

  Creating wave function, potential, and density for free atoms.
  Runtime choices for atomic solver:
  | atomic solver xc        : PW-LDA
  | compute density gradient: 0
  | compute kinetic density : F

  Species: H

  List of occupied orbitals and eigenvalues:
    n    l              occ      energy [Ha]    energy [eV]
    1    0           1.0000        -0.232375        -6.3233


  Species: C

  List of occupied orbitals and eigenvalues:
    n    l              occ      energy [Ha]    energy [eV]
    1    0           2.0000        -9.944615      -270.6068
    2    0           2.0000        -0.498807       -13.5732
    2    1           2.0000        -0.196968        -5.3598


  Adding cutoff potential to free-atom effective potential.
  Creating fixed part of basis set: Ionic, confined, hydrogenic.
 
  H                    hydrogenic:
 
  List of hydrogenic basis orbitals: 
    n    l      effective z      eigenvalue [eV]  inner max. [A]     outer max. [A]     outer radius [A]   
    2    0         2.100000       -14.9728           0.193243           1.317208           4.583499
    2    1         3.500000       -41.6669           0.602369           0.602369           3.723403
 
 
  C                    hydrogenic:
 
  List of hydrogenic basis orbitals: 
    n    l      effective z      eigenvalue [eV]  inner max. [A]     outer max. [A]     outer radius [A]   
    2    1         1.700000        -9.7616           1.230570           1.230570           4.607917
    3    2         6.000000       -54.4224           0.792453           0.792453           3.883070
    2    0         4.900000       -81.6679           0.082559           0.562749           3.078220
 
  Creating atomic-like basis functions for current effective potential.

  Species H                   :

  List of atomic basis orbitals and eigenvalues:
    n    l      energy [Ha]    energy [eV]    outer radius [A]
    1    0        -0.232375        -6.3233       4.527807


  Species C                   :

  List of atomic basis orbitals and eigenvalues:
    n    l      energy [Ha]    energy [eV]    outer radius [A]
    1    0        -9.944615      -270.6068       1.934409
    2    0        -0.498807       -13.5732       4.496620
    2    1        -0.196968        -5.3598       4.551928

  Assembling full basis from fixed parts.
  | Species H :   atomic orbital   1 s accepted.
  | Species H :    hydro orbital   2 s accepted.
  | Species H :    hydro orbital   2 p accepted.
  | Species C :   atomic orbital   1 s accepted.
  | Species C :    hydro orbital   2 s accepted.
  | Species C :   atomic orbital   2 s accepted.
  | Species C :   atomic orbital   2 p accepted.
  | Species C :    hydro orbital   2 p accepted.
  | Species C :    hydro orbital   3 d accepted.
 
  Basis size parameters after reduction:
  | Total number of radial functions:        9
  | Total number of basis functions :     1440
 
  Per-task memory consumption for arrays in subroutine allocate_ext:
  |           2.242384MB.
  Testing on-site integration grid accuracy.
  |  Species  Function  <phi|h_atom|phi> (log., in eV)  <phi|h_atom|phi> (rad., in eV)
           1        1                 -6.3245358373                 -6.3232436907
           1        2                 14.1326137532                 14.1384481100
           1        3                 25.3627025200                 25.3628451197
           2        4               -270.6067544938               -270.6067222788
           2        5                -10.5634280949                -10.5635685736
           2        6                 16.2089822398                 16.2052121796
           2        7                 -5.3613872565                 -5.3627872378
           2        8                  8.5292058327                  8.5051734780
           2        9                 27.4884461005                 27.4884542459

  Preparing densities etc. for the partition functions (integrals / Hartree potential).

  Preparations completed.
  max(cpu_time)          :      0.074 s.
  Wall clock time (cpu1) :      0.069 s.
------------------------------------------------------------

  Initializing index lists of integration centers etc. from given atomic structure:
  Mapping all atomic coordinates to central unit cell.

  Initializing the k-points
  Using symmetry for reducing the k-points
  | k-points reduced from:        2 to        2
  | Number of k-points                             :         2
  | Consuming          0 KiB for k_phase_exx.
  The eigenvectors in the calculations are REAL.
  | Number of basis functions in the Hamiltonian integrals :      7981
  | Number of basis functions in a single unit cell        :      1440
  | Number of centers in hartree potential         :      3330
  | Number of centers in hartree multipole         :      2571
  | Number of centers in electron density summation:      2007
  | Number of centers in basis integrals           :      2126
  | Number of centers in integrals                 :       967
  | Number of centers in hamiltonian               :      2015
  | Consuming          1 KiB for k_phase.
  | Number of super-cells (origin) [n_cells]                     :         175
  | Number of super-cells (after PM_index) [n_cells]             :          40
  | Number of super-cells in hamiltonian [n_cells_in_hamiltonian]:          40
  | Size of matrix packed + index [n_hamiltonian_matrix_size] :     1933277
  | Size of matrix packed + index (no_symmetry):     3863737

------------------------------------------------------------
          Begin self-consistency loop: Initialization.

          Date     :  20230119, Time     :  175851.146
------------------------------------------------------------
  | Estimated reciprocal-space cutoff momentum G_max:         3.24344278 bohr^-1 .
  | Reciprocal lattice points for long-range Hartree potential:    5310
  Using simple linear distribution as default method for k-point parallelism.
  * Using 18 tasks for Scalapack Eigenvalue solver.
  Detailed listing of tasks and assigned k-points:
   Task     0 k-point     1 on adag015
   Task     1 k-point     1 on adag015
   Task     2 k-point     1 on adag015
   Task     3 k-point     1 on adag015
   Task     4 k-point     1 on adag015
   Task     5 k-point     1 on adag015
   Task     6 k-point     1 on adag015
   Task     7 k-point     1 on adag015
   Task     8 k-point     1 on adag015
   Task     9 k-point     2 on adag015
   Task    10 k-point     2 on adag015
   Task    11 k-point     2 on adag015
   Task    12 k-point     2 on adag015
   Task    13 k-point     2 on adag015
   Task    14 k-point     2 on adag015
   Task    15 k-point     2 on adag015
   Task    16 k-point     2 on adag015
   Task    17 k-point     2 on adag015
  K-point:     1 Tasks:     9 split into      3 X      3 BLACS grid
  Calculating block size based on n_basis =         1440  max_nprow =            3  max_npcol =            3
  ScaLAPACK block size set to:           16
  Allocating        1.758 MB for ovlp
  Allocating        1.758 MB for ham
  Allocating        1.758 MB for eigenvec
  Required Scalapack workspace - INTEGER:            1  REAL:             1
  Partitioning the integration grid into batches with parallel hashing+maxmin method.
  | Number of batches:     5391
  | Maximal batch size:     200
  | Minimal batch size:      99
  | Average batch size:     141.688
  | Standard deviation of batch sizes:      32.676

  Integration load balanced across    18 MPI tasks.
  Work distribution over tasks is as follows:
  Task     0 has      42517 integration points.
  Task     1 has      42518 integration points.
  Task     2 has      42342 integration points.
  Task     3 has      42442 integration points.
  Task     4 has      42425 integration points.
  Task     5 has      42441 integration points.
  Task     6 has      42335 integration points.
  Task     7 has      42437 integration points.
  Task     8 has      42484 integration points.
  Task     9 has      42445 integration points.
  Task    10 has      42351 integration points.
  Task    11 has      42458 integration points.
  Task    12 has      42435 integration points.
  Task    13 has      42445 integration points.
  Task    14 has      42428 integration points.
  Task    15 has      42411 integration points.
  Task    16 has      42451 integration points.
  Task    17 has      42475 integration points.
  Initializing partition tables, free-atom densities, potentials, etc. across the integration grid (initialize_grid_storage).
  | initialize_grid_storage: Actual outermost partition radius vs. multipole_radius_free
  | (-- VB: in principle, multipole_radius_free should be larger, hence this output)
  | Species        1: Confinement radius =              4.999999999999999 AA, multipole_radius_free =              5.054417573612229 AA.
  | Species        1: outer_partition_radius set to              5.054417573612229 AA .
  | Species        2: Confinement radius =              4.999999999999999 AA, multipole_radius_free =              5.019602836301480 AA.
  | Species        2: outer_partition_radius set to              5.019602836301480 AA .
  | The sparse table of interatomic distances needs       7648.79 kbyte instead of     36159.01 kbyte of memory.
  | Net number of integration points:   763840
  | of which are non-zero points    :   605282
  | Numerical average free-atom electrostatic potential    :     -8.61465569 eV
  Renormalizing the initial density to the exact electron count on the 3D integration grid.
  | Initial density: Formal number of electrons (from input files) :     544.0000000000
  | Integrated number of electrons on 3D grid     :     543.9949752919
  | Charge integration error                      :      -0.0050247081
  | Normalization factor for density and gradient :       1.0000092367
  Renormalizing the free-atom superposition density to the exact electron count on the 3D integration grid.
  | Formal number of electrons (from input files) :     544.0000000000
  | Integrated number of electrons on 3D grid     :     543.9949752919
  | Charge integration error                      :      -0.0050247081
  | Normalization factor for density and gradient :       1.0000092367
  Obtaining max. number of non-zero basis functions in each batch (get_n_compute_maxes).
  | Maximal number of non-zero basis functions:      543 in task     0
  | Maximal number of non-zero basis functions:      552 in task     1
  | Maximal number of non-zero basis functions:      545 in task     2
  | Maximal number of non-zero basis functions:      558 in task     3
  | Maximal number of non-zero basis functions:      536 in task     4
  | Maximal number of non-zero basis functions:      545 in task     5
  | Maximal number of non-zero basis functions:      544 in task     6
  | Maximal number of non-zero basis functions:      535 in task     7
  | Maximal number of non-zero basis functions:      526 in task     8
  | Maximal number of non-zero basis functions:      536 in task     9
  | Maximal number of non-zero basis functions:      545 in task    10
  | Maximal number of non-zero basis functions:      530 in task    11
  | Maximal number of non-zero basis functions:      551 in task    12
  | Maximal number of non-zero basis functions:      533 in task    13
  | Maximal number of non-zero basis functions:      547 in task    14
  | Maximal number of non-zero basis functions:      556 in task    15
  | Maximal number of non-zero basis functions:      546 in task    16
  | Maximal number of non-zero basis functions:      548 in task    17
  Integrating Hamiltonian matrix: batch-based integration.
  GPU acceleration will be used when integrating the Hamiltonian matrix.
  Reporting GPU memory usage by myid 0.  Note that it is likely not the only MPI task binding to its GPU!
  Allocating        2.359 MB on GPU for hamiltonian_shell
  Allocating        0.869 MB on GPU for wave
  Allocating        0.002 MB on GPU for partition
  Allocating        0.869 MB on GPU for h_times_psi
  Time summed over all CPUs for integration: real work       21.526 s, elapsed       22.181 s
  Deallocating memory used on GPU for Hamiltonian integration.
  Integrating overlap matrix.
  Time summed over all CPUs for integration: real work       18.302 s, elapsed       18.596 s
  Deallocating overlap matrix.

  Updating Kohn-Sham eigenvalues and eigenvectors using ELSI and the ELPA eigensolver.
  Singularity check in k-point 1 (analysis for other k-points may follow below):
  Overlap matrix is not singular
  | Lowest and highest eigenvalues :  0.7789E-03,  0.8236E+01
  Finished singularity check of overlap matrix
  | Time :     0.097 s
  Starting ELPA eigensolver
  Finished Cholesky decomposition
  | Time :     0.018 s
  Finished transformation to standard eigenproblem
  | Time :     0.022 s
  Finished solving standard eigenproblem
  | Time :     0.216 s
  Finished back-transformation of eigenvectors
  | Time :     0.018 s

  Obtaining occupation numbers and electronic chemical potential using ELSI.
  | Note that, for insulating systems, the printed 'chemical potential' value is not uniquely defined.
  | It can be anywhere in the energy gap, as long as it correctly separates occupied and unoccupied states.
  | In systems with a gap, the physically relevant chemical potential is the VBM or HOMO.

  | Chemical potential (Fermi level):    -9.17386735 eV
  Writing Kohn-Sham eigenvalues.
  K-point:       1 at    0.000000    0.000000    0.000000 (in units of recip. lattice)

  State    Occupation    Eigenvalue [Ha]    Eigenvalue [eV]
      1       2.00000         -10.071567         -274.06129
      2       2.00000         -10.069342         -274.00073
      3       2.00000         -10.069160         -273.99578
      4       2.00000         -10.068307         -273.97258
      5       2.00000         -10.068276         -273.97173
      6       2.00000         -10.067744         -273.95725
      7       2.00000         -10.067548         -273.95192
      8       2.00000         -10.066974         -273.93630
      9       2.00000         -10.066590         -273.92585
     10       2.00000         -10.066568         -273.92525
     11       2.00000         -10.066464         -273.92242
     12       2.00000         -10.066106         -273.91268
     13       2.00000         -10.066016         -273.91023
     14       2.00000         -10.065976         -273.90913
     15       2.00000         -10.065661         -273.90058
     16       2.00000         -10.065352         -273.89217
     17       2.00000         -10.064951         -273.88126
     18       2.00000         -10.064914         -273.88023
     19       2.00000         -10.064861         -273.87881
     20       2.00000         -10.064718         -273.87491
     21       2.00000         -10.064490         -273.86870
     22       2.00000         -10.064446         -273.86751
     23       2.00000         -10.064282         -273.86305
     24       2.00000         -10.064263         -273.86253
     25       2.00000         -10.064230         -273.86164
     26       2.00000         -10.064133         -273.85900
     27       2.00000         -10.064104         -273.85822
     28       2.00000         -10.063963         -273.85436
     29       2.00000         -10.063911         -273.85294
     30       2.00000         -10.063786         -273.84954
     31       2.00000         -10.063781         -273.84941
     32       2.00000         -10.063430         -273.83987
     33       2.00000         -10.063363         -273.83803
     34       2.00000         -10.063017         -273.82862
     35       2.00000         -10.062927         -273.82617
     36       2.00000         -10.062878         -273.82483
     37       2.00000         -10.062850         -273.82408
     38       2.00000         -10.062734         -273.82092
     39       2.00000         -10.062690         -273.81973
     40       2.00000         -10.062684         -273.81956
     41       2.00000         -10.062642         -273.81842
     42       2.00000         -10.062478         -273.81395
     43       2.00000         -10.062443         -273.81300
     44       2.00000         -10.062187         -273.80603
     45       2.00000         -10.062153         -273.80511
     46       2.00000         -10.062069         -273.80283
     47       2.00000         -10.062027         -273.80167
     48       2.00000         -10.062025         -273.80163
     49       2.00000         -10.062020         -273.80149
     50       2.00000         -10.061890         -273.79795
     51       2.00000         -10.061820         -273.79605
     52       2.00000         -10.061818         -273.79600
     53       2.00000         -10.061555         -273.78884
     54       2.00000         -10.061335         -273.78286
     55       2.00000         -10.060795         -273.76816
     56       2.00000         -10.060443         -273.75858
     57       2.00000         -10.060273         -273.75396
     58       2.00000         -10.060145         -273.75047
     59       2.00000         -10.060073         -273.74851
     60       2.00000         -10.060068         -273.74837
     61       2.00000         -10.059946         -273.74505
     62       2.00000         -10.059939         -273.74486
     63       2.00000         -10.059908         -273.74403
     64       2.00000         -10.058866         -273.71567
     65       2.00000         -10.058769         -273.71304
     66       2.00000         -10.058769         -273.71302
     67       2.00000         -10.058188         -273.69721
     68       2.00000         -10.057966         -273.69118
     69       2.00000         -10.057698         -273.68388
     70       2.00000         -10.057349         -273.67439
     71       2.00000         -10.056434         -273.64949
     72       2.00000         -10.056060         -273.63930
     73       2.00000         -10.055714         -273.62989
[...]
  |    H      0     4.527807 A      4.583499 A        4.713786E-16 a.u.
  |    H      2     3.678162 A  1.011968E+04 A            0.556529 a.u.
  |    H      1     3.958095 A  1.721251E+06 A            0.841931 a.u.
  |    H      0     4.527807 A  3.866455E+12 A            0.581436 a.u.
  |    C      0     2.562483 A      2.562483 A        6.563029E-17 a.u.
  |    C      0     2.967371 A      2.967371 A        1.352164E-16 a.u.
  |    C      0     3.003870 A      3.003870 A        2.312640E-17 a.u.
  |    C      1     3.272245 A      3.272245 A       -3.835259E-17 a.u.
  |    C      0     3.312494 A      3.312494 A       -2.710381E-16 a.u.
  |    C      3     4.077671 A      4.077671 A       -1.683752E-15 a.u.
  |    C      3     4.077671 A      4.077671 A        1.412852E-15 a.u.
  |    C      1     4.496620 A      4.496620 A       -3.011059E-16 a.u.
  |    C      0     4.496620 A      4.551928 A        2.873903E-17 a.u.
  |    C      2     4.551928 A      4.551928 A       -4.610785E-16 a.u.
  |    C      2     4.551928 A      4.551928 A        7.440584E-16 a.u.
  |    C      2     4.551928 A      4.551928 A       -7.110458E-16 a.u.
  |    C      2     4.551928 A      4.551928 A       -1.935424E-16 a.u.
  |    C      0     4.551928 A      4.607917 A        2.067142E-16 a.u.
  |    C      0     4.551928 A      4.607917 A       -1.109786E-16 a.u.
  |    C      1     4.551928 A      4.607917 A       -9.951742E-17 a.u.
  |    C      1     4.551928 A      4.607917 A        1.937809E-16 a.u.
  |    C      1     4.607917 A      4.607917 A       -2.813308E-16 a.u.
  |    C      1     4.607917 A      4.607917 A       -7.330363E-17 a.u.
  |    C      2     4.607917 A      4.607917 A        1.318462E-15 a.u.
  |    C      2     4.607917 A      4.607917 A       -1.318397E-15 a.u.
  |    C      0     4.607917 A      4.664595 A        3.157826E-16 a.u.
  |    C      1     4.607917 A      4.664595 A        7.356967E-16 a.u.
  |    C      4     3.835889 A  2.962973E+02 A            4.379483 a.u.
  |    C      3     4.127827 A  1.725964E+03 A            9.005588 a.u.
  |    C      2     4.607917 A  2.608475E+04 A            9.531178 a.u.
  |    C      1     4.607917 A  2.736013E+06 A            2.127278 a.u.
  |    C      0     4.607917 A  4.399765E+12 A            0.661635 a.u.

  | Shrink_full_auxil_basis : there are       36  radial auxiliary wave functions
                            accepted and       7 rejected.
  | Shrink_full_auxil_basis : there are totally                8992 partial auxiliary wave functions.
 
  | Maximal number of product basis functions per thread :   512   512
 
  | Minimal total memory requirement for three-center overlap :      72.476 Gbs
  | Number of local auxiliary basis functions on task:      0   512
  | Number of local auxiliary basis functions on task:      1   512
  | Number of local auxiliary basis functions on task:      2   512
  | Number of local auxiliary basis functions on task:      3   512
  | Number of local auxiliary basis functions on task:      4   496
  | Number of local auxiliary basis functions on task:      5   496
  | Number of local auxiliary basis functions on task:      6   496
  | Number of local auxiliary basis functions on task:      7   496
  | Number of local auxiliary basis functions on task:      8   496
  | Number of local auxiliary basis functions on task:      9   496
  | Number of local auxiliary basis functions on task:     10   496
  | Number of local auxiliary basis functions on task:     11   496
  | Number of local auxiliary basis functions on task:     12   496
  | Number of local auxiliary basis functions on task:     13   496
  | Number of local auxiliary basis functions on task:     14   496
  | Number of local auxiliary basis functions on task:     15   496
  | Number of local auxiliary basis functions on task:     16   496
  | Number of local auxiliary basis functions on task:     17   496
  | 2D aux task distribution:      3 X      6
  | 2D block size (nb_aux_2d):     64
 
  Basis pair condensation :   1037520  -->     553763
 
 --------------------------------------------
  Constructing auxiliary basis (full product) ...
 
  Product basis:
  | charge radius: extent of product basis function
  | field radius: extent of its Coulomb potential
  | Species   l  charge radius    field radius  multipol momen
  |    H      1     3.910002 A      3.910002 A       -2.487223E-16 a.u.
  |    H      1     3.958095 A      3.958095 A       -2.441841E-16 a.u.
  |    H      0     4.527807 A      4.527807 A        1.268855E-16 a.u.
  |    H      0     4.527807 A      4.583499 A       -4.900954E-17 a.u.
  |    H      0     4.527807 A      4.583499 A        4.713786E-16 a.u.
  |    H      2     3.678162 A  1.011968E+04 A            0.556529 a.u.
  |    H      1     3.958095 A  1.721251E+06 A            0.841931 a.u.
  |    H      0     4.527807 A  3.866455E+12 A            0.581436 a.u.
  |    C      0     2.562483 A      2.562483 A        6.563029E-17 a.u.
  |    C      0     2.967371 A      2.967371 A        1.352164E-16 a.u.
  |    C      0     3.003870 A      3.003870 A        2.312640E-17 a.u.
  |    C      1     3.272245 A      3.272245 A       -3.835259E-17 a.u.
  |    C      0     3.312494 A      3.312494 A       -2.710381E-16 a.u.
  |    C      3     4.077671 A      4.077671 A       -1.683752E-15 a.u.
  |    C      3     4.077671 A      4.077671 A        1.412852E-15 a.u.
  |    C      1     4.496620 A      4.496620 A       -3.011059E-16 a.u.
  |    C      0     4.496620 A      4.551928 A        2.873903E-17 a.u.
  |    C      2     4.551928 A      4.551928 A       -4.610785E-16 a.u.
  |    C      2     4.551928 A      4.551928 A        7.440584E-16 a.u.
  |    C      2     4.551928 A      4.551928 A       -7.110458E-16 a.u.
  |    C      2     4.551928 A      4.551928 A       -1.935424E-16 a.u.
  |    C      0     4.551928 A      4.607917 A        2.067142E-16 a.u.
  |    C      0     4.551928 A      4.607917 A       -1.109786E-16 a.u.
  |    C      1     4.551928 A      4.607917 A       -9.951742E-17 a.u.
  |    C      1     4.551928 A      4.607917 A        1.937809E-16 a.u.
  |    C      1     4.607917 A      4.607917 A       -2.813308E-16 a.u.
  |    C      1     4.607917 A      4.607917 A       -7.330363E-17 a.u.
  |    C      2     4.607917 A      4.607917 A        1.318462E-15 a.u.
  |    C      2     4.607917 A      4.607917 A       -1.318397E-15 a.u.
  |    C      0     4.607917 A      4.664595 A        3.157826E-16 a.u.
  |    C      1     4.607917 A      4.664595 A        7.356967E-16 a.u.
  |    C      4     3.835889 A  2.962973E+02 A            4.379483 a.u.
  |    C      3     4.127827 A  1.725964E+03 A            9.005588 a.u.
  |    C      2     4.607917 A  2.608475E+04 A            9.531178 a.u.
  |    C      1     4.607917 A  2.736013E+06 A            2.127278 a.u.
  |    C      0     4.607917 A  4.399765E+12 A            0.661635 a.u.

  | Shrink_full_auxil_basis : there are       36  radial auxiliary wave functions
                            accepted and       7 rejected.
  | Shrink_full_auxil_basis : there are totally                8992 partial auxiliary wave functions.
 
  | Maximal number of product basis functions per thread :   512   512
 
  | Minimal total memory requirement for three-center overlap :      72.476 Gbs
  | Number of local auxiliary basis functions on task:      0   512
  | Number of local auxiliary basis functions on task:      1   512
  | Number of local auxiliary basis functions on task:      2   512
  | Number of local auxiliary basis functions on task:      3   512
  | Number of local auxiliary basis functions on task:      4   496
  | Number of local auxiliary basis functions on task:      5   496
  | Number of local auxiliary basis functions on task:      6   496
  | Number of local auxiliary basis functions on task:      7   496
  | Number of local auxiliary basis functions on task:      8   496
  | Number of local auxiliary basis functions on task:      9   496
  | Number of local auxiliary basis functions on task:     10   496
  | Number of local auxiliary basis functions on task:     11   496
  | Number of local auxiliary basis functions on task:     12   496
  | Number of local auxiliary basis functions on task:     13   496
  | Number of local auxiliary basis functions on task:     14   496
  | Number of local auxiliary basis functions on task:     15   496
  | Number of local auxiliary basis functions on task:     16   496
  | Number of local auxiliary basis functions on task:     17   496
  | 2D aux task distribution:      3 X      6
  | 2D block size (nb_aux_2d):     64
 
  Basis pair condensation :   1037520  -->     553763
  Allocating        0.069 MB for t_coeff
  Allocating        0.034 MB for basbas_idx
  Allocating        0.069 MB for wave
  Allocating        0.069 MB for total_wave
  Allocating        0.206 MB for wave_gradient
  Allocating        0.206 MB for total_wave_grad
 HERE1
 HERE2
  Deallocating        0.069 MB for t_coeff
  Deallocating        0.034 MB for basbas_idx
  Deallocating        0.069 MB for wave
  Deallocating        0.206 MB for wave_gradient
  Deallocating        0.206 MB for total_wave_grad
dP_dE (Bohr^3) at every cycle:--->
 (991.264835639265,0.000000000000000E+000) (18.7304693453410,0.000000000000000E+000) (-454.424005393964,0.000000000000000E+000)
 (18.8013005888528,0.000000000000000E+000) (1368.59914377332,0.000000000000000E+000) (7.61447045799505,0.000000000000000E+000)
 (-454.599454317250,0.000000000000000E+000) (7.63395172536665,0.000000000000000E+000) (1706.13323996737,0.000000000000000E+000)
DFPT polarizability (Bohr^3)        xx        yy        zz        xy        xz        yz
  | Polarizability:--->                       991.264835639                 1368.599143773                 1706.133239967                   18.730469345                 -454.424005394                    7.614470458

DFPT for dielectric_constant:--->  # PARSE DFPT_dielectric_tensor
               2.345125237853717             0.025416847372595            -0.616643682258532
               0.025512963859179             2.857159845287220             0.010332673991543
              -0.616881762705029             0.010359109655822             3.315186414073924

                                               :  max(cpu_time)    wall_clock(cpu1)
  | Time for  dielectric calculation            :        0.001 s           0.000 s
===========================================================================

------------------------------------------------------------------------------
  Final output of selected total energy values:

  The following output summarizes some interesting total energy values
  at the end of a run (AFTER all relaxation, molecular dynamics, etc.).

  | Total energy of the DFT / Hartree-Fock s.c.f. calculation      :         -83267.548809954 eV
  | Final zero-broadening corrected energy (caution - metals only) :         -83267.548809954 eV
  | For reference only, the value of 1 Hartree used in FHI-aims is :             27.211384500 eV
  | For reference only, the overall average (free atom contribution
  | + realspace contribution) of the electrostatic potential after
  | s.c.f. convergence is                                          :             -7.697685422 eV

  Before relying on these values, please be sure to understand exactly which
  total energy value is referred to by a given number. Different objects may
  all carry the same name 'total energy'. Definitions:

  Total energy of the DFT / Hartree-Fock s.c.f. calculation:
  | Note that this energy does not include ANY quantities calculated after the
  | s.c.f. cycle, in particular not ANY RPA, MP2, etc. many-body perturbation terms.

  Final zero-broadening corrected energy:
  | For metallic systems only, a broadening of the occupation numbers at the Fermi
  | level can be extrapolated back to zero broadening by an electron-gas inspired
  | formula. For all systems that are not real metals, this value can be
  | meaningless and should be avoided.

------------------------------------------------------------------------------
  Methods described in the following list of references were used in this FHI-aims run.
  If you publish the results, please make sure to cite these reference if they apply.
  FHI-aims is an academic code, and for our developers (often, Ph.D. students
  and postdocs), scientific credit in the community is essential.
  Thank you for helping us!

  For any use of FHI-aims, please cite:

    Volker Blum, Ralf Gehrke, Felix Hanke, Paula Havu, Ville Havu,
    Xinguo Ren, Karsten Reuter, and Matthias Scheffler
    'Ab initio molecular simulations with numeric atom-centered orbitals'
    Computer Physics Communications 180, 2175-2196 (2009)
    http://doi.org/10.1016/j.cpc.2009.06.022


  For Hartree-Fock, hybrid functionals, or many-body perturbation theory used in your run, please cite:

    Xinguo Ren, Patrick Rinke, Volker Blum, Juergen Wieferink, Alex Tkatchenko,
    Andrea Sanfilippo, Karsten Reuter, and Matthias Scheffler,
    'Resolution-of-identity approach to Hartree-Fock, hybrid density functionals,
    RPA, MP2, and GW with numeric atom-centered orbital basis functions'
    New Journal of Physics 14, 053020 (2012).
    http://doi.org/10.1088/1367-2630/14/5/053020


  The provided symmetry information was generated with SPGlib:

    Atsushi Togo, Yusuke Seto, Dimitar Pashov
    SPGlib 1.7.3 obtained from http://spglib.sourceforge.net
    Copyright (C) 2008 Atsushi Togo


  The DFPT (perturbation by an electric field) part of the code was used.
  Here is the corresponding reference:

    Honghui Shang, Nathaniel Raimbault, Mariana Rossi,
    Christian Carbogno, Patrick Rinke and Matthias Scheffler,
    'All-Electron, Real-Space Perturbation Theory for Homogeneous
    Electric Fields: Theory, Implementation, and Application within dft'
    New Journal of Physics, 20(7):073040, 2018


  The ELSI infrastructure was used in your run to solve the Kohn-Sham electronic structure.
  Please check out http://elsi-interchange.org to learn more.
  If scalability is important for your project, please acknowledge ELSI by citing:

    V. W-z. Yu, F. Corsetti, A. Garcia, W. P. Huhn, M. Jacquelin, W. Jia,
    B. Lange, L. Lin, J. Lu, W. Mi, A. Seifitokaldani, A. Vazquez-Mayagoitia,
    C. Yang, H. Yang, and V. Blum
    'ELSI: A unified software interface for Kohn-Sham electronic structure solvers'
    Computer Physics Communications 222, 267-285 (2018).
    http://doi.org/10.1016/j.cpc.2017.09.007


  For the real-space grid partitioning and parallelization used in this calculation, please cite:

    Ville Havu, Volker Blum, Paula Havu, and Matthias Scheffler,
    'Efficient O(N) integration for all-electron electronic structure calculation'
    'using numerically tabulated basis functions'
    Journal of Computational Physics 228, 8367-8379 (2009).
    http://doi.org/10.1016/j.jcp.2009.08.008


  The high-level electronic structure method used in your calculation
  employed our efficient localized resolution of identity for the Coulomb operator.
  Some calculations, especially large-scale hybrid density functional theory,
  are only possible thanks to this development. For this feature, please cite:

    Arvid Ihrig, Juergen Wieferink, Igor Ying Zhang, Matti Ropo, Xinguo Ren,
    Patrick Rinke, Matthias Scheffler, and Volker Blum,
    'Accurate localized resolution of identity approach for linear-scaling
    hybrid density functionals and for many-body perturbation theory'
    New Journal of Physics 117, 093020 (2015).
    http://doi.org/10.1088/1367-2630/17/9/093020

  Of course, there are many other important community references, e.g., those cited in the
  above references. Our list is limited to references that describe implementations in the
  FHI-aims code. The reason is purely practical (length of this list) - please credit others as well.

------------------------------------------------------------
          Leaving FHI-aims.
          Date     :  20230119, Time     :  182416.305

          Computational steps:
          | Number of self-consistency cycles          :           46
          | Number of SCF (re)initializations          :            1
          | Number of coupled perturbed self-consistency cycles          :            0
          | Number of CPSCF (re)initializations          :            0

          Detailed time accounting                     :  max(cpu_time)    wall_clock(cpu1)
          | Total time                                  :     1523.612 s        1537.450 s
          | GPU initialization                          :        1.860 s          11.095 s
          | Preparation time                            :        0.074 s           0.069 s
          | Boundary condition initalization            :        0.996 s           0.996 s
          | Grid partitioning                           :        1.269 s           1.269 s
          | Preloading free-atom quantities on grid     :        3.605 s           3.607 s
          | Free-atom superposition energy              :        0.508 s           0.508 s
          | Total time for integrations                 :       16.643 s          17.535 s
          | Product basis setup: Total time             :        0.000 s           0.000 s
          | Product basis: | 2-center integrations     :(       0.000 s)  (       0.000 s)
          | Product basis: | LVL 3-center & coefficient:(       0.000 s)  (       0.000 s)
          | Total time for solution of K.-S. equations  :        3.221 s           3.221 s
          | Total time for density update               :       11.762 s          14.839 s
          | Total time for mixing & preconditioning     :       11.458 s          11.463 s
          | Total time for Hartree multipole update     :        0.083 s           0.081 s
          | Total time for Hartree multipole sum        :       41.743 s          41.752 s
          | Total time for total energy evaluation      :        0.008 s           0.005 s
          | Total time first_order_DM                   :        1.850 s           1.834 s
          | Total time first_order_density              :      304.700 s         304.730 s
          | Total time first_order_potential            :      119.293 s         119.330 s
          | Total time first_order_H                    :      570.346 s         570.497 s
          | Total time solving of Sternheimer equations :        1.804 s           1.806 s
          | Total time for dielectric constant          :        0.001 s           0.000 s
          | Total time momentum matrix                  :        0.000 s           0.000 s

          GPU acceleration has been used for charge density update.
          GPU acceleration has been used for real-space Hamiltonian integration.
          Due to GPU usage, wall_clock(cpu1) will give a more reliable estimate for timings.

          Partial memory accounting:
          | Residual value for overall tracked memory usage across tasks:     1.234863 MB (should be 0.000000 MB)
          |
          | Largest tracked array allocation:
          |   Minimum:      103.248 MB (DFPT_pulay_mixing::initialize_pulay_mixing::X_in_diffs on task  0)
          |   Maximum:      103.248 MB (DFPT_pulay_mixing::initialize_pulay_mixing::X_in_diffs on task  0)
          |   Average:      103.248 MB
          |
          | Because the residual tracked memory usage was not zero, the peak value for overall
          | tracked memory usage was not output, as it is probably incorrect.  This is likely due
          | to a missing aims_deallocate statement in the source code, which should be otherwise
          | harmless.
          |
          Note:  These values currently only include a subset of arrays which are explicitly tracked.
          The "true" memory usage will be greater.

          Have a nice day.
------------------------------------------------------------
