------------------------------------------------------------
          Invoking FHI-aims ...

          When using FHI-aims, please cite the following reference:

            Volker Blum, Ralf Gehrke, Felix Hanke, Paula Havu,
            Ville Havu, Xinguo Ren, Karsten Reuter, and Matthias Scheffler,
            'Ab Initio Molecular Simulations with Numeric Atom-Centered Orbitals',
            Computer Physics Communications 180, 2175-2196 (2009)

          In addition, many other developments in FHI-aims are likely important for
          your particular application. A partial list of references is given at the end of
          this file. Thank you for giving credit to the authors of these developments.

          For any questions about FHI-aims, please visit our slack channel at

            https://fhi-aims.slack.com

          and our main development and support site at

            https://aims-git.rz-berlin.mpg.de .

          The latter site, in particular, has a wiki to collect information, as well
          as an issue tracker to log discussions, suggest improvements, and report issues
          or bugs. https://aims-git.rz-berlin.mpg.de is also the main development site
          of the project and all new and updated code versions can be obtained there.
          Please send an email to aims-coordinators@fhi-berlin.mpg.de and we will add
          you to these sites. They are for you and everyone is welcome there.

------------------------------------------------------------



  Date     :  20230119, Time     :  193646.934
  Time zero on CPU 1             :   0.374959000000000E+00  s.
  Internal wall clock time zero  :           443389006.934  s.

  FHI-aims created a unique identifier for this run for later identification
  aims_uuid : 4AD359EC-3EC0-4421-A0CC-8C365416565C

  Build configuration of the current instance of FHI-aims
  -------------------------------------------------------
  FHI-aims version      : 220829
  Commit number         : 9895fc21d
  CMake host system     : Linux-5.3.18-150300.59.68-default
  CMake version         : 3.17.0
  Fortran compiler      : /mpcdf/soft/SLE_15/packages/x86_64/intel_oneapi/2021.3/mpi/2021.3.0/bin/mpiifort (Intel) version 20.2.3.20210609
  Fortran compiler flags: -O3 -ip -fp-model precise
  C compiler            : /mpcdf/soft/SLE_15/packages/x86_64/intel/2021.3.0/bin/icc (Intel) version 20.2.3.20210609
  C compiler flags      : -O3 -ip -fp-model precise -std=gnu99
  CUDA compiler         : /mpcdf/soft/SLE_15/packages/x86_64/cuda/11.6.2/bin/nvcc
  CUDA compiler flags   : -O3 -DAdd_ -lcublas
  ELPA2 kernel          : AVX512
  Using MPI
  Using ScaLAPACK
  Using LibXC
  Using CUDA
  Using i-PI
  Using RLSY
  Linking against: /mpcdf/soft/SLE_15/packages/x86_64/cuda/11.6.2/lib64/libcublas.so
                   /mpcdf/soft/SLE_15/packages/x86_64/cuda/11.6.2/lib64/libcudart.so
                   /mpcdf/soft/SLE_15/packages/x86_64/intel_oneapi/2021.3/mkl/latest/lib/intel64/libmkl_intel_lp64.so
                   /mpcdf/soft/SLE_15/packages/x86_64/intel_oneapi/2021.3/mkl/latest/lib/intel64/libmkl_sequential.so
                   /mpcdf/soft/SLE_15/packages/x86_64/intel_oneapi/2021.3/mkl/latest/lib/intel64/libmkl_core.so
                   /mpcdf/soft/SLE_15/packages/x86_64/intel_oneapi/2021.3/mkl/latest/lib/intel64/libmkl_blacs_intelmpi_lp64.so
                   /mpcdf/soft/SLE_15/packages/x86_64/intel_oneapi/2021.3/mkl/latest/lib/intel64/libmkl_scalapack_lp64.so

  Using       18 parallel tasks.
  Task        0 on host adag012 reporting.
  Task        1 on host adag012 reporting.
  Task        2 on host adag012 reporting.
  Task        3 on host adag012 reporting.
  Task        4 on host adag012 reporting.
  Task        5 on host adag012 reporting.
  Task        6 on host adag012 reporting.
  Task        7 on host adag012 reporting.
  Task        8 on host adag012 reporting.
  Task        9 on host adag012 reporting.
  Task       10 on host adag012 reporting.
  Task       11 on host adag012 reporting.
  Task       12 on host adag012 reporting.
  Task       13 on host adag012 reporting.
  Task       14 on host adag012 reporting.
  Task       15 on host adag012 reporting.
  Task       16 on host adag012 reporting.
  Task       17 on host adag012 reporting.

  Performing system and environment tests:
  | Environment variable OMP_NUM_THREADS correctly set to 1.
  | Checking for ScaLAPACK...
  | Testing pdtran()...
  | All pdtran() tests passed.

  Obtaining array dimensions for all initial allocations:
  
  -----------------------------------------------------------------------
  Parsing control.in (first pass over file, find array dimensions only).
  The contents of control.in will be repeated verbatim below
  unless switched off by setting 'verbatim_writeout .false.' .
  in the first line of control.in .
  -----------------------------------------------------------------------
  
  #
  # Input for polarizability replays on generic oligoacene molecular crystals (light settings,  LDA+MBD).
  #
  #########################################################################################
  #
  #  Physical model
  #
    xc                 pw-lda
    spin               none
    relativistic       none
    charge             0.0
    k_grid 	     2 1 1
    DFPT dielectric
  #
  #  GPU acceleration
  #
  # Turns on GPU acceleration everywhere
    use_gpu
  
  # Turns OFF GPU acceleration of ELPA - may be necessary if GPU ELPA is slow
    elsi_elpa_gpu 0
  #
  #  Relaxation
  #
  #  relax_geometry trm 1E-3
  #  relax_unit_cell fixed_angles
  #
  #  SCF convergence        #
    charge_mix_param   0.75
    #sc_accuracy_rho 1E-4
  #
  # i-PI communication
  #
  compute_forces .false.
  # use_pimd_wrapper 130.183.223.27 26118
  #communicate_pimd_wrapper polarizability
  #output_level MD_light
  #
  # Output SALTED info
    ri_density_restart write
    ri_rho1 write
    ri_full_output .true.
  #  sc_accuracy_rho    1d-6
    default_prodbas_acc 1e-6
    default_max_l_prodbas 6
  #
  #
  ################################################################################
  #
  #  FHI-aims code project
  #  VB, Fritz-Haber Institut, 2009
  #
  #  Suggested "light" defaults for H atom (to be pasted into control.in file)
  #  Be sure to double-check any results obtained with these settings for post-processing,
  #  e.g., with the "tight" defaults and larger basis sets.
  #
  ################################################################################
    species        H
  #     global species definitions
      nucleus             1
      mass                1.00794
  #
      l_hartree           4
  #
      cut_pot             3.5  1.5  1.0
      basis_dep_cutoff    1e-4
  #
      radial_base         24 5.0
      radial_multiplier   1
      angular_grids       specified
        division   0.2421   50
        division   0.3822  110
        division   0.4799  194
        division   0.5341  302
  #      division   0.5626  434
  #      division   0.5922  590
  #      division   0.6542  770
  #      division   0.6868 1202
  #      outer_grid  770
        outer_grid  302
  ################################################################################
  #
  #  Definition of "minimal" basis
  #
  ################################################################################
  #     valence basis states
      valence      1  s   1.
  #     ion occupancy
      ion_occ      1  s   0.5
  ################################################################################
  #
  #  Suggested additional basis functions. For production calculations,
  #  uncomment them one after another (the most important basis functions are
  #  listed first).
  #
  #  Basis constructed for dimers: 0.5 A, 0.7 A, 1.0 A, 1.5 A, 2.5 A
  #
  ################################################################################
  #  "First tier" - improvements: -1014.90 meV to -62.69 meV
       hydro 2 s 2.1
       hydro 2 p 3.5
  #  "Second tier" - improvements: -12.89 meV to -1.83 meV
  #     hydro 1 s 0.85
  #     hydro 2 p 3.7
  #     hydro 2 s 1.2
  #     hydro 3 d 7
  #  "Third tier" - improvements: -0.25 meV to -0.12 meV
  #     hydro 4 f 11.2
  #     hydro 3 p 4.8
  #     hydro 4 d 9
  #     hydro 3 s 3.2
  ################################################################################
  ################################################################################
  #
  #  FHI-aims code project
  #  VB, Fritz-Haber Institut, 2009
  #
  #  Suggested "light" defaults for C atom (to be pasted into control.in file)
  #  Be sure to double-check any results obtained with these settings for post-processing,
  #  e.g., with the "tight" defaults and larger basis sets.
  #
  ################################################################################
    species        C
  #     global species definitions
      nucleus             6
      mass                12.0107
  #
      l_hartree           4
  #
      cut_pot             3.5  1.5  1.0
      basis_dep_cutoff    1e-4
  #
      radial_base         34 5.0
      radial_multiplier   1
      angular_grids specified
        division   0.3326   50
        division   0.5710  110
        division   0.7727  194
        division   0.8772  302
  #      division   0.9334  434
  #      division   0.9625  590
  #      division   0.9924  770
  #      division   1.0230  974
  #      division   1.4589 1202
  #     outer_grid  974
       outer_grid 302
  ################################################################################
  #
  #  Definition of "minimal" basis
  #
  ################################################################################
  #     valence basis states
      valence      2  s   2.
      valence      2  p   2.
  #     ion occupancy
      ion_occ      2  s   1.
      ion_occ      2  p   1.
  ################################################################################
  #
  #  Suggested additional basis functions. For production calculations,
  #  uncomment them one after another (the most important basis functions are
  #  listed first).
  #
  #  Constructed for dimers: 1.0 A, 1.25 A, 1.5 A, 2.0 A, 3.0 A
  #
  ################################################################################
  #  "First tier" - improvements: -1214.57 meV to -155.61 meV
       hydro 2 p 1.7
       hydro 3 d 6
       hydro 2 s 4.9
  #  "Second tier" - improvements: -67.75 meV to -5.23 meV
  #     hydro 4 f 9.8
  #     hydro 3 p 5.2
  #     hydro 3 s 4.3
  #     hydro 5 g 14.4
  #     hydro 3 d 6.2
  #  "Third tier" - improvements: -2.43 meV to -0.60 meV
  #     hydro 2 p 5.6
  #     hydro 2 s 1.4
  #     hydro 3 d 4.9
  #     hydro 4 f 11.2
  #  "Fourth tier" - improvements: -0.39 meV to -0.18 meV
  #     hydro 2 p 2.1
  #     hydro 5 g 16.4
  #     hydro 4 d 13.2
  #     hydro 3 s 13.6
  #     hydro 4 f 17.6
  #  Further basis functions - improvements: -0.08 meV and below
  #     hydro 3 s 2
  #     hydro 3 p 6
  #     hydro 4 d 20
  
  -----------------------------------------------------------------------
  Completed first pass over input file control.in .
  -----------------------------------------------------------------------
  
  
  -----------------------------------------------------------------------
  Parsing geometry.in (first pass over file, find array dimensions only).
  The contents of geometry.in will be repeated verbatim below
  unless switched off by setting 'verbatim_writeout .false.' .
  in the first line of geometry.in .
  -----------------------------------------------------------------------
  
  #=======================================================
  # FHI-aims file: /ada/ptmp/mpsd/alewis/naphthalene/qmdata/data/geoms/227.in
  # Created using the Atomic Simulation Environment (ASE)
  # Thu Jan 19 15:19:17 2023
  #=======================================================
  lattice_vector 8.1020000000000003 0.0000000000000000 0.0000000000000000
  lattice_vector 0.0000000000000000 11.8800000000000008 0.0000000000000000
  lattice_vector -9.7850918486534706 0.0000000000000000 14.2571119625755713
  atom -0.9951490000000000 0.1643550000000000 2.3927000000000000 C
  atom 0.2244410000000000 2.9051800000000001 4.9143200000000000 C
  atom 4.2043799999999996 5.9096200000000003 4.8387900000000004 C
  atom 3.3536700000000002 2.9138199999999999 2.3735800000000000 C
  atom -0.1621860000000000 0.9994950000000000 1.6310199999999999 C
  atom -0.4527130000000000 3.8176899999999998 5.6911300000000002 C
  atom 3.4670800000000002 5.0158199999999997 5.5790499999999996 C
  atom 4.1198800000000002 2.0598500000000000 1.6225200000000000 C
  atom 0.2809470000000000 0.6285980000000000 0.3688990000000000 C
  atom -0.8573600000000000 3.4686800000000000 6.9973799999999997 C
  atom 3.0331000000000001 5.3293400000000002 6.8818999999999999 C
  atom 4.5214400000000001 2.4551099999999999 0.3053340000000000 C
  atom -4.0821100000000001 1.4860100000000001 6.5322199999999997 C
  atom 3.2708300000000001 4.5801499999999997 0.5589850000000000 C
  atom 7.4049399999999999 4.4193400000000000 0.5662930000000000 C
  atom 0.1728300000000000 1.2624800000000000 6.7260099999999996 C
  atom -3.7875200000000002 1.1186900000000000 5.2303100000000002 C
  atom 2.8851100000000001 4.1396199999999999 1.8166899999999999 C
  atom 6.9865399999999998 4.7518500000000001 1.8418200000000000 C
  atom 0.5601480000000000 1.6384300000000001 5.4550099999999997 C
  atom -1.3613700000000000 0.4790350000000000 3.3779400000000002 H
  atom 0.5400300000000000 3.2022800000000000 3.9142100000000002 H
  atom 4.5600100000000001 5.6755699999999996 3.8084099999999999 H
  atom 3.0249700000000002 2.6356899999999999 3.3561000000000001 H
  atom 0.1203700000000000 1.9894499999999999 2.0150500000000000 H
  atom -0.7108670000000000 4.7783100000000003 5.2755500000000000 H
  atom 3.1607400000000001 4.0442400000000003 5.1778599999999999 H
  atom 4.4498300000000004 1.0656800000000000 1.9749200000000000 H
  atom -3.8000300000000000 2.4572200000000000 6.9173200000000001 H
  atom 2.9939300000000002 5.5754999999999999 0.1935890000000000 H
  atom 7.1293400000000000 3.5065000000000000 0.0793913000000000 H
  atom 0.4453770000000000 0.2675710000000000 7.0385200000000001 H
  atom -3.2367300000000001 1.8223100000000001 4.5637699999999999 H
  atom 2.2571599999999998 4.7651700000000003 2.4557899999999999 H
  atom 6.4354500000000003 4.0685099999999998 2.4404499999999998 H
  atom 1.1400300000000001 0.9469470000000000 4.8728499999999997 H
  atom -5.7648099999999998 -0.0265325000000000 9.4881300000000000 C
  atom -4.5882300000000003 3.1726999999999999 11.9611000000000001 C
  atom -0.6059300000000000 5.9701199999999996 11.8949999999999996 C
  atom -1.6829000000000001 2.7386900000000001 9.6431299999999993 C
  atom -5.0804099999999996 0.8824590000000000 8.7284000000000006 C
  atom -5.3350299999999997 4.0772100000000000 12.7097999999999995 C
  atom -1.2221200000000001 5.0175700000000001 12.6822999999999997 C
  atom -0.9701980000000000 1.8571200000000001 8.8783100000000008 C
  atom -4.7591200000000002 0.5877540000000000 7.3620900000000002 C
  atom -5.7260600000000004 3.7156600000000002 14.0189000000000004 C
  atom -1.6307199999999999 5.3211000000000004 14.0280000000000005 C
  atom -0.5606540000000000 2.1738599999999999 7.5402300000000002 C
  atom -8.6220300000000005 1.4509700000000001 13.8522999999999996 C
  atom -1.5812700000000000 4.3781100000000004 7.8284900000000004 C
  atom 2.2799600000000000 4.4146299999999998 7.6652600000000000 C
  atom -4.6037499999999998 1.5028300000000001 13.7093000000000007 C
  atom -8.1712199999999999 1.1114200000000001 12.5953999999999997 C
  atom -1.9646999999999999 4.0632700000000002 9.1204999999999998 C
  atom 1.9558500000000001 4.7315899999999997 8.9555399999999992 C
  atom -4.2532199999999998 1.8821699999999999 12.4306000000000001 C
  atom -5.9676000000000000 0.2526610000000000 10.5385000000000009 H
  atom -4.2373500000000002 3.5067900000000001 11.0037000000000003 H
  atom -0.3790840000000000 5.7378000000000000 10.8458000000000006 H
  atom -2.0204599999999999 2.4778500000000001 10.6632999999999996 H
  atom -4.8465600000000002 1.9072300000000000 9.0541499999999999 H
  atom -5.5348199999999999 5.0792500000000000 12.3606999999999996 H
  atom -1.4255400000000000 3.9947200000000000 12.3522999999999996 H
  atom -0.6801620000000000 0.8650030000000000 9.2538000000000000 H
  atom -8.3894000000000002 2.4194800000000001 14.3145000000000007 H
  atom -1.8413600000000001 5.3490700000000002 7.4012099999999998 H
  atom 1.9097800000000000 3.5136099999999999 7.1867700000000001 H
  atom -4.4079800000000002 0.5109880000000000 14.1085999999999991 H
  atom -7.5354599999999996 1.8113600000000001 12.0519999999999996 H
  atom -2.5435300000000001 4.7717299999999998 9.7024899999999992 H
  atom 1.3442099999999999 4.0301299999999998 9.5918299999999999 H
  atom -3.6972399999999999 1.1956899999999999 11.7840000000000007 H
  atom -0.7385900000000000 5.9882900000000001 2.3501300000000001 C
  atom 0.1793710000000000 9.0011100000000006 4.7554699999999999 C
  atom 3.9928400000000002 11.7194000000000003 4.7485499999999998 C
  atom 3.1611300000000000 8.8041000000000000 2.4617599999999999 C
  atom -0.0845037000000000 6.9302200000000003 1.5796500000000000 C
  atom -0.6238560000000000 9.8903300000000005 5.4796399999999998 C
  atom 3.3703599999999998 10.8130000000000006 5.5698100000000004 C
  atom 3.9365000000000001 7.9692900000000000 1.7000599999999999 C
  atom 0.3548650000000000 6.6375099999999998 0.2765200000000000 C
  atom -0.9941130000000000 9.5506600000000006 6.8162000000000003 C
  atom 3.0171199999999998 11.1593999999999998 6.8723200000000002 C
  atom 4.3350200000000001 8.3430199999999992 0.3971460000000000 C
  atom -3.8815100000000000 7.4674199999999997 6.6645599999999998 C
  atom 3.0588899999999999 10.3994000000000000 0.6618840000000000 C
  atom 7.1924000000000001 10.3681000000000001 0.6045160000000001 C
  atom 0.1970730000000000 7.4410400000000001 6.5974399999999997 C
  atom -3.4781499999999999 7.1200999999999999 5.3995100000000003 C
  atom 2.7066300000000001 10.0390999999999995 1.9207200000000000 C
  atom 6.7258100000000001 10.7677999999999994 1.8664900000000000 C
  atom 0.6265150000000000 7.7953599999999996 5.3356599999999998 C
  atom -0.9374150000000000 6.2286700000000002 3.3893100000000000 H
  atom 0.4175140000000000 9.2294699999999992 3.6819899999999999 H
  atom 4.1559499999999998 11.4604999999999997 3.7181500000000001 H
  atom 2.8964200000000000 8.5032200000000007 3.4662600000000001 H
  atom 0.1612290000000000 7.9432799999999997 1.9613799999999999 H
  atom -0.9570900000000000 10.8603000000000005 5.0825199999999997 H
  atom 3.0512800000000002 9.8391300000000008 5.1791299999999998 H
  atom 4.2710699999999999 6.9754300000000002 2.0676000000000001 H
  atom -3.6093000000000002 8.4210700000000003 7.1242400000000004 H
  atom 2.7005400000000002 11.3820999999999994 0.3252190000000000 H
  atom 6.8017500000000002 9.4555500000000006 0.0960310000000000 H
  atom 0.5311970000000000 6.5296200000000004 7.0970300000000002 H
  atom -2.8910700000000000 7.8024899999999997 4.7932499999999996 H
  atom 2.1048100000000001 10.7393000000000001 2.5520100000000001 H
  atom 5.9808899999999996 10.1837999999999997 2.3950000000000000 H
  atom 1.3350400000000000 7.1453499999999996 4.7951699999999997 H
  atom -5.7538000000000000 6.0133900000000002 9.5033499999999993 C
  atom -4.5956400000000004 9.2053200000000004 12.1312999999999995 C
  atom -0.5403470000000000 11.7744000000000000 12.0079999999999991 C
  atom -1.6601200000000000 8.8445900000000002 9.5598799999999997 C
  atom -5.0193199999999996 6.9040499999999998 8.7545699999999993 C
  atom -5.4812099999999999 9.9601699999999997 12.8224000000000000 C
  atom -1.3762399999999999 10.9390999999999998 12.7576999999999998 C
  atom -0.9162820000000000 7.9766300000000001 8.7449499999999993 C
  atom -4.6157100000000000 6.5808700000000000 7.4443200000000003 C
  atom -5.8933000000000000 9.5864300000000000 14.1090000000000000 C
  atom -1.7878099999999999 11.2461000000000002 14.0922000000000001 C
  atom -0.5737850000000000 8.2965599999999995 7.3999300000000003 C
  atom -8.7117799999999992 7.5773999999999999 13.7262000000000004 C
  atom -1.7881199999999999 10.3734000000000002 7.6406700000000001 C
  atom 2.2922699999999998 10.2685999999999993 7.7255799999999999 C
  atom -4.6220600000000003 7.5138900000000000 13.8521000000000001 C
  atom -8.4249200000000002 7.2487000000000004 12.4086999999999996 C
  atom -2.0867100000000001 10.0553000000000008 8.9537200000000006 C
  atom 1.9627200000000000 10.5951000000000004 9.0162399999999998 C
  atom -4.2045500000000002 7.9428200000000002 12.6212000000000000 C
  atom -5.9336099999999998 6.2333800000000004 10.5498999999999992 H
  atom -4.1280900000000003 9.5643600000000006 11.2133000000000003 H
  atom -0.2685950000000000 11.5655999999999999 10.9902999999999995 H
  atom -1.9456400000000000 8.5956499999999991 10.5690000000000008 H
  atom -4.6893200000000004 7.9055499999999999 9.1284200000000002 H
  atom -5.7326400000000000 10.9747000000000003 12.5358999999999998 H
  atom -1.6983200000000001 9.9974699999999999 12.3201999999999998 H
  atom -0.5677150000000000 7.0081199999999999 9.1319700000000008 H
  atom -8.4744100000000007 8.5838599999999996 14.0650999999999993 H
  atom -2.1767200000000000 11.2886000000000006 7.1907199999999998 H
  atom 2.0165700000000002 9.3007200000000001 7.3195199999999998 H
  atom -4.2258599999999999 6.5929099999999998 14.2819000000000003 H
  atom -7.9917800000000003 8.0380599999999998 11.7911000000000001 H
  atom -2.7529900000000000 10.7452000000000005 9.4752799999999997 H
  atom 1.3926300000000000 9.8609899999999993 9.6519999999999992 H
  atom -3.4915200000000000 7.3475599999999996 12.0368999999999993 H
  
  -----------------------------------------------------------------------
  Completed first pass over input file geometry.in .
  -----------------------------------------------------------------------
  

  Basic array size parameters:
  | Number of species                 :        2
  | Number of atoms                   :      144
  | Number of lattice vectors         :        3
  | Max. basis fn. angular momentum   :        2
  | Max. atomic/ionic basis occupied n:        2
  | Max. number of basis fn. types    :        2
  | Max. radial fns per species/type  :        3
  | Max. logarithmic grid size        :     1277
  | Max. radial integration grid size :       34
  | Max. angular integration grid size:      302
  | Max. angular grid division number :        8
  | Radial grid for Hartree potential :     1277
  | Number of spin channels           :        1

------------------------------------------------------------
          Reading file control.in.
------------------------------------------------------------
  XC: Using Perdew-Wang parametrisation of Ceperley-Alder LDA.
  Spin treatment: No spin polarisation.
  Non-relativistic treatment of kinetic energy.
  Charge =   0.000000E+00: Neutral system requested explicitly.
  Found k-point grid:         2         1         1
  DFPT calculation will begin after the DFT/HF calculation.
  Charge density mixing - mixing parameter:     0.7500
  Forces will not be computed.
 
  Reading configuration options for species H                   .
  | Found nuclear charge :   1.0000
  | Found atomic mass :    1.00794000000000      amu
  | Found l_max for Hartree potential  :   4
  | Found cutoff potl. onset [A], width [A], scale factor :    3.50000    1.50000    1.00000
  | Threshold for basis-dependent cutoff potential is   0.100000E-03
  | Found data for basic radial integration grid :    24 points, outermost radius =    5.000 A
  | Found multiplier for basic radial grid :   1
  | Found angular grid specification: user-specified.
  | Specified grid contains     5 separate shells.
  | Check grid settings after all constraints further below.
  | Found free-atom valence shell :  1 s   1.000
  | No ionic wave fns used. Skipping ion_occ.
  | Found hydrogenic basis function :  2 s   2.100
  | Found hydrogenic basis function :  2 p   3.500
  Species H                   : Missing cutoff potential type.
  Defaulting to exp(1/x)/(1-x)^2 type cutoff potential.
  Species H : No 'logarithmic' tag. Using default grid for free atom:
  | Default logarithmic grid data [bohr] : 0.1000E-03 0.1000E+03 0.1012E+01
  Species H : On-site basis accuracy parameter (for Gram-Schmidt orthonormalisation) not specified.
  Using default value basis_acc =  0.1000000E-03.
  Species H                   : Using default innermost maximum threshold i_radial=  2 for radial functions.
  Species H                   : Default cutoff onset for free atom density etc. : 0.35000000E+01 AA.
  Species H                   : Basic radial grid will be enhanced according to radial_multiplier =   1, to contain    24 grid points.
 
  Reading configuration options for species C                   .
  | Found nuclear charge :   6.0000
  | Found atomic mass :    12.0107000000000      amu
  | Found l_max for Hartree potential  :   4
  | Found cutoff potl. onset [A], width [A], scale factor :    3.50000    1.50000    1.00000
  | Threshold for basis-dependent cutoff potential is   0.100000E-03
  | Found data for basic radial integration grid :    34 points, outermost radius =    5.000 A
  | Found multiplier for basic radial grid :   1
  | Found angular grid specification: user-specified.
  | Specified grid contains     5 separate shells.
  | Check grid settings after all constraints further below.
  | Found free-atom valence shell :  2 s   2.000
  | Found free-atom valence shell :  2 p   2.000
  | No ionic wave fns used. Skipping ion_occ.
  | No ionic wave fns used. Skipping ion_occ.
  | Found hydrogenic basis function :  2 p   1.700
  | Found hydrogenic basis function :  3 d   6.000
  | Found hydrogenic basis function :  2 s   4.900
  Species C                   : Missing cutoff potential type.
  Defaulting to exp(1/x)/(1-x)^2 type cutoff potential.
  Species C : No 'logarithmic' tag. Using default grid for free atom:
  | Default logarithmic grid data [bohr] : 0.1000E-03 0.1000E+03 0.1012E+01
  Species C : On-site basis accuracy parameter (for Gram-Schmidt orthonormalisation) not specified.
  Using default value basis_acc =  0.1000000E-03.
  Species C                   : Using default innermost maximum threshold i_radial=  2 for radial functions.
  Species C                   : Default cutoff onset for free atom density etc. : 0.35000000E+01 AA.
  Species C                   : Basic radial grid will be enhanced according to radial_multiplier =   1, to contain    34 grid points.
 
  Finished reading input file 'control.in'.
 
------------------------------------------------------------


------------------------------------------------------------
          Reading geometry description geometry.in.
------------------------------------------------------------
  | The smallest distance between any two atoms is         1.06254959 AA.
  | The first atom of this pair is atom number                     19 .
  | The second atom of this pair is atom number                    35 .
  | Wigner-Seitz cell of the first atom image           0     0     0 .
  | (The Wigner-Seitz cell of the second atom is 0 0 0  by definition.)

  Symmetry information by spglib:
  | Precision set to  0.1E-04
  | Number of Operations  : 1
  | Space group           : 1
  | International         : P1
  | Schoenflies           : C1^1
  Input structure read successfully.
  The structure contains      144 atoms,  and a total of        544.000 electrons.

  Input geometry:
  | Unit cell:
  |        8.10200000        0.00000000        0.00000000
  |        0.00000000       11.88000000        0.00000000
  |       -9.78509185        0.00000000       14.25711196
  | Atomic structure:
  |       Atom                x [A]            y [A]            z [A]
  |    1: Species C            -0.99514900        0.16435500        2.39270000
  |    2: Species C             0.22444100        2.90518000        4.91432000
  |    3: Species C             4.20438000        5.90962000        4.83879000
  |    4: Species C             3.35367000        2.91382000        2.37358000
  |    5: Species C            -0.16218600        0.99949500        1.63102000
  |    6: Species C            -0.45271300        3.81769000        5.69113000
  |    7: Species C             3.46708000        5.01582000        5.57905000
  |    8: Species C             4.11988000        2.05985000        1.62252000
  |    9: Species C             0.28094700        0.62859800        0.36889900
  |   10: Species C            -0.85736000        3.46868000        6.99738000
  |   11: Species C             3.03310000        5.32934000        6.88190000
  |   12: Species C             4.52144000        2.45511000        0.30533400
  |   13: Species C            -4.08211000        1.48601000        6.53222000
  |   14: Species C             3.27083000        4.58015000        0.55898500
  |   15: Species C             7.40494000        4.41934000        0.56629300
  |   16: Species C             0.17283000        1.26248000        6.72601000
  |   17: Species C            -3.78752000        1.11869000        5.23031000
  |   18: Species C             2.88511000        4.13962000        1.81669000
  |   19: Species C             6.98654000        4.75185000        1.84182000
  |   20: Species C             0.56014800        1.63843000        5.45501000
  |   21: Species H            -1.36137000        0.47903500        3.37794000
  |   22: Species H             0.54003000        3.20228000        3.91421000
  |   23: Species H             4.56001000        5.67557000        3.80841000
  |   24: Species H             3.02497000        2.63569000        3.35610000
  |   25: Species H             0.12037000        1.98945000        2.01505000
  |   26: Species H            -0.71086700        4.77831000        5.27555000
  |   27: Species H             3.16074000        4.04424000        5.17786000
  |   28: Species H             4.44983000        1.06568000        1.97492000
  |   29: Species H            -3.80003000        2.45722000        6.91732000
  |   30: Species H             2.99393000        5.57550000        0.19358900
  |   31: Species H             7.12934000        3.50650000        0.07939130
  |   32: Species H             0.44537700        0.26757100        7.03852000
  |   33: Species H            -3.23673000        1.82231000        4.56377000
  |   34: Species H             2.25716000        4.76517000        2.45579000
  |   35: Species H             6.43545000        4.06851000        2.44045000
  |   36: Species H             1.14003000        0.94694700        4.87285000
  |   37: Species C            -5.76481000       -0.02653250        9.48813000
  |   38: Species C            -4.58823000        3.17270000       11.96110000
  |   39: Species C            -0.60593000        5.97012000       11.89500000
  |   40: Species C            -1.68290000        2.73869000        9.64313000
  |   41: Species C            -5.08041000        0.88245900        8.72840000
  |   42: Species C            -5.33503000        4.07721000       12.70980000
  |   43: Species C            -1.22212000        5.01757000       12.68230000
  |   44: Species C            -0.97019800        1.85712000        8.87831000
  |   45: Species C            -4.75912000        0.58775400        7.36209000
  |   46: Species C            -5.72606000        3.71566000       14.01890000
  |   47: Species C            -1.63072000        5.32110000       14.02800000
  |   48: Species C            -0.56065400        2.17386000        7.54023000
  |   49: Species C            -8.62203000        1.45097000       13.85230000
  |   50: Species C            -1.58127000        4.37811000        7.82849000
  |   51: Species C             2.27996000        4.41463000        7.66526000
  |   52: Species C            -4.60375000        1.50283000       13.70930000
  |   53: Species C            -8.17122000        1.11142000       12.59540000
  |   54: Species C            -1.96470000        4.06327000        9.12050000
  |   55: Species C             1.95585000        4.73159000        8.95554000
  |   56: Species C            -4.25322000        1.88217000       12.43060000
  |   57: Species H            -5.96760000        0.25266100       10.53850000
  |   58: Species H            -4.23735000        3.50679000       11.00370000
  |   59: Species H            -0.37908400        5.73780000       10.84580000
  |   60: Species H            -2.02046000        2.47785000       10.66330000
  |   61: Species H            -4.84656000        1.90723000        9.05415000
  |   62: Species H            -5.53482000        5.07925000       12.36070000
  |   63: Species H            -1.42554000        3.99472000       12.35230000
  |   64: Species H            -0.68016200        0.86500300        9.25380000
  |   65: Species H            -8.38940000        2.41948000       14.31450000
  |   66: Species H            -1.84136000        5.34907000        7.40121000
  |   67: Species H             1.90978000        3.51361000        7.18677000
  |   68: Species H            -4.40798000        0.51098800       14.10860000
  |   69: Species H            -7.53546000        1.81136000       12.05200000
  |   70: Species H            -2.54353000        4.77173000        9.70249000
  |   71: Species H             1.34421000        4.03013000        9.59183000
  |   72: Species H            -3.69724000        1.19569000       11.78400000
  |   73: Species C            -0.73859000        5.98829000        2.35013000
  |   74: Species C             0.17937100        9.00111000        4.75547000
  |   75: Species C             3.99284000       11.71940000        4.74855000
  |   76: Species C             3.16113000        8.80410000        2.46176000
  |   77: Species C            -0.08450370        6.93022000        1.57965000
  |   78: Species C            -0.62385600        9.89033000        5.47964000
  |   79: Species C             3.37036000       10.81300000        5.56981000
  |   80: Species C             3.93650000        7.96929000        1.70006000
  |   81: Species C             0.35486500        6.63751000        0.27652000
  |   82: Species C            -0.99411300        9.55066000        6.81620000
  |   83: Species C             3.01712000       11.15940000        6.87232000
  |   84: Species C             4.33502000        8.34302000        0.39714600
  |   85: Species C            -3.88151000        7.46742000        6.66456000
  |   86: Species C             3.05889000       10.39940000        0.66188400
  |   87: Species C             7.19240000       10.36810000        0.60451600
  |   88: Species C             0.19707300        7.44104000        6.59744000
  |   89: Species C            -3.47815000        7.12010000        5.39951000
  |   90: Species C             2.70663000       10.03910000        1.92072000
  |   91: Species C             6.72581000       10.76780000        1.86649000
  |   92: Species C             0.62651500        7.79536000        5.33566000
  |   93: Species H            -0.93741500        6.22867000        3.38931000
  |   94: Species H             0.41751400        9.22947000        3.68199000
  |   95: Species H             4.15595000       11.46050000        3.71815000
  |   96: Species H             2.89642000        8.50322000        3.46626000
  |   97: Species H             0.16122900        7.94328000        1.96138000
  |   98: Species H            -0.95709000       10.86030000        5.08252000
  |   99: Species H             3.05128000        9.83913000        5.17913000
  |  100: Species H             4.27107000        6.97543000        2.06760000
  |  101: Species H            -3.60930000        8.42107000        7.12424000
  |  102: Species H             2.70054000       11.38210000        0.32521900
  |  103: Species H             6.80175000        9.45555000        0.09603100
  |  104: Species H             0.53119700        6.52962000        7.09703000
  |  105: Species H            -2.89107000        7.80249000        4.79325000
  |  106: Species H             2.10481000       10.73930000        2.55201000
  |  107: Species H             5.98089000       10.18380000        2.39500000
  |  108: Species H             1.33504000        7.14535000        4.79517000
  |  109: Species C            -5.75380000        6.01339000        9.50335000
  |  110: Species C            -4.59564000        9.20532000       12.13130000
  |  111: Species C            -0.54034700       11.77440000       12.00800000
  |  112: Species C            -1.66012000        8.84459000        9.55988000
  |  113: Species C            -5.01932000        6.90405000        8.75457000
  |  114: Species C            -5.48121000        9.96017000       12.82240000
  |  115: Species C            -1.37624000       10.93910000       12.75770000
  |  116: Species C            -0.91628200        7.97663000        8.74495000
  |  117: Species C            -4.61571000        6.58087000        7.44432000
  |  118: Species C            -5.89330000        9.58643000       14.10900000
  |  119: Species C            -1.78781000       11.24610000       14.09220000
  |  120: Species C            -0.57378500        8.29656000        7.39993000
  |  121: Species C            -8.71178000        7.57740000       13.72620000
  |  122: Species C            -1.78812000       10.37340000        7.64067000
  |  123: Species C             2.29227000       10.26860000        7.72558000
  |  124: Species C            -4.62206000        7.51389000       13.85210000
  |  125: Species C            -8.42492000        7.24870000       12.40870000
  |  126: Species C            -2.08671000       10.05530000        8.95372000
  |  127: Species C             1.96272000       10.59510000        9.01624000
  |  128: Species C            -4.20455000        7.94282000       12.62120000
  |  129: Species H            -5.93361000        6.23338000       10.54990000
  |  130: Species H            -4.12809000        9.56436000       11.21330000
  |  131: Species H            -0.26859500       11.56560000       10.99030000
  |  132: Species H            -1.94564000        8.59565000       10.56900000
  |  133: Species H            -4.68932000        7.90555000        9.12842000
  |  134: Species H            -5.73264000       10.97470000       12.53590000
  |  135: Species H            -1.69832000        9.99747000       12.32020000
  |  136: Species H            -0.56771500        7.00812000        9.13197000
  |  137: Species H            -8.47441000        8.58386000       14.06510000
  |  138: Species H            -2.17672000       11.28860000        7.19072000
  |  139: Species H             2.01657000        9.30072000        7.31952000
  |  140: Species H            -4.22586000        6.59291000       14.28190000
  |  141: Species H            -7.99178000        8.03806000       11.79110000
  |  142: Species H            -2.75299000       10.74520000        9.47528000
  |  143: Species H             1.39263000        9.86099000        9.65200000
  |  144: Species H            -3.49152000        7.34756000       12.03690000

  Lattice parameters for 3D lattice (in Angstroms) :     8.102000   11.880000   17.292000
  Angle(s) between unit vectors (in degrees)       :    90.000000  124.463000   90.000000


  Quantities derived from the lattice vectors (in Angstrom^-1):
  | Reciprocal lattice vector 1:  0.775510  0.000000  0.532257
  | Reciprocal lattice vector 2:  0.000000  0.528888  0.000000
  | Reciprocal lattice vector 3: -0.000000  0.000000  0.440705
  | Unit cell volume                               :   0.137227E+04  Angstrom^3

  Fractional coordinates:
                         L1                L2                L3
       atom_frac         0.07986104        0.01383460        0.16782501  C
       atom_frac         0.44400013        0.24454377        0.34469253  C
       atom_frac         0.92883109        0.49744276        0.33939482  C
       atom_frac         0.61500006        0.24527104        0.16648393  C
       atom_frac         0.11814773        0.08413258        0.11440045  C
       atom_frac         0.42622606        0.32135438        0.39917832  C
       atom_frac         0.90053722        0.42220707        0.39131698  C
       atom_frac         0.64594731        0.17338805        0.11380425  C
       atom_frac         0.06592615        0.05291229        0.02587474  C
       atom_frac         0.48693605        0.29197643        0.49079926  C
       atom_frac         0.95733873        0.44859764        0.48269944  C
       atom_frac         0.58392990        0.20665909        0.02141626  C
       atom_frac         0.04951275        0.12508502        0.45817274  C
       atom_frac         0.45105881        0.38553451        0.03920745  C
       atom_frac         0.96193584        0.37199832        0.03972004  C
       atom_frac         0.59110051        0.10626936        0.47176525  C
       atom_frac        -0.02441352        0.09416582        0.36685621  C
       atom_frac         0.50999258        0.34845286        0.12742342  C
       atom_frac         1.01834576        0.39998737        0.12918605  C
       atom_frac         0.53123774        0.13791498        0.38261676  C
       atom_frac         0.11812065        0.04032281        0.23693017  H
       atom_frac         0.39823155        0.26955219        0.27454438  H
       atom_frac         0.88544041        0.47774158        0.26712352  H
       atom_frac         0.65766034        0.22185943        0.23539831  H
       atom_frac         0.18555424        0.16746212        0.14133648  H
       atom_frac         0.35915876        0.40221465        0.37002936  H
       atom_frac         0.82874150        0.34042424        0.36317734  H
       atom_frac         0.71652407        0.08970370        0.13852174  H
       atom_frac         0.11695115        0.20683670        0.48518382  H
       atom_frac         0.38592891        0.46931818        0.01357842  H
       atom_frac         0.88667350        0.29515993        0.00556854  H
       atom_frac         0.65121309        0.02252281        0.49368484  H
       atom_frac        -0.01289498        0.15339310        0.32010480  H
       atom_frac         0.48662599        0.40110859        0.17225017  H
       atom_frac         1.00103745        0.34246717        0.17117422  H
       atom_frac         0.55349493        0.07970934        0.34178381  H
       atom_frac         0.09222213       -0.00223338        0.66550154  C
       atom_frac         0.44693145        0.26706229        0.83895673  C
       atom_frac         0.93285265        0.50253535        0.83432045  C
       atom_frac         0.60916748        0.23052946        0.67637331  C
       atom_frac         0.11233742        0.07428106        0.61221375  C
       atom_frac         0.41818000        0.34319949        0.89147087  C
       atom_frac         0.92349176        0.42235438        0.88954201  C
       atom_frac         0.63234480        0.15632323        0.62272850  C
       atom_frac         0.03625123        0.04947424        0.51638018  C
       atom_frac         0.48081211        0.31276599        0.98329171  C
       atom_frac         0.98705570        0.44790404        0.98392999  C
       atom_frac         0.56954288        0.18298485        0.52887499  C
       atom_frac         0.10926031        0.12213552        0.97160631  C
       atom_frac         0.46799087        0.36852778        0.54909367  C
       atom_frac         0.93074084        0.37160185        0.53764465  C
       atom_frac         0.59310809        0.12650084        0.96157623  C
       atom_frac         0.05842855        0.09355387        0.88344680  C
       atom_frac         0.53011331        0.34202609        0.63971582  C
       atom_frac         1.00003838        0.39828199        0.62814545  C
       atom_frac         0.52805244        0.15843182        0.87188766  C
       atom_frac         0.15617067        0.02126776        0.73917495  H
       atom_frac         0.40913673        0.29518434        0.77180428  H
       atom_frac         0.87197237        0.48297980        0.76072910  H
       atom_frac         0.65392358        0.20857323        0.74792847  H
       atom_frac         0.16879536        0.16054125        0.63506200  H
       atom_frac         0.36394796        0.42754630        0.86698484  H
       atom_frac         0.87042967        0.33625589        0.86639567  H
       atom_frac         0.69995111        0.07281170        0.64906553  H
       atom_frac         0.17712651        0.20365993        1.00402522  H
       atom_frac         0.39969350        0.45025842        0.51912407  H
       atom_frac         0.84451740        0.29575842        0.50408316  H
       atom_frac         0.65109646        0.04301246        0.98958331  H
       atom_frac         0.09086597        0.15247138        0.84533249  H
       atom_frac         0.50797156        0.40166077        0.68053685  H
       atom_frac         0.97844683        0.33923653        0.67277511  H
       atom_frac         0.54190070        0.10064731        0.82653486  H
       atom_frac         0.10792102        0.50406481        0.16483913  C
       atom_frac         0.42498093        0.75766919        0.33355072  C
       atom_frac         0.89507715        0.98648148        0.33306535  C
       atom_frac         0.59870540        0.74108586        0.17266891  C
       atom_frac         0.12338415        0.58335185        0.11079733  C
       atom_frac         0.38718693        0.83251936        0.38434432  C
       atom_frac         0.88781670        0.91018519        0.39066888  C
       atom_frac         0.62988190        0.67081566        0.11924294  C
       atom_frac         0.06722403        0.55871296        0.01939523  C
       atom_frac         0.45470914        0.80392761        0.47809122  C
       atom_frac         0.95455484        0.93934343        0.48202750  C
       atom_frac         0.56869828        0.70227441        0.02785599  C
       atom_frac         0.08548276        0.62857071        0.46745512  C
       atom_frac         0.43361654        0.87537037        0.04642483  C
       atom_frac         0.93894073        0.87273569        0.04240101  C
       atom_frac         0.58320141        0.62635017        0.46274730  C
       atom_frac         0.02810402        0.59933502        0.37872397  C
       atom_frac         0.49677596        0.84504209        0.13472013  C
       atom_frac         0.98825465        0.90638047        0.13091642  C
       atom_frac         0.52931888        0.65617508        0.37424550  C
       atom_frac         0.17141102        0.52429882        0.23772767  H
       atom_frac         0.36343820        0.77689141        0.25825637  H
       atom_frac         0.82792274        0.96468855        0.26079265  H
       atom_frac         0.65112567        0.71575926        0.24312498  H
       atom_frac         0.18605086        0.66862626        0.13757204  H
       atom_frac         0.31241655        0.91416667        0.35649015  H
       atom_frac         0.81533884        0.82820960        0.36326642  H
       atom_frac         0.70231142        0.58715741        0.14502236  H
       atom_frac         0.15802070        0.70884428        0.49969728  H
       atom_frac         0.36086741        0.95808923        0.02281100  H
       atom_frac         0.84764984        0.79592172        0.00673566  H
       atom_frac         0.66676199        0.54963131        0.49778875  H
       atom_frac         0.04920810        0.65677525        0.33620063  H
       atom_frac         0.47597291        0.90398148        0.17899909  H
       atom_frac         0.94108266        0.85722222        0.16798634  H
       atom_frac         0.57098393        0.60146044        0.33633530  H
       atom_frac         0.09487036        0.50617761        0.66656908  C
       atom_frac         0.46043472        0.77485859        0.85089463  C
       atom_frac         0.95051969        0.99111111        0.84224631  C
       atom_frac         0.60492692        0.74449411        0.67053412  C
       atom_frac         0.12209443        0.58114899        0.61404933  C
       atom_frac         0.40967603        0.83839815        0.89936868  C
       atom_frac         0.91085653        0.92079966        0.89483060  C
       atom_frac         0.62770236        0.67143350        0.61337458  C
       atom_frac         0.06091760        0.55394529        0.52214782  C
       atom_frac         0.46780277        0.80693855        0.98961136  C
       atom_frac         0.97310513        0.94664141        0.98843300  C
       atom_frac         0.55603718        0.69836364        0.51903429  C
       atom_frac         0.08750071        0.63782828        0.96276161  C
       atom_frac         0.42654967        0.87318182        0.53591990  C
       atom_frac         0.93737000        0.86436027        0.54187552  C
       atom_frac         0.60294492        0.63248232        0.97159229  C
       atom_frac         0.01129970        0.61015993        0.87035159  C
       atom_frac         0.50092592        0.84640572        0.62801779  C
       atom_frac         1.00602829        0.89184343        0.63240297  C
       atom_frac         0.55020556        0.66858754        0.88525643  C
       atom_frac         0.16133164        0.52469529        0.73997455  H
       atom_frac         0.44037776        0.80508081        0.78650571  H
       atom_frac         0.89785040        0.97353535        0.77086440  H
       atom_frac         0.65517006        0.72353956        0.74131423  H
       atom_frac         0.19449441        0.66545034        0.64027133  H
       atom_frac         0.35437317        0.92379630        0.87927345  H
       atom_frac         0.83404221        0.84153788        0.86414416  H
       atom_frac         0.70350965        0.58990909        0.64052033  H
       atom_frac         0.14550706        0.72254714        0.98653220  H
       atom_frac         0.34047038        0.95021886        0.50436021  H
       atom_frac         0.86894352        0.78288889        0.51339430  H
       atom_frac         0.68825532        0.55495875        1.00173864  H
       atom_frac         0.01244291        0.67660438        0.82703285  H
       atom_frac         0.46287144        0.90447811        0.66460024  H
       atom_frac         0.98952021        0.83004966        0.67699545  H
       atom_frac         0.58871544        0.61848148        0.84427337  H

 
  Finished reading input file 'geometry.in'.
 

 
  Consistency checks for stacksize environment parameter are next.
 
  | Maximum stacksize for task 0: unlimited
  | Maximum stacksize for task 1: unlimited
  | Maximum stacksize for task 2: unlimited
  | Maximum stacksize for task 3: unlimited
  | Maximum stacksize for task 4: unlimited
  | Maximum stacksize for task 5: unlimited
  | Maximum stacksize for task 6: unlimited
  | Maximum stacksize for task 7: unlimited
  | Maximum stacksize for task 8: unlimited
  | Maximum stacksize for task 9: unlimited
  | Maximum stacksize for task 10: unlimited
  | Maximum stacksize for task 11: unlimited
  | Maximum stacksize for task 12: unlimited
  | Maximum stacksize for task 13: unlimited
  | Maximum stacksize for task 14: unlimited
  | Maximum stacksize for task 15: unlimited
  | Maximum stacksize for task 16: unlimited
  | Maximum stacksize for task 17: unlimited
  | Current stacksize for task 0: unlimited
  | Current stacksize for task 1: unlimited
  | Current stacksize for task 2: unlimited
  | Current stacksize for task 3: unlimited
  | Current stacksize for task 4: unlimited
  | Current stacksize for task 5: unlimited
  | Current stacksize for task 6: unlimited
  | Current stacksize for task 7: unlimited
  | Current stacksize for task 8: unlimited
  | Current stacksize for task 9: unlimited
  | Current stacksize for task 10: unlimited
  | Current stacksize for task 11: unlimited
  | Current stacksize for task 12: unlimited
  | Current stacksize for task 13: unlimited
  | Current stacksize for task 14: unlimited
  | Current stacksize for task 15: unlimited
  | Current stacksize for task 16: unlimited
  | Current stacksize for task 17: unlimited
 
  Consistency checks for the contents of control.in are next.
 
  MPI_IN_PLACE appears to work with this MPI implementation.
  | Keeping use_mpi_in_place .true. (see manual).
  Explicit treatment of the Coulomb operator is needed, but the RI method is not specified.
  Coulomb operator: Defaulting to 'LVL fast' resolution of identity - RI_type = LVL_fast
  Species H: Using default value for prodbas_acc =   1.000000E-06.
  Species H: Using default value max_l_prodbas =     6.
  Species C: Using default value for prodbas_acc =   1.000000E-06.
  Species C: Using default value max_l_prodbas =     6.
  Target number of points in a grid batch is not set.  Since GPU acceleration is enabled, defaulting to  200
  Method for grid partitioning is not set. Defaulting to parallel hash+maxmin partitioning.
  Batch size limit is not set. Defaulting to    200
  By default, will store active basis functions for each batch.
  If in need of memory, prune_basis_once .false. can be used to disable this option.
  communication_type for Hartree potential was not specified.
  Defaulting to calc_hartree .
  Defaulting to Pulay charge density mixer.
  Pulay mixer: Number of relevant iterations not set.
  Defaulting to    8 iterations.
  Pulay mixer: Number of initial linear mixing iterations not set.
  Defaulting to    0 iterations.
  Work space size for distributed Hartree potential not set.
  Defaulting to   0.200000E+03 MB.
  Algorithm-dependent basis array size parameters:
  | n_max_pulay                         :        8
  Maximum number of self-consistency iterations not provided.
  Presetting  1000 iterations.
  Presetting      1001 iterations before the initial mixing cycle
  is restarted anyway using the sc_init_iter criterion / keyword.
  Presetting a factor      1.000 between actual scf density residual
  and density convergence criterion sc_accuracy_rho below which sc_init_iter
  takes no effect.
 * No s.c.f. convergence criteria (sc_accuracy_*) were provided in control.in.
 * The run will proceed with a reasonable default guess, but please check whether.
 * the s.c.f. cycles seem to take too much or too little time.
  Geometry relaxation not requested: no relaxation will be performed.
 * Notice: The s.c.f. convergence criterion sc_accuracy_rho was not provided.
 * We used to stop in this case, and ask the user to provide reasonable
 * scf convergence criteria. However, this led some users to employ criteria
 * that led to extremely long run times, e.g., for simple relaxation.
 * We now preset a default value for sc_accuracy_rho if it is not set.
 * You may still wish to check if this setting is too tight or too loose for your needs.
 * Based on n_atoms and forces and force-correction status, FHI-aims chose sc_accuracy_rho =  0.391918E-04 .
  No accuracy limit for integral partition fn. given. Defaulting to  0.1000E-14.
  No threshold value for u(r) in integrations given. Defaulting to  0.1000E-05.
  No occupation type (smearing scheme) given. Defaulting to Gaussian broadening, width =  0.1000E-01 eV.
  The width will be adjusted in iteration number     2 of the first full s.c.f. cycle only.
  S.C.F. convergence parameters will be adjusted in iteration number     2 of the first full s.c.f. cycle only.
  No accuracy for occupation numbers given. Defaulting to  0.1000E-12.
  No threshold value for occupation numbers given. Defaulting to  0.0000E+00.
  No accuracy for fermi level given. Defaulting to  0.1000E-19.
  Maximum # of iterations to find E_F not set. Defaulting to  200.
  Preferred method for the eigenvalue solver ('KS_method') not specified in 'control.in'.
  Calling BLACS routine to test compilation state
  Since ScaLAPACK support is enabled, defaulting to ELPA (via ELSI).
  Will not use alltoall communication since running on < 1024 CPUs.
  Threshold for basis singularities not set.
  Default threshold for basis singularities:  0.1000E-04
  partition_type (choice of integration weights) for integrals was not specified.
  | Using a version of the partition function of Stratmann and coworkers ('stratmann_sparse').
  | At each grid point, the set of atoms used to build the partition table is smoothly restricted to
  | only those atoms whose free-atom density would be non-zero at that grid point.
  Partitioning for Hartree potential was not defined. Using partition_type for integrals.
  | Adjusted default value of keyword multip_moments_threshold to:       0.10000000E-11
  | This value may affect high angular momentum components of the Hartree potential in periodic systems.
  Angular momentum expansion for Kerker preconditioner not set explicitly.
  | Using default value of   0
  No explicit requirement for turning off preconditioner.
  | By default, it will be turned off when the charge convergence reaches
  | sc_accuracy_rho  =   0.391918E-04
  No special mixing parameter while Kerker preconditioner is on.
  Using default: charge_mix_param =     0.7500.
  Threshold for auxiliary basis singularities not set.
  Default threshold for auxiliary basis singularities:  0.1000E-04
  No q(lm)/r^(l+1) cutoff set for long-range Hartree potential.
  | Using default value of  0.100000E-09 .
  | Verify using the multipole_threshold keyword.
  Defaulting to new monopole extrapolation.
  Density update method: automatic selection selected.
  Using density matrix based charge density update.
  Using density matrix based charge density update.
  Using packed matrix style: index .
  Defaulting to use time-reversal symmetry for k-point grid.
  Charge integration errors on the 3D integration grid will be compensated
  by explicit normalization and distribution of residual charges.
  Use the "compensate_multipole_errors" flag to change this behaviour.
  Default to 1D ("use_logsbt") integrations for auxiliary 2-center integrals.
  Default onset of logarithmic r-grid for SBT is -38.000000000000
  Default onset of logarithmic k-grid for SBT is -25.000000000000
  Default range of logarithmic r- and k-grid for SBT is  45.000000000000
  Default number of logarithmic r- and k-grid for SBT is   4096
  Default of use_2d_corr is to use the efficient 2D distribution where possible
 
  Consistency checks for the contents of geometry.in are next.
 

  Range separation radius for Ewald summation (hartree_convergence_parameter):      2.91768261 bohr.
  Number of empty states per atom not set in control.in .
  | Since you are using a method that relies on the unoccupied spectrum
  | (MP2,GW,RPA et al.), will use the full Hamiltonian size (see below)
  | as the max. possible number of states (occupied plus empty).

  Structure-dependent array size parameters: 
  | Maximum number of distinct radial functions  :        9
  | Maximum number of basis functions            :     1440
  | Number of Kohn-Sham states (occupied + empty):     1440
------------------------------------------------------------
CUDA runtime version: 11060
CUDA driver version: 11060
  Initializing GPUs...

  Number of GPUs available to MPI task         0 :   1
  Number of GPUs available to MPI task         1 :   1
  Number of GPUs available to MPI task         2 :   1
  Number of GPUs available to MPI task         3 :   1
  Number of GPUs available to MPI task         4 :   1
  Number of GPUs available to MPI task         5 :   1
  Number of GPUs available to MPI task         6 :   1
  Number of GPUs available to MPI task         7 :   1
  Number of GPUs available to MPI task         8 :   1
  Number of GPUs available to MPI task         9 :   1
  Number of GPUs available to MPI task        10 :   1
  Number of GPUs available to MPI task        11 :   1
  Number of GPUs available to MPI task        12 :   1
  Number of GPUs available to MPI task        13 :   1
  Number of GPUs available to MPI task        14 :   1
  Number of GPUs available to MPI task        15 :   1
  Number of GPUs available to MPI task        16 :   1
  Number of GPUs available to MPI task        17 :   1

  | MPI task         0, GPU activated = T, Device Name = NVIDIA A100-SXM4-80GB
  | MPI task         1, GPU activated = T, Device Name = NVIDIA A100-SXM4-80GB
  | MPI task         2, GPU activated = T, Device Name = NVIDIA A100-SXM4-80GB
  | MPI task         3, GPU activated = T, Device Name = NVIDIA A100-SXM4-80GB
  | MPI task         4, GPU activated = T, Device Name = NVIDIA A100-SXM4-80GB
  | MPI task         5, GPU activated = T, Device Name = NVIDIA A100-SXM4-80GB
  | MPI task         6, GPU activated = T, Device Name = NVIDIA A100-SXM4-80GB
  | MPI task         7, GPU activated = T, Device Name = NVIDIA A100-SXM4-80GB
  | MPI task         8, GPU activated = T, Device Name = NVIDIA A100-SXM4-80GB
  | MPI task         9, GPU activated = T, Device Name = NVIDIA A100-SXM4-80GB
  | MPI task        10, GPU activated = T, Device Name = NVIDIA A100-SXM4-80GB
  | MPI task        11, GPU activated = T, Device Name = NVIDIA A100-SXM4-80GB
  | MPI task        12, GPU activated = T, Device Name = NVIDIA A100-SXM4-80GB
  | MPI task        13, GPU activated = T, Device Name = NVIDIA A100-SXM4-80GB
  | MPI task        14, GPU activated = T, Device Name = NVIDIA A100-SXM4-80GB
  | MPI task        15, GPU activated = T, Device Name = NVIDIA A100-SXM4-80GB
  | MPI task        16, GPU activated = T, Device Name = NVIDIA A100-SXM4-80GB
  | MPI task        17, GPU activated = T, Device Name = NVIDIA A100-SXM4-80GB

------------------------------------------------------------
          Preparing all fixed parts of the calculation.
------------------------------------------------------------
  Determining machine precision:
    2.225073858507201E-308
  Setting up grids for atomic and cluster calculations.

  Creating wave function, potential, and density for free atoms.
  Runtime choices for atomic solver:
  | atomic solver xc        : PW-LDA
  | compute density gradient: 0
  | compute kinetic density : F

  Species: H

  List of occupied orbitals and eigenvalues:
    n    l              occ      energy [Ha]    energy [eV]
    1    0           1.0000        -0.232375        -6.3233


  Species: C

  List of occupied orbitals and eigenvalues:
    n    l              occ      energy [Ha]    energy [eV]
    1    0           2.0000        -9.944615      -270.6068
    2    0           2.0000        -0.498807       -13.5732
    2    1           2.0000        -0.196968        -5.3598


  Adding cutoff potential to free-atom effective potential.
  Creating fixed part of basis set: Ionic, confined, hydrogenic.
 
  H                    hydrogenic:
 
  List of hydrogenic basis orbitals: 
    n    l      effective z      eigenvalue [eV]  inner max. [A]     outer max. [A]     outer radius [A]   
    2    0         2.100000       -14.9728           0.193243           1.317208           4.583499
    2    1         3.500000       -41.6669           0.602369           0.602369           3.723403
 
 
  C                    hydrogenic:
 
  List of hydrogenic basis orbitals: 
    n    l      effective z      eigenvalue [eV]  inner max. [A]     outer max. [A]     outer radius [A]   
    2    1         1.700000        -9.7616           1.230570           1.230570           4.607917
    3    2         6.000000       -54.4224           0.792453           0.792453           3.883070
    2    0         4.900000       -81.6679           0.082559           0.562749           3.078220
 
  Creating atomic-like basis functions for current effective potential.

  Species H                   :

  List of atomic basis orbitals and eigenvalues:
    n    l      energy [Ha]    energy [eV]    outer radius [A]
    1    0        -0.232375        -6.3233       4.527807


  Species C                   :

  List of atomic basis orbitals and eigenvalues:
    n    l      energy [Ha]    energy [eV]    outer radius [A]
    1    0        -9.944615      -270.6068       1.934409
    2    0        -0.498807       -13.5732       4.496620
    2    1        -0.196968        -5.3598       4.551928

  Assembling full basis from fixed parts.
  | Species H :   atomic orbital   1 s accepted.
  | Species H :    hydro orbital   2 s accepted.
  | Species H :    hydro orbital   2 p accepted.
  | Species C :   atomic orbital   1 s accepted.
  | Species C :    hydro orbital   2 s accepted.
  | Species C :   atomic orbital   2 s accepted.
  | Species C :   atomic orbital   2 p accepted.
  | Species C :    hydro orbital   2 p accepted.
  | Species C :    hydro orbital   3 d accepted.
 
  Basis size parameters after reduction:
  | Total number of radial functions:        9
  | Total number of basis functions :     1440
 
  Per-task memory consumption for arrays in subroutine allocate_ext:
  |           2.242384MB.
  Testing on-site integration grid accuracy.
  |  Species  Function  <phi|h_atom|phi> (log., in eV)  <phi|h_atom|phi> (rad., in eV)
           1        1                 -6.3245358373                 -6.3232436907
           1        2                 14.1326137532                 14.1384481100
           1        3                 25.3627025200                 25.3628451197
           2        4               -270.6067544938               -270.6067222788
           2        5                -10.5634280949                -10.5635685736
           2        6                 16.2089822398                 16.2052121796
           2        7                 -5.3613872565                 -5.3627872378
           2        8                  8.5292058327                  8.5051734780
           2        9                 27.4884461005                 27.4884542459

  Preparing densities etc. for the partition functions (integrals / Hartree potential).

  Preparations completed.
  max(cpu_time)          :      0.073 s.
  Wall clock time (cpu1) :      0.066 s.
------------------------------------------------------------

  Initializing index lists of integration centers etc. from given atomic structure:
  Mapping all atomic coordinates to central unit cell.

  Initializing the k-points
  Using symmetry for reducing the k-points
  | k-points reduced from:        2 to        2
  | Number of k-points                             :         2
  | Consuming          0 KiB for k_phase_exx.
  The eigenvectors in the calculations are REAL.
  | Number of basis functions in the Hamiltonian integrals :      7995
  | Number of basis functions in a single unit cell        :      1440
  | Number of centers in hartree potential         :      3353
  | Number of centers in hartree multipole         :      2572
  | Number of centers in electron density summation:      2010
  | Number of centers in basis integrals           :      2133
  | Number of centers in integrals                 :       963
  | Number of centers in hamiltonian               :      2017
  | Consuming          1 KiB for k_phase.
  | Number of super-cells (origin) [n_cells]                     :         175
  | Number of super-cells (after PM_index) [n_cells]             :          40
  | Number of super-cells in hamiltonian [n_cells_in_hamiltonian]:          40
  | Size of matrix packed + index [n_hamiltonian_matrix_size] :     1932190
  | Size of matrix packed + index (no_symmetry):     3861563

------------------------------------------------------------
          Begin self-consistency loop: Initialization.

          Date     :  20230119, Time     :  193657.143
------------------------------------------------------------
  | Estimated reciprocal-space cutoff momentum G_max:         3.24344278 bohr^-1 .
  | Reciprocal lattice points for long-range Hartree potential:    5310
  Using simple linear distribution as default method for k-point parallelism.
  * Using 18 tasks for Scalapack Eigenvalue solver.
  Detailed listing of tasks and assigned k-points:
   Task     0 k-point     1 on adag012
   Task     1 k-point     1 on adag012
   Task     2 k-point     1 on adag012
   Task     3 k-point     1 on adag012
   Task     4 k-point     1 on adag012
   Task     5 k-point     1 on adag012
   Task     6 k-point     1 on adag012
   Task     7 k-point     1 on adag012
   Task     8 k-point     1 on adag012
   Task     9 k-point     2 on adag012
   Task    10 k-point     2 on adag012
   Task    11 k-point     2 on adag012
   Task    12 k-point     2 on adag012
   Task    13 k-point     2 on adag012
   Task    14 k-point     2 on adag012
   Task    15 k-point     2 on adag012
   Task    16 k-point     2 on adag012
   Task    17 k-point     2 on adag012
  K-point:     1 Tasks:     9 split into      3 X      3 BLACS grid
  Calculating block size based on n_basis =         1440  max_nprow =            3  max_npcol =            3
  ScaLAPACK block size set to:           16
  Allocating        1.758 MB for ovlp
  Allocating        1.758 MB for ham
  Allocating        1.758 MB for eigenvec
  Required Scalapack workspace - INTEGER:            1  REAL:             1
  Partitioning the integration grid into batches with parallel hashing+maxmin method.
  | Number of batches:     5367
  | Maximal batch size:     200
  | Minimal batch size:      99
  | Average batch size:     142.322
  | Standard deviation of batch sizes:      32.556

  Integration load balanced across    18 MPI tasks.
  Work distribution over tasks is as follows:
  Task     0 has      42449 integration points.
  Task     1 has      42344 integration points.
  Task     2 has      42450 integration points.
  Task     3 has      42441 integration points.
  Task     4 has      42417 integration points.
  Task     5 has      42493 integration points.
  Task     6 has      42521 integration points.
  Task     7 has      42480 integration points.
  Task     8 has      42519 integration points.
  Task     9 has      42335 integration points.
  Task    10 has      42445 integration points.
  Task    11 has      42529 integration points.
  Task    12 has      42380 integration points.
  Task    13 has      42382 integration points.
  Task    14 has      42347 integration points.
  Task    15 has      42415 integration points.
  Task    16 has      42441 integration points.
  Task    17 has      42452 integration points.
  Initializing partition tables, free-atom densities, potentials, etc. across the integration grid (initialize_grid_storage).
  | initialize_grid_storage: Actual outermost partition radius vs. multipole_radius_free
  | (-- VB: in principle, multipole_radius_free should be larger, hence this output)
  | Species        1: Confinement radius =              4.999999999999999 AA, multipole_radius_free =              5.054417573612229 AA.
  | Species        1: outer_partition_radius set to              5.054417573612229 AA .
  | Species        2: Confinement radius =              4.999999999999999 AA, multipole_radius_free =              5.019602836301480 AA.
  | Species        2: outer_partition_radius set to              5.019602836301480 AA .
  | The sparse table of interatomic distances needs       7659.40 kbyte instead of     36397.51 kbyte of memory.
  | Net number of integration points:   763840
  | of which are non-zero points    :   605047
  | Numerical average free-atom electrostatic potential    :     -8.61473478 eV
  Renormalizing the initial density to the exact electron count on the 3D integration grid.
  | Initial density: Formal number of electrons (from input files) :     544.0000000000
  | Integrated number of electrons on 3D grid     :     544.0006934473
  | Charge integration error                      :       0.0006934473
  | Normalization factor for density and gradient :       0.9999987253
  Renormalizing the free-atom superposition density to the exact electron count on the 3D integration grid.
  | Formal number of electrons (from input files) :     544.0000000000
  | Integrated number of electrons on 3D grid     :     544.0006934473
  | Charge integration error                      :       0.0006934473
  | Normalization factor for density and gradient :       0.9999987253
  Obtaining max. number of non-zero basis functions in each batch (get_n_compute_maxes).
  | Maximal number of non-zero basis functions:      558 in task     0
  | Maximal number of non-zero basis functions:      536 in task     1
  | Maximal number of non-zero basis functions:      532 in task     2
  | Maximal number of non-zero basis functions:      551 in task     3
  | Maximal number of non-zero basis functions:      540 in task     4
  | Maximal number of non-zero basis functions:      544 in task     5
  | Maximal number of non-zero basis functions:      539 in task     6
  | Maximal number of non-zero basis functions:      540 in task     7
  | Maximal number of non-zero basis functions:      544 in task     8
  | Maximal number of non-zero basis functions:      536 in task     9
  | Maximal number of non-zero basis functions:      539 in task    10
  | Maximal number of non-zero basis functions:      536 in task    11
  | Maximal number of non-zero basis functions:      535 in task    12
  | Maximal number of non-zero basis functions:      532 in task    13
  | Maximal number of non-zero basis functions:      543 in task    14
  | Maximal number of non-zero basis functions:      541 in task    15
  | Maximal number of non-zero basis functions:      533 in task    16
  | Maximal number of non-zero basis functions:      552 in task    17
  Integrating Hamiltonian matrix: batch-based integration.
  GPU acceleration will be used when integrating the Hamiltonian matrix.
  Reporting GPU memory usage by myid 0.  Note that it is likely not the only MPI task binding to its GPU!
  Allocating        2.491 MB on GPU for hamiltonian_shell
  Allocating        0.893 MB on GPU for wave
  Allocating        0.002 MB on GPU for partition
  Allocating        0.893 MB on GPU for h_times_psi
  Time summed over all CPUs for integration: real work       21.822 s, elapsed       22.102 s
  Deallocating memory used on GPU for Hamiltonian integration.
  Integrating overlap matrix.
  Time summed over all CPUs for integration: real work       18.640 s, elapsed       18.850 s
  Deallocating overlap matrix.

  Updating Kohn-Sham eigenvalues and eigenvectors using ELSI and the ELPA eigensolver.
  Singularity check in k-point 1 (analysis for other k-points may follow below):
  Overlap matrix is not singular
  | Lowest and highest eigenvalues :  0.7916E-03,  0.8243E+01
  Finished singularity check of overlap matrix
  | Time :     0.095 s
  Starting ELPA eigensolver
  Finished Cholesky decomposition
  | Time :     0.018 s
  Finished transformation to standard eigenproblem
  | Time :     0.020 s
  Finished solving standard eigenproblem
  | Time :     0.205 s
  Finished back-transformation of eigenvectors
  | Time :     0.015 s

  Obtaining occupation numbers and electronic chemical potential using ELSI.
  | Note that, for insulating systems, the printed 'chemical potential' value is not uniquely defined.
  | It can be anywhere in the energy gap, as long as it correctly separates occupied and unoccupied states.
  | In systems with a gap, the physically relevant chemical potential is the VBM or HOMO.

  | Chemical potential (Fermi level):    -8.27804799 eV
  Writing Kohn-Sham eigenvalues.
  K-point:       1 at    0.000000    0.000000    0.000000 (in units of recip. lattice)

  State    Occupation    Eigenvalue [Ha]    Eigenvalue [eV]
      1       2.00000         -10.072111         -274.07609
      2       2.00000         -10.071939         -274.07142
      3       2.00000         -10.070091         -274.02112
      4       2.00000         -10.069746         -274.01173
      5       2.00000         -10.069543         -274.00620
      6       2.00000         -10.069161         -273.99581
      7       2.00000         -10.068975         -273.99075
      8       2.00000         -10.068391         -273.97485
      9       2.00000         -10.067554         -273.95208
     10       2.00000         -10.067494         -273.95044
     11       2.00000         -10.067456         -273.94943
     12       2.00000         -10.067444         -273.94908
     13       2.00000         -10.066994         -273.93684
     14       2.00000         -10.066835         -273.93253
     15       2.00000         -10.066792         -273.93134
     16       2.00000         -10.066689         -273.92853
     17       2.00000         -10.066470         -273.92258
     18       2.00000         -10.066402         -273.92073
     19       2.00000         -10.066361         -273.91961
     20       2.00000         -10.065896         -273.90696
     21       2.00000         -10.065842         -273.90550
     22       2.00000         -10.065590         -273.89864
     23       2.00000         -10.064988         -273.88225
     24       2.00000         -10.064971         -273.88181
     25       2.00000         -10.064912         -273.88019
     26       2.00000         -10.064827         -273.87787
     27       2.00000         -10.064771         -273.87636
     28       2.00000         -10.064687         -273.87408
     29       2.00000         -10.064423         -273.86690
     30       2.00000         -10.064370         -273.86544
     31       2.00000         -10.064300         -273.86355
     32       2.00000         -10.064280         -273.86300
     33       2.00000         -10.064270         -273.86272
     34       2.00000         -10.063896         -273.85254
     35       2.00000         -10.063757         -273.84876
     36       2.00000         -10.063555         -273.84326
     37       2.00000         -10.063303         -273.83640
     38       2.00000         -10.063234         -273.83453
     39       2.00000         -10.062757         -273.82156
     40       2.00000         -10.062723         -273.82063
     41       2.00000         -10.062709         -273.82024
     42       2.00000         -10.062649         -273.81860
     43       2.00000         -10.062525         -273.81524
     44       2.00000         -10.062512         -273.81489
     45       2.00000         -10.061991         -273.80070
     46       2.00000         -10.061941         -273.79933
     47       2.00000         -10.061863         -273.79723
     48       2.00000         -10.061812         -273.79582
     49       2.00000         -10.061779         -273.79492
     50       2.00000         -10.061682         -273.79230
     51       2.00000         -10.061631         -273.79091
     52       2.00000         -10.061562         -273.78902
     53       2.00000         -10.061480         -273.78681
     54       2.00000         -10.061455         -273.78613
     55       2.00000         -10.061284         -273.78146
     56       2.00000         -10.061184         -273.77874
     57       2.00000         -10.060721         -273.76615
     58       2.00000         -10.059943         -273.74498
     59       2.00000         -10.059890         -273.74353
     60       2.00000         -10.059829         -273.74187
     61       2.00000         -10.059564         -273.73466
     62       2.00000         -10.059286         -273.72710
     63       2.00000         -10.059230         -273.72557
     64       2.00000         -10.058674         -273.71045
     65       2.00000         -10.058452         -273.70439
     66       2.00000         -10.058290         -273.70000
     67       2.00000         -10.057784         -273.68622
     68       2.00000         -10.057619         -273.68175
     69       2.00000         -10.057607         -273.68141
     70       2.00000         -10.057596         -273.68110
     71       2.00000         -10.057523         -273.67913
     72       2.00000         -10.057489         -273.67821
     73       2.00000         -10.057119         -273.66814
[...]
  |    H      2     3.678162 A  1.011968E+04 A            0.556529 a.u.
  |    H      1     3.958095 A  1.721251E+06 A            0.841931 a.u.
  |    H      0     4.527807 A  3.866455E+12 A            0.581436 a.u.
  |    C      0     2.562483 A      2.562483 A        6.563029E-17 a.u.
  |    C      0     2.967371 A      2.967371 A        1.352164E-16 a.u.
  |    C      0     3.003870 A      3.003870 A        2.312640E-17 a.u.
  |    C      1     3.272245 A      3.272245 A       -3.835259E-17 a.u.
  |    C      0     3.312494 A      3.312494 A       -2.710381E-16 a.u.
  |    C      3     4.077671 A      4.077671 A       -1.683752E-15 a.u.
  |    C      3     4.077671 A      4.077671 A        1.412852E-15 a.u.
  |    C      1     4.496620 A      4.496620 A       -3.011059E-16 a.u.
  |    C      0     4.496620 A      4.551928 A        2.873903E-17 a.u.
  |    C      2     4.551928 A      4.551928 A       -4.610785E-16 a.u.
  |    C      2     4.551928 A      4.551928 A        7.440584E-16 a.u.
  |    C      2     4.551928 A      4.551928 A       -7.110458E-16 a.u.
  |    C      2     4.551928 A      4.551928 A       -1.935424E-16 a.u.
  |    C      0     4.551928 A      4.607917 A        2.067142E-16 a.u.
  |    C      0     4.551928 A      4.607917 A       -1.109786E-16 a.u.
  |    C      1     4.551928 A      4.607917 A       -9.951742E-17 a.u.
  |    C      1     4.551928 A      4.607917 A        1.937809E-16 a.u.
  |    C      1     4.607917 A      4.607917 A       -2.813308E-16 a.u.
  |    C      1     4.607917 A      4.607917 A       -7.330363E-17 a.u.
  |    C      2     4.607917 A      4.607917 A        1.318462E-15 a.u.
  |    C      2     4.607917 A      4.607917 A       -1.318397E-15 a.u.
  |    C      0     4.607917 A      4.664595 A        3.157826E-16 a.u.
  |    C      1     4.607917 A      4.664595 A        7.356967E-16 a.u.
  |    C      4     3.835889 A  2.962973E+02 A            4.379483 a.u.
  |    C      3     4.127827 A  1.725964E+03 A            9.005588 a.u.
  |    C      2     4.607917 A  2.608475E+04 A            9.531178 a.u.
  |    C      1     4.607917 A  2.736013E+06 A            2.127278 a.u.
  |    C      0     4.607917 A  4.399765E+12 A            0.661635 a.u.

  | Shrink_full_auxil_basis : there are       36  radial auxiliary wave functions
                            accepted and       7 rejected.
  | Shrink_full_auxil_basis : there are totally                8992 partial auxiliary wave functions.
 
  | Maximal number of product basis functions per thread :   512   512
 
  | Minimal total memory requirement for three-center overlap :      72.476 Gbs
  | Number of local auxiliary basis functions on task:      0   512
  | Number of local auxiliary basis functions on task:      1   512
  | Number of local auxiliary basis functions on task:      2   512
  | Number of local auxiliary basis functions on task:      3   512
  | Number of local auxiliary basis functions on task:      4   496
  | Number of local auxiliary basis functions on task:      5   496
  | Number of local auxiliary basis functions on task:      6   496
  | Number of local auxiliary basis functions on task:      7   496
  | Number of local auxiliary basis functions on task:      8   496
  | Number of local auxiliary basis functions on task:      9   496
  | Number of local auxiliary basis functions on task:     10   496
  | Number of local auxiliary basis functions on task:     11   496
  | Number of local auxiliary basis functions on task:     12   496
  | Number of local auxiliary basis functions on task:     13   496
  | Number of local auxiliary basis functions on task:     14   496
  | Number of local auxiliary basis functions on task:     15   496
  | Number of local auxiliary basis functions on task:     16   496
  | Number of local auxiliary basis functions on task:     17   496
  | 2D aux task distribution:      3 X      6
  | 2D block size (nb_aux_2d):     64
 
  Basis pair condensation :   1037520  -->     552288
 
 --------------------------------------------
  Constructing auxiliary basis (full product) ...
 
  Product basis:
  | charge radius: extent of product basis function
  | field radius: extent of its Coulomb potential
  | Species   l  charge radius    field radius  multipol momen
  |    H      1     3.910002 A      3.910002 A       -2.487223E-16 a.u.
  |    H      1     3.958095 A      3.958095 A       -2.441841E-16 a.u.
  |    H      0     4.527807 A      4.527807 A        1.268855E-16 a.u.
  |    H      0     4.527807 A      4.583499 A       -4.900954E-17 a.u.
  |    H      0     4.527807 A      4.583499 A        4.713786E-16 a.u.
  |    H      2     3.678162 A  1.011968E+04 A            0.556529 a.u.
  |    H      1     3.958095 A  1.721251E+06 A            0.841931 a.u.
  |    H      0     4.527807 A  3.866455E+12 A            0.581436 a.u.
  |    C      0     2.562483 A      2.562483 A        6.563029E-17 a.u.
  |    C      0     2.967371 A      2.967371 A        1.352164E-16 a.u.
  |    C      0     3.003870 A      3.003870 A        2.312640E-17 a.u.
  |    C      1     3.272245 A      3.272245 A       -3.835259E-17 a.u.
  |    C      0     3.312494 A      3.312494 A       -2.710381E-16 a.u.
  |    C      3     4.077671 A      4.077671 A       -1.683752E-15 a.u.
  |    C      3     4.077671 A      4.077671 A        1.412852E-15 a.u.
  |    C      1     4.496620 A      4.496620 A       -3.011059E-16 a.u.
  |    C      0     4.496620 A      4.551928 A        2.873903E-17 a.u.
  |    C      2     4.551928 A      4.551928 A       -4.610785E-16 a.u.
  |    C      2     4.551928 A      4.551928 A        7.440584E-16 a.u.
  |    C      2     4.551928 A      4.551928 A       -7.110458E-16 a.u.
  |    C      2     4.551928 A      4.551928 A       -1.935424E-16 a.u.
  |    C      0     4.551928 A      4.607917 A        2.067142E-16 a.u.
  |    C      0     4.551928 A      4.607917 A       -1.109786E-16 a.u.
  |    C      1     4.551928 A      4.607917 A       -9.951742E-17 a.u.
  |    C      1     4.551928 A      4.607917 A        1.937809E-16 a.u.
  |    C      1     4.607917 A      4.607917 A       -2.813308E-16 a.u.
  |    C      1     4.607917 A      4.607917 A       -7.330363E-17 a.u.
  |    C      2     4.607917 A      4.607917 A        1.318462E-15 a.u.
  |    C      2     4.607917 A      4.607917 A       -1.318397E-15 a.u.
  |    C      0     4.607917 A      4.664595 A        3.157826E-16 a.u.
  |    C      1     4.607917 A      4.664595 A        7.356967E-16 a.u.
  |    C      4     3.835889 A  2.962973E+02 A            4.379483 a.u.
  |    C      3     4.127827 A  1.725964E+03 A            9.005588 a.u.
  |    C      2     4.607917 A  2.608475E+04 A            9.531178 a.u.
  |    C      1     4.607917 A  2.736013E+06 A            2.127278 a.u.
  |    C      0     4.607917 A  4.399765E+12 A            0.661635 a.u.

  | Shrink_full_auxil_basis : there are       36  radial auxiliary wave functions
                            accepted and       7 rejected.
  | Shrink_full_auxil_basis : there are totally                8992 partial auxiliary wave functions.
 
  | Maximal number of product basis functions per thread :   512   512
 
  | Minimal total memory requirement for three-center overlap :      72.476 Gbs
  | Number of local auxiliary basis functions on task:      0   512
  | Number of local auxiliary basis functions on task:      1   512
  | Number of local auxiliary basis functions on task:      2   512
  | Number of local auxiliary basis functions on task:      3   512
  | Number of local auxiliary basis functions on task:      4   496
  | Number of local auxiliary basis functions on task:      5   496
  | Number of local auxiliary basis functions on task:      6   496
  | Number of local auxiliary basis functions on task:      7   496
  | Number of local auxiliary basis functions on task:      8   496
  | Number of local auxiliary basis functions on task:      9   496
  | Number of local auxiliary basis functions on task:     10   496
  | Number of local auxiliary basis functions on task:     11   496
  | Number of local auxiliary basis functions on task:     12   496
  | Number of local auxiliary basis functions on task:     13   496
  | Number of local auxiliary basis functions on task:     14   496
  | Number of local auxiliary basis functions on task:     15   496
  | Number of local auxiliary basis functions on task:     16   496
  | Number of local auxiliary basis functions on task:     17   496
  | 2D aux task distribution:      3 X      6
  | 2D block size (nb_aux_2d):     64
 
  Basis pair condensation :   1037520  -->     552288
  Allocating        0.069 MB for t_coeff
  Allocating        0.034 MB for basbas_idx
  Allocating        0.069 MB for wave
  Allocating        0.069 MB for total_wave
  Allocating        0.206 MB for wave_gradient
  Allocating        0.206 MB for total_wave_grad
 HERE1
 HERE2
  Deallocating        0.069 MB for t_coeff
  Deallocating        0.034 MB for basbas_idx
  Deallocating        0.069 MB for wave
  Deallocating        0.206 MB for wave_gradient
  Deallocating        0.206 MB for total_wave_grad
dP_dE (Bohr^3) at every cycle:--->
 (981.997722583573,0.000000000000000E+000) (-4.04427787904958,0.000000000000000E+000) (-462.404826626972,0.000000000000000E+000)
 (-4.07626517011584,0.000000000000000E+000) (1390.22352351421,0.000000000000000E+000) (-16.8588559304284,0.000000000000000E+000)
 (-462.553306010294,0.000000000000000E+000) (-16.8771033293848,0.000000000000000E+000) (1677.39411338660,0.000000000000000E+000)
DFPT polarizability (Bohr^3)        xx        yy        zz        xy        xz        yz
  | Polarizability:--->                       981.997722584                 1390.223523514                 1677.394113387                   -4.044277879                 -462.404826627                  -16.858855930

DFPT for dielectric_constant:--->  # PARSE DFPT_dielectric_tensor
               2.332549963108682            -0.005487998815669            -0.627473486437346
              -0.005531404887344             2.886503667338213            -0.022877107890884
              -0.627674969793384            -0.022901869222043             3.276188032321845

                                               :  max(cpu_time)    wall_clock(cpu1)
  | Time for  dielectric calculation            :        0.000 s           0.000 s
===========================================================================

------------------------------------------------------------------------------
  Final output of selected total energy values:

  The following output summarizes some interesting total energy values
  at the end of a run (AFTER all relaxation, molecular dynamics, etc.).

  | Total energy of the DFT / Hartree-Fock s.c.f. calculation      :         -83267.458721031 eV
  | Final zero-broadening corrected energy (caution - metals only) :         -83267.458721031 eV
  | For reference only, the value of 1 Hartree used in FHI-aims is :             27.211384500 eV
  | For reference only, the overall average (free atom contribution
  | + realspace contribution) of the electrostatic potential after
  | s.c.f. convergence is                                          :             -7.691444576 eV

  Before relying on these values, please be sure to understand exactly which
  total energy value is referred to by a given number. Different objects may
  all carry the same name 'total energy'. Definitions:

  Total energy of the DFT / Hartree-Fock s.c.f. calculation:
  | Note that this energy does not include ANY quantities calculated after the
  | s.c.f. cycle, in particular not ANY RPA, MP2, etc. many-body perturbation terms.

  Final zero-broadening corrected energy:
  | For metallic systems only, a broadening of the occupation numbers at the Fermi
  | level can be extrapolated back to zero broadening by an electron-gas inspired
  | formula. For all systems that are not real metals, this value can be
  | meaningless and should be avoided.

------------------------------------------------------------------------------
  Methods described in the following list of references were used in this FHI-aims run.
  If you publish the results, please make sure to cite these reference if they apply.
  FHI-aims is an academic code, and for our developers (often, Ph.D. students
  and postdocs), scientific credit in the community is essential.
  Thank you for helping us!

  For any use of FHI-aims, please cite:

    Volker Blum, Ralf Gehrke, Felix Hanke, Paula Havu, Ville Havu,
    Xinguo Ren, Karsten Reuter, and Matthias Scheffler
    'Ab initio molecular simulations with numeric atom-centered orbitals'
    Computer Physics Communications 180, 2175-2196 (2009)
    http://doi.org/10.1016/j.cpc.2009.06.022


  For Hartree-Fock, hybrid functionals, or many-body perturbation theory used in your run, please cite:

    Xinguo Ren, Patrick Rinke, Volker Blum, Juergen Wieferink, Alex Tkatchenko,
    Andrea Sanfilippo, Karsten Reuter, and Matthias Scheffler,
    'Resolution-of-identity approach to Hartree-Fock, hybrid density functionals,
    RPA, MP2, and GW with numeric atom-centered orbital basis functions'
    New Journal of Physics 14, 053020 (2012).
    http://doi.org/10.1088/1367-2630/14/5/053020


  The provided symmetry information was generated with SPGlib:

    Atsushi Togo, Yusuke Seto, Dimitar Pashov
    SPGlib 1.7.3 obtained from http://spglib.sourceforge.net
    Copyright (C) 2008 Atsushi Togo


  The DFPT (perturbation by an electric field) part of the code was used.
  Here is the corresponding reference:

    Honghui Shang, Nathaniel Raimbault, Mariana Rossi,
    Christian Carbogno, Patrick Rinke and Matthias Scheffler,
    'All-Electron, Real-Space Perturbation Theory for Homogeneous
    Electric Fields: Theory, Implementation, and Application within dft'
    New Journal of Physics, 20(7):073040, 2018


  The ELSI infrastructure was used in your run to solve the Kohn-Sham electronic structure.
  Please check out http://elsi-interchange.org to learn more.
  If scalability is important for your project, please acknowledge ELSI by citing:

    V. W-z. Yu, F. Corsetti, A. Garcia, W. P. Huhn, M. Jacquelin, W. Jia,
    B. Lange, L. Lin, J. Lu, W. Mi, A. Seifitokaldani, A. Vazquez-Mayagoitia,
    C. Yang, H. Yang, and V. Blum
    'ELSI: A unified software interface for Kohn-Sham electronic structure solvers'
    Computer Physics Communications 222, 267-285 (2018).
    http://doi.org/10.1016/j.cpc.2017.09.007


  For the real-space grid partitioning and parallelization used in this calculation, please cite:

    Ville Havu, Volker Blum, Paula Havu, and Matthias Scheffler,
    'Efficient O(N) integration for all-electron electronic structure calculation'
    'using numerically tabulated basis functions'
    Journal of Computational Physics 228, 8367-8379 (2009).
    http://doi.org/10.1016/j.jcp.2009.08.008


  The high-level electronic structure method used in your calculation
  employed our efficient localized resolution of identity for the Coulomb operator.
  Some calculations, especially large-scale hybrid density functional theory,
  are only possible thanks to this development. For this feature, please cite:

    Arvid Ihrig, Juergen Wieferink, Igor Ying Zhang, Matti Ropo, Xinguo Ren,
    Patrick Rinke, Matthias Scheffler, and Volker Blum,
    'Accurate localized resolution of identity approach for linear-scaling
    hybrid density functionals and for many-body perturbation theory'
    New Journal of Physics 117, 093020 (2015).
    http://doi.org/10.1088/1367-2630/17/9/093020

  Of course, there are many other important community references, e.g., those cited in the
  above references. Our list is limited to references that describe implementations in the
  FHI-aims code. The reason is purely practical (length of this list) - please credit others as well.

------------------------------------------------------------
          Leaving FHI-aims.
          Date     :  20230119, Time     :  200052.494

          Computational steps:
          | Number of self-consistency cycles          :           47
          | Number of SCF (re)initializations          :            1
          | Number of coupled perturbed self-consistency cycles          :            0
          | Number of CPSCF (re)initializations          :            0

          Detailed time accounting                     :  max(cpu_time)    wall_clock(cpu1)
          | Total time                                  :     1437.462 s        1445.560 s
          | GPU initialization                          :        2.109 s           9.042 s
          | Preparation time                            :        0.073 s           0.066 s
          | Boundary condition initalization            :        0.966 s           0.966 s
          | Grid partitioning                           :        1.290 s           1.290 s
          | Preloading free-atom quantities on grid     :        3.524 s           3.525 s
          | Free-atom superposition energy              :        0.463 s           0.463 s
          | Total time for integrations                 :       17.027 s          17.106 s
          | Product basis setup: Total time             :        0.000 s           0.000 s
          | Product basis: | 2-center integrations     :(       0.000 s)  (       0.000 s)
          | Product basis: | LVL 3-center & coefficient:(       0.000 s)  (       0.000 s)
          | Total time for solution of K.-S. equations  :        3.280 s           3.280 s
          | Total time for density update               :       11.893 s          12.009 s
          | Total time for mixing & preconditioning     :       12.442 s          12.445 s
          | Total time for Hartree multipole update     :        0.084 s           0.083 s
          | Total time for Hartree multipole sum        :       41.550 s          41.565 s
          | Total time for total energy evaluation      :        0.006 s           0.003 s
          | Total time first_order_DM                   :        2.139 s           2.137 s
          | Total time first_order_density              :      312.029 s         312.087 s
          | Total time first_order_potential            :      123.321 s         123.360 s
          | Total time first_order_H                    :      596.714 s         596.894 s
          | Total time solving of Sternheimer equations :        2.030 s           2.033 s
          | Total time for dielectric constant          :        0.000 s           0.000 s
          | Total time momentum matrix                  :        0.000 s           0.000 s

          GPU acceleration has been used for charge density update.
          GPU acceleration has been used for real-space Hamiltonian integration.
          Due to GPU usage, wall_clock(cpu1) will give a more reliable estimate for timings.

          Partial memory accounting:
          | Residual value for overall tracked memory usage across tasks:     1.234863 MB (should be 0.000000 MB)
          |
          | Largest tracked array allocation:
          |   Minimum:      103.190 MB (DFPT_pulay_mixing::initialize_pulay_mixing::X_in_diffs on task  0)
          |   Maximum:      103.190 MB (DFPT_pulay_mixing::initialize_pulay_mixing::X_in_diffs on task  0)
          |   Average:      103.190 MB
          |
          | Because the residual tracked memory usage was not zero, the peak value for overall
          | tracked memory usage was not output, as it is probably incorrect.  This is likely due
          | to a missing aims_deallocate statement in the source code, which should be otherwise
          | harmless.
          |
          Note:  These values currently only include a subset of arrays which are explicitly tracked.
          The "true" memory usage will be greater.

          Have a nice day.
------------------------------------------------------------
