------------------------------------------------------------
          Invoking FHI-aims ...

          When using FHI-aims, please cite the following reference:

            Volker Blum, Ralf Gehrke, Felix Hanke, Paula Havu,
            Ville Havu, Xinguo Ren, Karsten Reuter, and Matthias Scheffler,
            'Ab Initio Molecular Simulations with Numeric Atom-Centered Orbitals',
            Computer Physics Communications 180, 2175-2196 (2009)

          In addition, many other developments in FHI-aims are likely important for
          your particular application. A partial list of references is given at the end of
          this file. Thank you for giving credit to the authors of these developments.

          For any questions about FHI-aims, please visit our slack channel at

            https://fhi-aims.slack.com

          and our main development and support site at

            https://aims-git.rz-berlin.mpg.de .

          The latter site, in particular, has a wiki to collect information, as well
          as an issue tracker to log discussions, suggest improvements, and report issues
          or bugs. https://aims-git.rz-berlin.mpg.de is also the main development site
          of the project and all new and updated code versions can be obtained there.
          Please send an email to aims-coordinators@fhi-berlin.mpg.de and we will add
          you to these sites. They are for you and everyone is welcome there.

------------------------------------------------------------



  Date     :  20230119, Time     :  180114.287
  Time zero on CPU 1             :   0.448715000000000E+00  s.
  Internal wall clock time zero  :           443383274.287  s.

  FHI-aims created a unique identifier for this run for later identification
  aims_uuid : A1AD081E-1B4D-4B44-A35B-AC9BAD5DBB79

  Build configuration of the current instance of FHI-aims
  -------------------------------------------------------
  FHI-aims version      : 220829
  Commit number         : 9895fc21d
  CMake host system     : Linux-5.3.18-150300.59.68-default
  CMake version         : 3.17.0
  Fortran compiler      : /mpcdf/soft/SLE_15/packages/x86_64/intel_oneapi/2021.3/mpi/2021.3.0/bin/mpiifort (Intel) version 20.2.3.20210609
  Fortran compiler flags: -O3 -ip -fp-model precise
  C compiler            : /mpcdf/soft/SLE_15/packages/x86_64/intel/2021.3.0/bin/icc (Intel) version 20.2.3.20210609
  C compiler flags      : -O3 -ip -fp-model precise -std=gnu99
  CUDA compiler         : /mpcdf/soft/SLE_15/packages/x86_64/cuda/11.6.2/bin/nvcc
  CUDA compiler flags   : -O3 -DAdd_ -lcublas
  ELPA2 kernel          : AVX512
  Using MPI
  Using ScaLAPACK
  Using LibXC
  Using CUDA
  Using i-PI
  Using RLSY
  Linking against: /mpcdf/soft/SLE_15/packages/x86_64/cuda/11.6.2/lib64/libcublas.so
                   /mpcdf/soft/SLE_15/packages/x86_64/cuda/11.6.2/lib64/libcudart.so
                   /mpcdf/soft/SLE_15/packages/x86_64/intel_oneapi/2021.3/mkl/latest/lib/intel64/libmkl_intel_lp64.so
                   /mpcdf/soft/SLE_15/packages/x86_64/intel_oneapi/2021.3/mkl/latest/lib/intel64/libmkl_sequential.so
                   /mpcdf/soft/SLE_15/packages/x86_64/intel_oneapi/2021.3/mkl/latest/lib/intel64/libmkl_core.so
                   /mpcdf/soft/SLE_15/packages/x86_64/intel_oneapi/2021.3/mkl/latest/lib/intel64/libmkl_blacs_intelmpi_lp64.so
                   /mpcdf/soft/SLE_15/packages/x86_64/intel_oneapi/2021.3/mkl/latest/lib/intel64/libmkl_scalapack_lp64.so

  Using       18 parallel tasks.
  Task        0 on host adag012 reporting.
  Task        1 on host adag012 reporting.
  Task        2 on host adag012 reporting.
  Task        3 on host adag012 reporting.
  Task        4 on host adag012 reporting.
  Task        5 on host adag012 reporting.
  Task        6 on host adag012 reporting.
  Task        7 on host adag012 reporting.
  Task        8 on host adag012 reporting.
  Task        9 on host adag012 reporting.
  Task       10 on host adag012 reporting.
  Task       11 on host adag012 reporting.
  Task       12 on host adag012 reporting.
  Task       13 on host adag012 reporting.
  Task       14 on host adag012 reporting.
  Task       15 on host adag012 reporting.
  Task       16 on host adag012 reporting.
  Task       17 on host adag012 reporting.

  Performing system and environment tests:
  | Environment variable OMP_NUM_THREADS correctly set to 1.
  | Checking for ScaLAPACK...
  | Testing pdtran()...
  | All pdtran() tests passed.

  Obtaining array dimensions for all initial allocations:
  
  -----------------------------------------------------------------------
  Parsing control.in (first pass over file, find array dimensions only).
  The contents of control.in will be repeated verbatim below
  unless switched off by setting 'verbatim_writeout .false.' .
  in the first line of control.in .
  -----------------------------------------------------------------------
  
  #
  # Input for polarizability replays on generic oligoacene molecular crystals (light settings,  LDA+MBD).
  #
  #########################################################################################
  #
  #  Physical model
  #
    xc                 pw-lda
    spin               none
    relativistic       none
    charge             0.0
    k_grid 	     2 1 1
    DFPT dielectric
  #
  #  GPU acceleration
  #
  # Turns on GPU acceleration everywhere
    use_gpu
  
  # Turns OFF GPU acceleration of ELPA - may be necessary if GPU ELPA is slow
    elsi_elpa_gpu 0
  #
  #  Relaxation
  #
  #  relax_geometry trm 1E-3
  #  relax_unit_cell fixed_angles
  #
  #  SCF convergence        #
    charge_mix_param   0.75
    #sc_accuracy_rho 1E-4
  #
  # i-PI communication
  #
  compute_forces .false.
  # use_pimd_wrapper 130.183.223.27 26118
  #communicate_pimd_wrapper polarizability
  #output_level MD_light
  #
  # Output SALTED info
    ri_density_restart write
    ri_rho1 write
    ri_full_output .true.
  #  sc_accuracy_rho    1d-6
    default_prodbas_acc 1e-6
    default_max_l_prodbas 6
  #
  #
  ################################################################################
  #
  #  FHI-aims code project
  #  VB, Fritz-Haber Institut, 2009
  #
  #  Suggested "light" defaults for H atom (to be pasted into control.in file)
  #  Be sure to double-check any results obtained with these settings for post-processing,
  #  e.g., with the "tight" defaults and larger basis sets.
  #
  ################################################################################
    species        H
  #     global species definitions
      nucleus             1
      mass                1.00794
  #
      l_hartree           4
  #
      cut_pot             3.5  1.5  1.0
      basis_dep_cutoff    1e-4
  #
      radial_base         24 5.0
      radial_multiplier   1
      angular_grids       specified
        division   0.2421   50
        division   0.3822  110
        division   0.4799  194
        division   0.5341  302
  #      division   0.5626  434
  #      division   0.5922  590
  #      division   0.6542  770
  #      division   0.6868 1202
  #      outer_grid  770
        outer_grid  302
  ################################################################################
  #
  #  Definition of "minimal" basis
  #
  ################################################################################
  #     valence basis states
      valence      1  s   1.
  #     ion occupancy
      ion_occ      1  s   0.5
  ################################################################################
  #
  #  Suggested additional basis functions. For production calculations,
  #  uncomment them one after another (the most important basis functions are
  #  listed first).
  #
  #  Basis constructed for dimers: 0.5 A, 0.7 A, 1.0 A, 1.5 A, 2.5 A
  #
  ################################################################################
  #  "First tier" - improvements: -1014.90 meV to -62.69 meV
       hydro 2 s 2.1
       hydro 2 p 3.5
  #  "Second tier" - improvements: -12.89 meV to -1.83 meV
  #     hydro 1 s 0.85
  #     hydro 2 p 3.7
  #     hydro 2 s 1.2
  #     hydro 3 d 7
  #  "Third tier" - improvements: -0.25 meV to -0.12 meV
  #     hydro 4 f 11.2
  #     hydro 3 p 4.8
  #     hydro 4 d 9
  #     hydro 3 s 3.2
  ################################################################################
  ################################################################################
  #
  #  FHI-aims code project
  #  VB, Fritz-Haber Institut, 2009
  #
  #  Suggested "light" defaults for C atom (to be pasted into control.in file)
  #  Be sure to double-check any results obtained with these settings for post-processing,
  #  e.g., with the "tight" defaults and larger basis sets.
  #
  ################################################################################
    species        C
  #     global species definitions
      nucleus             6
      mass                12.0107
  #
      l_hartree           4
  #
      cut_pot             3.5  1.5  1.0
      basis_dep_cutoff    1e-4
  #
      radial_base         34 5.0
      radial_multiplier   1
      angular_grids specified
        division   0.3326   50
        division   0.5710  110
        division   0.7727  194
        division   0.8772  302
  #      division   0.9334  434
  #      division   0.9625  590
  #      division   0.9924  770
  #      division   1.0230  974
  #      division   1.4589 1202
  #     outer_grid  974
       outer_grid 302
  ################################################################################
  #
  #  Definition of "minimal" basis
  #
  ################################################################################
  #     valence basis states
      valence      2  s   2.
      valence      2  p   2.
  #     ion occupancy
      ion_occ      2  s   1.
      ion_occ      2  p   1.
  ################################################################################
  #
  #  Suggested additional basis functions. For production calculations,
  #  uncomment them one after another (the most important basis functions are
  #  listed first).
  #
  #  Constructed for dimers: 1.0 A, 1.25 A, 1.5 A, 2.0 A, 3.0 A
  #
  ################################################################################
  #  "First tier" - improvements: -1214.57 meV to -155.61 meV
       hydro 2 p 1.7
       hydro 3 d 6
       hydro 2 s 4.9
  #  "Second tier" - improvements: -67.75 meV to -5.23 meV
  #     hydro 4 f 9.8
  #     hydro 3 p 5.2
  #     hydro 3 s 4.3
  #     hydro 5 g 14.4
  #     hydro 3 d 6.2
  #  "Third tier" - improvements: -2.43 meV to -0.60 meV
  #     hydro 2 p 5.6
  #     hydro 2 s 1.4
  #     hydro 3 d 4.9
  #     hydro 4 f 11.2
  #  "Fourth tier" - improvements: -0.39 meV to -0.18 meV
  #     hydro 2 p 2.1
  #     hydro 5 g 16.4
  #     hydro 4 d 13.2
  #     hydro 3 s 13.6
  #     hydro 4 f 17.6
  #  Further basis functions - improvements: -0.08 meV and below
  #     hydro 3 s 2
  #     hydro 3 p 6
  #     hydro 4 d 20
  
  -----------------------------------------------------------------------
  Completed first pass over input file control.in .
  -----------------------------------------------------------------------
  
  
  -----------------------------------------------------------------------
  Parsing geometry.in (first pass over file, find array dimensions only).
  The contents of geometry.in will be repeated verbatim below
  unless switched off by setting 'verbatim_writeout .false.' .
  in the first line of geometry.in .
  -----------------------------------------------------------------------
  
  #=======================================================
  # FHI-aims file: /ada/ptmp/mpsd/alewis/naphthalene/qmdata/data/geoms/239.in
  # Created using the Atomic Simulation Environment (ASE)
  # Thu Jan 19 15:19:17 2023
  #=======================================================
  lattice_vector 8.1020000000000003 0.0000000000000000 0.0000000000000000
  lattice_vector 0.0000000000000000 11.8800000000000008 0.0000000000000000
  lattice_vector -9.7850918486534706 0.0000000000000000 14.2571119625755713
  atom -0.9821560000000000 0.2898970000000000 2.3324300000000000 C
  atom 0.2689240000000000 2.9948399999999999 4.8668399999999998 C
  atom 4.3541600000000003 6.0574100000000000 4.8941600000000003 C
  atom 3.1856300000000002 2.7580200000000001 2.3090500000000000 C
  atom -0.1758160000000000 1.1002700000000001 1.5507299999999999 C
  atom -0.5490699999999999 3.9039000000000001 5.5660699999999999 C
  atom 3.5534900000000000 5.1084300000000002 5.5538200000000000 C
  atom 3.8894600000000001 1.8733400000000000 1.4944500000000001 C
  atom 0.1979530000000000 0.6504799999999999 0.2699750000000000 C
  atom -0.9005420000000000 3.5969600000000002 6.9100999999999999 C
  atom 3.0649999999999999 5.3547799999999999 6.8555799999999998 C
  atom 4.2558400000000001 2.3003399999999998 0.1835120000000000 C
  atom -3.6947600000000000 1.5500900000000000 6.6011400000000000 C
  atom 3.1650999999999998 4.4677899999999999 0.5828390000000000 C
  atom 7.2368499999999996 4.3805500000000004 0.6797140000000000 C
  atom 0.3015230000000000 1.4691399999999999 6.7778099999999997 C
  atom -3.3675899999999999 1.1903200000000000 5.2957000000000001 C
  atom 2.8294800000000002 4.0471199999999996 1.8535299999999999 C
  atom 6.8885800000000001 4.7469700000000001 1.9483299999999999 C
  atom 0.6781420000000000 1.7653799999999999 5.4762899999999997 C
  atom -1.2659199999999999 0.6500850000000000 3.3114499999999998 H
  atom 0.5331530000000000 3.1887500000000002 3.8308399999999998 H
  atom 4.7353399999999999 5.8103999999999996 3.9394600000000000 H
  atom 2.8589899999999999 2.4940600000000002 3.3183699999999998 H
  atom 0.1767970000000000 2.0833599999999999 1.8824000000000001 H
  atom -0.8898350000000000 4.8103899999999999 5.0845399999999996 H
  atom 3.3031000000000001 4.1487499999999997 5.1039099999999999 H
  atom 4.2039600000000004 0.8624980000000000 1.8161799999999999 H
  atom -3.3936799999999998 2.5185399999999998 7.0432399999999999 H
  atom 2.8664499999999999 5.4394799999999996 0.2113190000000000 H
  atom 6.9758199999999997 3.4304299999999999 0.2916230000000000 H
  atom 0.6032100000000000 0.5196860000000000 7.2345400000000000 H
  atom -2.7775599999999998 1.8644499999999999 4.6695000000000002 H
  atom 2.2136300000000002 4.6819699999999997 2.4644900000000001 H
  atom 6.2826199999999996 4.0257500000000004 2.5082700000000000 H
  atom 1.2920000000000000 1.0375000000000001 4.9283099999999997 H
  atom -5.5397200000000000 0.1452300000000000 9.5580999999999996 C
  atom -4.7191900000000002 3.1607799999999999 11.8861000000000008 C
  atom -0.8352850000000001 5.7884599999999997 11.9488000000000003 C
  atom -1.6803800000000000 2.9799899999999999 9.5820000000000007 C
  atom -4.7466799999999996 0.9907820000000001 8.7918900000000004 C
  atom -5.5404099999999996 3.9674200000000002 12.6354000000000006 C
  atom -1.4488300000000001 4.8579900000000000 12.7655999999999992 C
  atom -0.9364320000000000 2.1031000000000000 8.8592700000000004 C
  atom -4.4412799999999999 0.6790510000000000 7.4383699999999999 C
  atom -5.8776299999999999 3.6105100000000001 13.9883000000000006 C
  atom -1.7724000000000000 5.2397200000000002 14.0874000000000006 C
  atom -0.4941300000000000 2.3765299999999998 7.5182700000000002 C
  atom -8.7592999999999996 1.4757700000000000 13.7240000000000002 C
  atom -1.7308699999999999 4.4858599999999997 7.6699099999999998 C
  atom 2.2957700000000001 4.3686900000000000 7.5405300000000004 C
  atom -4.7313499999999999 1.4667800000000000 13.6075999999999997 C
  atom -8.3223099999999999 1.0695600000000001 12.4763999999999999 C
  atom -2.1027100000000001 4.1987300000000003 8.9706299999999999 C
  atom 1.8681600000000000 4.6038399999999999 8.8303799999999999 C
  atom -4.3502900000000002 1.8779200000000000 12.3743999999999996 C
  atom -5.7664299999999997 0.3511530000000000 10.6171000000000006 H
  atom -4.4280299999999997 3.4554999999999998 10.8765999999999998 H
  atom -0.6660890000000000 5.5234699999999997 10.9053000000000004 H
  atom -1.9829600000000001 2.7329100000000000 10.5723000000000003 H
  atom -4.4281499999999996 1.9666900000000000 9.1308100000000003 H
  atom -5.8164699999999998 4.9690200000000004 12.2886000000000006 H
  atom -1.7901800000000001 3.8908900000000002 12.4032999999999998 H
  atom -0.6818370000000000 1.1529499999999999 9.3192000000000004 H
  atom -8.5136400000000005 2.4995099999999999 14.0785000000000000 H
  atom -2.0752600000000001 5.3807999999999998 7.1864200000000000 H
  atom 2.0096300000000000 3.4486300000000001 7.0397999999999996 H
  atom -4.4422300000000003 0.5008400000000000 14.0226000000000006 H
  atom -7.7072500000000002 1.7416700000000001 11.8577999999999992 H
  atom -2.7073700000000001 4.9188700000000001 9.5550499999999996 H
  atom 1.2796600000000000 3.9013300000000002 9.3695299999999992 H
  atom -3.7510900000000000 1.2458199999999999 11.7172999999999998 H
  atom -0.8723109999999999 6.0354999999999999 2.4392100000000001 C
  atom 0.1383870000000000 9.1520399999999995 4.7655700000000003 C
  atom 4.2579900000000004 11.8411000000000008 4.8067599999999997 C
  atom 3.1686100000000001 8.6346299999999996 2.4591500000000002 C
  atom -0.1169450000000000 6.9010400000000001 1.6439299999999999 C
  atom -0.5794340000000000 10.0183000000000000 5.5759600000000002 C
  atom 3.5460500000000001 10.9385999999999992 5.5944599999999998 C
  atom 3.9338199999999999 7.7669699999999997 1.7025900000000000 C
  atom 0.3100830000000000 6.5582900000000004 0.3247660000000000 C
  atom -0.8931720000000000 9.6333599999999997 6.9020200000000003 C
  atom 3.2108900000000000 11.2912999999999997 6.9268999999999998 C
  atom 4.3651499999999999 8.1622400000000006 0.3988190000000000 C
  atom -3.8398900000000000 7.4979800000000001 6.8619000000000003 C
  atom 3.1425500000000000 10.2937999999999992 0.6825080000000000 C
  atom 7.1037299999999997 10.4390999999999998 0.6462300000000000 C
  atom 0.3503110000000000 7.5119999999999996 6.5867599999999999 C
  atom -3.3747300000000000 7.2388700000000004 5.5608899999999997 C
  atom 2.7878400000000001 9.8901500000000002 1.9687500000000000 C
  atom 6.7343299999999999 10.8849000000000000 1.9202100000000000 C
  atom 0.5750870000000000 7.8861299999999996 5.2602200000000003 C
  atom -1.1592400000000000 6.4151699999999998 3.4159899999999999 H
  atom 0.3467130000000000 9.4353200000000008 3.7194699999999998 H
  atom 4.4224100000000002 11.5203000000000007 3.7441000000000000 H
  atom 2.7792300000000001 8.3721899999999998 3.4366800000000000 H
  atom 0.1060370000000000 7.9309399999999997 1.9918700000000000 H
  atom -0.9262800000000000 11.0165000000000006 5.3036000000000003 H
  atom 3.1199400000000002 10.0530000000000008 5.1492100000000001 H
  atom 4.2107799999999997 6.7663599999999997 2.1001799999999999 H
  atom -3.6046200000000002 8.4420800000000007 7.3719700000000001 H
  atom 2.8643399999999999 11.2829999999999995 0.3028100000000000 H
  atom 6.8094299999999999 9.4702300000000008 0.2773520000000000 H
  atom 0.7616410000000000 6.5935499999999996 7.0212899999999996 H
  atom -2.7695599999999998 7.9966799999999996 5.0648700000000000 H
  atom 2.1603100000000000 10.5349000000000004 2.5637300000000001 H
  atom 6.0935100000000002 10.2552000000000003 2.5570900000000001 H
  atom 1.2248699999999999 7.2710800000000004 4.6457600000000001 H
  atom -5.8815700000000000 5.7885700000000000 9.4970700000000008 C
  atom -4.5921300000000000 8.9972899999999996 12.0784000000000002 C
  atom -0.6389540000000000 11.6705000000000005 11.9703999999999997 C
  atom -1.6143600000000000 8.7512600000000003 9.5069800000000004 C
  atom -5.1396100000000002 6.7902399999999998 8.8778299999999994 C
  atom -5.4451499999999999 9.8202200000000008 12.8268000000000004 C
  atom -1.4961100000000001 10.8732000000000006 12.7323000000000004 C
  atom -0.8106620000000000 7.9407699999999997 8.7220899999999997 C
  atom -4.6776900000000001 6.5840699999999996 7.5428199999999999 C
  atom -5.8381800000000004 9.4282400000000006 14.1572999999999993 C
  atom -1.9111199999999999 11.2588000000000008 14.0257000000000005 C
  atom -0.4215470000000000 8.3599800000000002 7.4151999999999996 C
  atom -8.7672699999999999 7.4203400000000004 13.7184000000000008 C
  atom -1.6569300000000000 10.4415999999999993 7.7518300000000000 C
  atom 2.3479899999999998 10.4725999999999999 7.7280100000000003 C
  atom -4.5641200000000000 7.3449299999999997 13.8615999999999993 C
  atom -8.5033600000000007 7.0454999999999997 12.4169000000000000 C
  atom -2.0228799999999998 10.0205000000000002 9.0229099999999995 C
  atom 2.0468600000000001 10.8373000000000008 9.0049100000000006 C
  atom -4.1384699999999999 7.7763700000000000 12.6183999999999994 C
  atom -6.1664899999999996 5.8621499999999997 10.5480000000000000 H
  atom -4.2304199999999996 9.3140900000000002 11.0927000000000007 H
  atom -0.3280730000000000 11.3862000000000005 10.9611000000000001 H
  atom -1.9803400000000000 8.3232599999999994 10.4589999999999996 H
  atom -4.8334099999999998 7.6798200000000003 9.4027200000000004 H
  atom -5.7216699999999996 10.7691999999999997 12.4482999999999997 H
  atom -1.8125899999999999 9.9163200000000007 12.3670000000000009 H
  atom -0.4915050000000000 6.9129500000000004 8.9854900000000004 H
  atom -8.4774600000000007 8.4209300000000002 14.0470000000000006 H
  atom -1.9863500000000001 11.4268000000000001 7.4446300000000001 H
  atom 2.0186199999999999 9.5554699999999997 7.2435600000000004 H
  atom -4.2321400000000002 6.3723400000000003 14.2696000000000005 H
  atom -8.0369399999999995 7.7678900000000004 11.7577999999999996 H
  atom -2.6153499999999998 10.7006999999999994 9.6252399999999998 H
  atom 1.4305800000000000 10.1675000000000004 9.5981600000000000 H
  atom -3.4527600000000001 7.1505799999999997 12.0117999999999991 H
  
  -----------------------------------------------------------------------
  Completed first pass over input file geometry.in .
  -----------------------------------------------------------------------
  

  Basic array size parameters:
  | Number of species                 :        2
  | Number of atoms                   :      144
  | Number of lattice vectors         :        3
  | Max. basis fn. angular momentum   :        2
  | Max. atomic/ionic basis occupied n:        2
  | Max. number of basis fn. types    :        2
  | Max. radial fns per species/type  :        3
  | Max. logarithmic grid size        :     1277
  | Max. radial integration grid size :       34
  | Max. angular integration grid size:      302
  | Max. angular grid division number :        8
  | Radial grid for Hartree potential :     1277
  | Number of spin channels           :        1

------------------------------------------------------------
          Reading file control.in.
------------------------------------------------------------
  XC: Using Perdew-Wang parametrisation of Ceperley-Alder LDA.
  Spin treatment: No spin polarisation.
  Non-relativistic treatment of kinetic energy.
  Charge =   0.000000E+00: Neutral system requested explicitly.
  Found k-point grid:         2         1         1
  DFPT calculation will begin after the DFT/HF calculation.
  Charge density mixing - mixing parameter:     0.7500
  Forces will not be computed.
 
  Reading configuration options for species H                   .
  | Found nuclear charge :   1.0000
  | Found atomic mass :    1.00794000000000      amu
  | Found l_max for Hartree potential  :   4
  | Found cutoff potl. onset [A], width [A], scale factor :    3.50000    1.50000    1.00000
  | Threshold for basis-dependent cutoff potential is   0.100000E-03
  | Found data for basic radial integration grid :    24 points, outermost radius =    5.000 A
  | Found multiplier for basic radial grid :   1
  | Found angular grid specification: user-specified.
  | Specified grid contains     5 separate shells.
  | Check grid settings after all constraints further below.
  | Found free-atom valence shell :  1 s   1.000
  | No ionic wave fns used. Skipping ion_occ.
  | Found hydrogenic basis function :  2 s   2.100
  | Found hydrogenic basis function :  2 p   3.500
  Species H                   : Missing cutoff potential type.
  Defaulting to exp(1/x)/(1-x)^2 type cutoff potential.
  Species H : No 'logarithmic' tag. Using default grid for free atom:
  | Default logarithmic grid data [bohr] : 0.1000E-03 0.1000E+03 0.1012E+01
  Species H : On-site basis accuracy parameter (for Gram-Schmidt orthonormalisation) not specified.
  Using default value basis_acc =  0.1000000E-03.
  Species H                   : Using default innermost maximum threshold i_radial=  2 for radial functions.
  Species H                   : Default cutoff onset for free atom density etc. : 0.35000000E+01 AA.
  Species H                   : Basic radial grid will be enhanced according to radial_multiplier =   1, to contain    24 grid points.
 
  Reading configuration options for species C                   .
  | Found nuclear charge :   6.0000
  | Found atomic mass :    12.0107000000000      amu
  | Found l_max for Hartree potential  :   4
  | Found cutoff potl. onset [A], width [A], scale factor :    3.50000    1.50000    1.00000
  | Threshold for basis-dependent cutoff potential is   0.100000E-03
  | Found data for basic radial integration grid :    34 points, outermost radius =    5.000 A
  | Found multiplier for basic radial grid :   1
  | Found angular grid specification: user-specified.
  | Specified grid contains     5 separate shells.
  | Check grid settings after all constraints further below.
  | Found free-atom valence shell :  2 s   2.000
  | Found free-atom valence shell :  2 p   2.000
  | No ionic wave fns used. Skipping ion_occ.
  | No ionic wave fns used. Skipping ion_occ.
  | Found hydrogenic basis function :  2 p   1.700
  | Found hydrogenic basis function :  3 d   6.000
  | Found hydrogenic basis function :  2 s   4.900
  Species C                   : Missing cutoff potential type.
  Defaulting to exp(1/x)/(1-x)^2 type cutoff potential.
  Species C : No 'logarithmic' tag. Using default grid for free atom:
  | Default logarithmic grid data [bohr] : 0.1000E-03 0.1000E+03 0.1012E+01
  Species C : On-site basis accuracy parameter (for Gram-Schmidt orthonormalisation) not specified.
  Using default value basis_acc =  0.1000000E-03.
  Species C                   : Using default innermost maximum threshold i_radial=  2 for radial functions.
  Species C                   : Default cutoff onset for free atom density etc. : 0.35000000E+01 AA.
  Species C                   : Basic radial grid will be enhanced according to radial_multiplier =   1, to contain    34 grid points.
 
  Finished reading input file 'control.in'.
 
------------------------------------------------------------


------------------------------------------------------------
          Reading geometry description geometry.in.
------------------------------------------------------------
  | The smallest distance between any two atoms is         1.05724369 AA.
  | The first atom of this pair is atom number                      3 .
  | The second atom of this pair is atom number                    23 .
  | Wigner-Seitz cell of the first atom image           0     1     0 .
  | (The Wigner-Seitz cell of the second atom is 0 0 0  by definition.)

  Symmetry information by spglib:
  | Precision set to  0.1E-04
  | Number of Operations  : 1
  | Space group           : 1
  | International         : P1
  | Schoenflies           : C1^1
  Input structure read successfully.
  The structure contains      144 atoms,  and a total of        544.000 electrons.

  Input geometry:
  | Unit cell:
  |        8.10200000        0.00000000        0.00000000
  |        0.00000000       11.88000000        0.00000000
  |       -9.78509185        0.00000000       14.25711196
  | Atomic structure:
  |       Atom                x [A]            y [A]            z [A]
  |    1: Species C            -0.98215600        0.28989700        2.33243000
  |    2: Species C             0.26892400        2.99484000        4.86684000
  |    3: Species C             4.35416000        6.05741000        4.89416000
  |    4: Species C             3.18563000        2.75802000        2.30905000
  |    5: Species C            -0.17581600        1.10027000        1.55073000
  |    6: Species C            -0.54907000        3.90390000        5.56607000
  |    7: Species C             3.55349000        5.10843000        5.55382000
  |    8: Species C             3.88946000        1.87334000        1.49445000
  |    9: Species C             0.19795300        0.65048000        0.26997500
  |   10: Species C            -0.90054200        3.59696000        6.91010000
  |   11: Species C             3.06500000        5.35478000        6.85558000
  |   12: Species C             4.25584000        2.30034000        0.18351200
  |   13: Species C            -3.69476000        1.55009000        6.60114000
  |   14: Species C             3.16510000        4.46779000        0.58283900
  |   15: Species C             7.23685000        4.38055000        0.67971400
  |   16: Species C             0.30152300        1.46914000        6.77781000
  |   17: Species C            -3.36759000        1.19032000        5.29570000
  |   18: Species C             2.82948000        4.04712000        1.85353000
  |   19: Species C             6.88858000        4.74697000        1.94833000
  |   20: Species C             0.67814200        1.76538000        5.47629000
  |   21: Species H            -1.26592000        0.65008500        3.31145000
  |   22: Species H             0.53315300        3.18875000        3.83084000
  |   23: Species H             4.73534000        5.81040000        3.93946000
  |   24: Species H             2.85899000        2.49406000        3.31837000
  |   25: Species H             0.17679700        2.08336000        1.88240000
  |   26: Species H            -0.88983500        4.81039000        5.08454000
  |   27: Species H             3.30310000        4.14875000        5.10391000
  |   28: Species H             4.20396000        0.86249800        1.81618000
  |   29: Species H            -3.39368000        2.51854000        7.04324000
  |   30: Species H             2.86645000        5.43948000        0.21131900
  |   31: Species H             6.97582000        3.43043000        0.29162300
  |   32: Species H             0.60321000        0.51968600        7.23454000
  |   33: Species H            -2.77756000        1.86445000        4.66950000
  |   34: Species H             2.21363000        4.68197000        2.46449000
  |   35: Species H             6.28262000        4.02575000        2.50827000
  |   36: Species H             1.29200000        1.03750000        4.92831000
  |   37: Species C            -5.53972000        0.14523000        9.55810000
  |   38: Species C            -4.71919000        3.16078000       11.88610000
  |   39: Species C            -0.83528500        5.78846000       11.94880000
  |   40: Species C            -1.68038000        2.97999000        9.58200000
  |   41: Species C            -4.74668000        0.99078200        8.79189000
  |   42: Species C            -5.54041000        3.96742000       12.63540000
  |   43: Species C            -1.44883000        4.85799000       12.76560000
  |   44: Species C            -0.93643200        2.10310000        8.85927000
  |   45: Species C            -4.44128000        0.67905100        7.43837000
  |   46: Species C            -5.87763000        3.61051000       13.98830000
  |   47: Species C            -1.77240000        5.23972000       14.08740000
  |   48: Species C            -0.49413000        2.37653000        7.51827000
  |   49: Species C            -8.75930000        1.47577000       13.72400000
  |   50: Species C            -1.73087000        4.48586000        7.66991000
  |   51: Species C             2.29577000        4.36869000        7.54053000
  |   52: Species C            -4.73135000        1.46678000       13.60760000
  |   53: Species C            -8.32231000        1.06956000       12.47640000
  |   54: Species C            -2.10271000        4.19873000        8.97063000
  |   55: Species C             1.86816000        4.60384000        8.83038000
  |   56: Species C            -4.35029000        1.87792000       12.37440000
  |   57: Species H            -5.76643000        0.35115300       10.61710000
  |   58: Species H            -4.42803000        3.45550000       10.87660000
  |   59: Species H            -0.66608900        5.52347000       10.90530000
  |   60: Species H            -1.98296000        2.73291000       10.57230000
  |   61: Species H            -4.42815000        1.96669000        9.13081000
  |   62: Species H            -5.81647000        4.96902000       12.28860000
  |   63: Species H            -1.79018000        3.89089000       12.40330000
  |   64: Species H            -0.68183700        1.15295000        9.31920000
  |   65: Species H            -8.51364000        2.49951000       14.07850000
  |   66: Species H            -2.07526000        5.38080000        7.18642000
  |   67: Species H             2.00963000        3.44863000        7.03980000
  |   68: Species H            -4.44223000        0.50084000       14.02260000
  |   69: Species H            -7.70725000        1.74167000       11.85780000
  |   70: Species H            -2.70737000        4.91887000        9.55505000
  |   71: Species H             1.27966000        3.90133000        9.36953000
  |   72: Species H            -3.75109000        1.24582000       11.71730000
  |   73: Species C            -0.87231100        6.03550000        2.43921000
  |   74: Species C             0.13838700        9.15204000        4.76557000
  |   75: Species C             4.25799000       11.84110000        4.80676000
  |   76: Species C             3.16861000        8.63463000        2.45915000
  |   77: Species C            -0.11694500        6.90104000        1.64393000
  |   78: Species C            -0.57943400       10.01830000        5.57596000
  |   79: Species C             3.54605000       10.93860000        5.59446000
  |   80: Species C             3.93382000        7.76697000        1.70259000
  |   81: Species C             0.31008300        6.55829000        0.32476600
  |   82: Species C            -0.89317200        9.63336000        6.90202000
  |   83: Species C             3.21089000       11.29130000        6.92690000
  |   84: Species C             4.36515000        8.16224000        0.39881900
  |   85: Species C            -3.83989000        7.49798000        6.86190000
  |   86: Species C             3.14255000       10.29380000        0.68250800
  |   87: Species C             7.10373000       10.43910000        0.64623000
  |   88: Species C             0.35031100        7.51200000        6.58676000
  |   89: Species C            -3.37473000        7.23887000        5.56089000
  |   90: Species C             2.78784000        9.89015000        1.96875000
  |   91: Species C             6.73433000       10.88490000        1.92021000
  |   92: Species C             0.57508700        7.88613000        5.26022000
  |   93: Species H            -1.15924000        6.41517000        3.41599000
  |   94: Species H             0.34671300        9.43532000        3.71947000
  |   95: Species H             4.42241000       11.52030000        3.74410000
  |   96: Species H             2.77923000        8.37219000        3.43668000
  |   97: Species H             0.10603700        7.93094000        1.99187000
  |   98: Species H            -0.92628000       11.01650000        5.30360000
  |   99: Species H             3.11994000       10.05300000        5.14921000
  |  100: Species H             4.21078000        6.76636000        2.10018000
  |  101: Species H            -3.60462000        8.44208000        7.37197000
  |  102: Species H             2.86434000       11.28300000        0.30281000
  |  103: Species H             6.80943000        9.47023000        0.27735200
  |  104: Species H             0.76164100        6.59355000        7.02129000
  |  105: Species H            -2.76956000        7.99668000        5.06487000
  |  106: Species H             2.16031000       10.53490000        2.56373000
  |  107: Species H             6.09351000       10.25520000        2.55709000
  |  108: Species H             1.22487000        7.27108000        4.64576000
  |  109: Species C            -5.88157000        5.78857000        9.49707000
  |  110: Species C            -4.59213000        8.99729000       12.07840000
  |  111: Species C            -0.63895400       11.67050000       11.97040000
  |  112: Species C            -1.61436000        8.75126000        9.50698000
  |  113: Species C            -5.13961000        6.79024000        8.87783000
  |  114: Species C            -5.44515000        9.82022000       12.82680000
  |  115: Species C            -1.49611000       10.87320000       12.73230000
  |  116: Species C            -0.81066200        7.94077000        8.72209000
  |  117: Species C            -4.67769000        6.58407000        7.54282000
  |  118: Species C            -5.83818000        9.42824000       14.15730000
  |  119: Species C            -1.91112000       11.25880000       14.02570000
  |  120: Species C            -0.42154700        8.35998000        7.41520000
  |  121: Species C            -8.76727000        7.42034000       13.71840000
  |  122: Species C            -1.65693000       10.44160000        7.75183000
  |  123: Species C             2.34799000       10.47260000        7.72801000
  |  124: Species C            -4.56412000        7.34493000       13.86160000
  |  125: Species C            -8.50336000        7.04550000       12.41690000
  |  126: Species C            -2.02288000       10.02050000        9.02291000
  |  127: Species C             2.04686000       10.83730000        9.00491000
  |  128: Species C            -4.13847000        7.77637000       12.61840000
  |  129: Species H            -6.16649000        5.86215000       10.54800000
  |  130: Species H            -4.23042000        9.31409000       11.09270000
  |  131: Species H            -0.32807300       11.38620000       10.96110000
  |  132: Species H            -1.98034000        8.32326000       10.45900000
  |  133: Species H            -4.83341000        7.67982000        9.40272000
  |  134: Species H            -5.72167000       10.76920000       12.44830000
  |  135: Species H            -1.81259000        9.91632000       12.36700000
  |  136: Species H            -0.49150500        6.91295000        8.98549000
  |  137: Species H            -8.47746000        8.42093000       14.04700000
  |  138: Species H            -1.98635000       11.42680000        7.44463000
  |  139: Species H             2.01862000        9.55547000        7.24356000
  |  140: Species H            -4.23214000        6.37234000       14.26960000
  |  141: Species H            -8.03694000        7.76789000       11.75780000
  |  142: Species H            -2.61535000       10.70070000        9.62524000
  |  143: Species H             1.43058000       10.16750000        9.59816000
  |  144: Species H            -3.45276000        7.15058000       12.01180000

  Lattice parameters for 3D lattice (in Angstroms) :     8.102000   11.880000   17.292000
  Angle(s) between unit vectors (in degrees)       :    90.000000  124.463000   90.000000


  Quantities derived from the lattice vectors (in Angstrom^-1):
  | Reciprocal lattice vector 1:  0.775510  0.000000  0.532257
  | Reciprocal lattice vector 2:  0.000000  0.528888  0.000000
  | Reciprocal lattice vector 3: -0.000000  0.000000  0.440705
  | Unit cell volume                               :   0.137227E+04  Angstrom^3

  Fractional coordinates:
                         L1                L2                L3
       atom_frac         0.07635917        0.02440210        0.16359765  C
       atom_frac         0.44546841        0.25209091        0.34136226  C
       atom_frac         0.95200835        0.50988300        0.34327850  C
       atom_frac         0.58879309        0.23215657        0.16195777  C
       atom_frac         0.10966396        0.09261532        0.10876887  C
       atom_frac         0.40373908        0.32861111        0.39040656  C
       atom_frac         0.90906523        0.43000253        0.38954734  C
       atom_frac         0.60665845        0.15768855        0.10482137  C
       atom_frac         0.04730253        0.05475421        0.01893616  C
       atom_frac         0.47421265        0.30277441        0.48467740  C
       atom_frac         0.95904643        0.45073906        0.48085335  C
       atom_frac         0.54082818        0.19363131        0.01287161  C
       atom_frac         0.10316023        0.13047896        0.46300681  C
       atom_frac         0.44002965        0.37607660        0.04088058  C
       atom_frac         0.95079715        0.36873316        0.04767543  C
       atom_frac         0.61137265        0.12366498        0.47539853  C
       atom_frac         0.03295616        0.10019529        0.37144269  C
       atom_frac         0.50624714        0.34066667        0.13000740  C
       atom_frac         1.01527752        0.39957660        0.13665671  C
       atom_frac         0.54760396        0.14860101        0.38410935  C
       atom_frac         0.12426924        0.05472096        0.23226654  H
       atom_frac         0.39032037        0.26841330        0.26869677  H
       atom_frac         0.91818216        0.48909091        0.27631543  H
       atom_frac         0.63397788        0.20993771        0.23275191  H
       atom_frac         0.18128187        0.17536700        0.13203235  H
       atom_frac         0.32088870        0.40491498        0.35663183  H
       atom_frac         0.84004807        0.34922138        0.35799046  H
       atom_frac         0.67273017        0.07260084        0.12738765  H
       atom_frac         0.17777227        0.21199832        0.49401590  H
       atom_frac         0.37169646        0.45786869        0.01482201  H
       atom_frac         0.88570350        0.28875673        0.02045456  H
       atom_frac         0.68729894        0.04374461        0.50743376  H
       atom_frac         0.05273520        0.15694024        0.32752075  H
       atom_frac         0.48199023        0.39410522        0.17286039  H
       atom_frac         0.98791933        0.33886785        0.17593114  H
       atom_frac         0.57695012        0.08733165        0.34567380  H
       atom_frac         0.12593141        0.01222475        0.67040927  C
       atom_frac         0.42441420        0.26605892        0.83369620  C
       atom_frac         0.90910168        0.48724411        0.83809400  C
       atom_frac         0.60430012        0.25084091        0.67208562  C
       atom_frac         0.15890680        0.08339916        0.61666697  C
       atom_frac         0.38652818        0.33395791        0.88625242  C
       atom_frac         0.90256623        0.40892172        0.89538471  C
       atom_frac         0.63489952        0.17702862        0.62139303  C
       atom_frac         0.08194282        0.05715918        0.52173049  C
       atom_frac         0.45951222        0.30391498        0.98114541  C
       atom_frac         0.97460051        0.44105387        0.98809633  C
       atom_frac         0.57589343        0.20004461        0.52733471  C
       atom_frac         0.08144912        0.12422306        0.96260730  C
       atom_frac         0.43609278        0.37759764        0.53797081  C
       atom_frac         0.92212618        0.36773485        0.52889604  C
       atom_frac         0.56874376        0.12346633        0.95444295  C
       atom_frac         0.02969943        0.09003030        0.87510009  C
       atom_frac         0.50038357        0.35342845        0.62920387  C
       atom_frac         0.97861266        0.38752862        0.61936667  C
       atom_frac         0.51131067        0.15807407        0.86794577  C
       atom_frac         0.18765865        0.02955833        0.74468799  H
       atom_frac         0.37483500        0.29086700        0.76288943  H
       atom_frac         0.84158872        0.46493855        0.76490246  H
       atom_frac         0.65084334        0.23004293        0.74154570  H
       atom_frac         0.22693212        0.16554630        0.64043896  H
       atom_frac         0.32307725        0.41826768        0.86192772  H
       atom_frac         0.82974377        0.32751599        0.86997283  H
       atom_frac         0.70528448        0.09704966        0.65365272  H
       atom_frac         0.14180017        0.21039646        0.98747208  H
       atom_frac         0.35262895        0.45292929        0.50405861  H
       atom_frac         0.84439151        0.29028872        0.49377462  H
       atom_frac         0.63958394        0.04215825        0.98355123  H
       atom_frac         0.05321164        0.14660522        0.83171122  H
       atom_frac         0.47525956        0.41404630        0.67019534  H
       atom_frac         0.95164835        0.32839478        0.65718289  H
       atom_frac         0.52960396        0.10486700        0.82185649  H
       atom_frac         0.09896240        0.50803872        0.17108724  C
       atom_frac         0.42077801        0.77037374        0.33425914  C
       atom_frac         0.93273468        0.99672559        0.33714823  C
       atom_frac         0.59940753        0.72682071        0.17248584  C
       atom_frac         0.12482528        0.58089562        0.11530596  C
       atom_frac         0.40082916        0.84329125        0.39110025  C
       atom_frac         0.91158960        0.92075758        0.39239784  C
       atom_frac         0.62976544        0.65378535        0.11942040  C
       atom_frac         0.06578374        0.55204461        0.02277923  C
       atom_frac         0.47443784        0.81088889        0.48411067  C
       atom_frac         0.98309470        0.95044613        0.48585576  C
       atom_frac         0.57255883        0.68705724        0.02797334  C
       atom_frac         0.10733668        0.63114310        0.48129663  C
       atom_frac         0.44568947        0.86648148        0.04787141  C
       atom_frac         0.93153017        0.87871212        0.04532685  C
       atom_frac         0.60121029        0.63232323        0.46199820  C
       atom_frac         0.05453948        0.60933249        0.39004323  C
       atom_frac         0.51086810        0.83250421        0.13808898  C
       atom_frac         0.99385693        0.91623737        0.13468436  C
       atom_frac         0.51658070        0.66381566        0.36895411  C
       atom_frac         0.14629207        0.53999747        0.23959902  H
       atom_frac         0.35787447        0.79421886        0.26088523  H
       atom_frac         0.86300917        0.96972222        0.26261279  H
       atom_frac         0.63415559        0.70472980        0.24105022  H
       atom_frac         0.18182156        0.66758754        0.13971062  H
       atom_frac         0.33494728        0.92731481        0.37199680  H
       atom_frac         0.82127873        0.84621212        0.36116782  H
       atom_frac         0.69762994        0.56955892        0.14730753  H
       atom_frac         0.17958386        0.71061279        0.51707316  H
       atom_frac         0.37918634        0.94974747        0.02123922  H
       atom_frac         0.86395768        0.79715741        0.01945359  H
       atom_frac         0.68878882        0.55501263        0.49247632  H
       atom_frac         0.08721490        0.67312121        0.35525217  H
       atom_frac         0.48381588        0.88677609        0.17982113  H
       atom_frac         0.96871378        0.86323232        0.17935540  H
       atom_frac         0.54472934        0.61204377        0.32585562  H
       atom_frac         0.07856819        0.48725337        0.66612860  C
       atom_frac         0.45638672        0.75734764        0.84718420  C
       atom_frac         0.93516385        0.98236532        0.83960903  C
       atom_frac         0.60609369        0.73663805        0.66682369  C
       atom_frac         0.11768899        0.57156902        0.62269484  C
       atom_frac         0.41449951        0.82661785        0.89967730  C
       atom_frac         0.89390975        0.91525253        0.89304903  C
       atom_frac         0.63880215        0.66841498        0.61177117  C
       atom_frac         0.06161170        0.55421465        0.52905666  C
       atom_frac         0.47869759        0.79362290        0.99299915  C
       atom_frac         0.95225213        0.94771044        0.98376866  C
       atom_frac         0.57612089        0.70370202        0.52010534  C
       atom_frac         0.07999103        0.62460774        0.96221451  C
       atom_frac         0.45215847        0.87892256        0.54371671  C
       atom_frac         0.94445317        0.88153199        0.54204596  C
       atom_frac         0.61090100        0.61826010        0.97225862  C
       atom_frac         0.00231278        0.59305556        0.87092674  C
       atom_frac         0.51466539        0.84347643        0.63287081  C
       atom_frac         1.01545360        0.91223064        0.63160828  C
       atom_frac         0.55812438        0.65457660        0.88506003  C
       atom_frac         0.13242717        0.49344697        0.73984128  H
       atom_frac         0.41753137        0.78401431        0.77804678  H
       atom_frac         0.88803568        0.95843434        0.76881630  H
       atom_frac         0.64156893        0.70061111        0.73359878  H
       atom_frac         0.19994621        0.64644949        0.65951085  H
       atom_frac         0.34830645        0.90649832        0.87312915  H
       atom_frac         0.82390277        0.83470707        0.86742673  H
       atom_frac         0.70050747        0.58189815        0.63024616  H
       atom_frac         0.14359733        0.70883249        0.98526266  H
       atom_frac         0.38547608        0.96185185        0.52216957  H
       atom_frac         0.86276187        0.80433249        0.50806643  H
       atom_frac         0.68643826        0.53639226        1.00087592  H
       atom_frac         0.00404809        0.65386279        0.82469718  H
       atom_frac         0.49256313        0.90073232        0.67511850  H
       atom_frac         0.98964338        0.85585017        0.67321909  H
       atom_frac         0.59137319        0.60190067        0.84251285  H

 
  Finished reading input file 'geometry.in'.
 

 
  Consistency checks for stacksize environment parameter are next.
 
  | Maximum stacksize for task 0: unlimited
  | Maximum stacksize for task 1: unlimited
  | Maximum stacksize for task 2: unlimited
  | Maximum stacksize for task 3: unlimited
  | Maximum stacksize for task 4: unlimited
  | Maximum stacksize for task 5: unlimited
  | Maximum stacksize for task 6: unlimited
  | Maximum stacksize for task 7: unlimited
  | Maximum stacksize for task 8: unlimited
  | Maximum stacksize for task 9: unlimited
  | Maximum stacksize for task 10: unlimited
  | Maximum stacksize for task 11: unlimited
  | Maximum stacksize for task 12: unlimited
  | Maximum stacksize for task 13: unlimited
  | Maximum stacksize for task 14: unlimited
  | Maximum stacksize for task 15: unlimited
  | Maximum stacksize for task 16: unlimited
  | Maximum stacksize for task 17: unlimited
  | Current stacksize for task 0: unlimited
  | Current stacksize for task 1: unlimited
  | Current stacksize for task 2: unlimited
  | Current stacksize for task 3: unlimited
  | Current stacksize for task 4: unlimited
  | Current stacksize for task 5: unlimited
  | Current stacksize for task 6: unlimited
  | Current stacksize for task 7: unlimited
  | Current stacksize for task 8: unlimited
  | Current stacksize for task 9: unlimited
  | Current stacksize for task 10: unlimited
  | Current stacksize for task 11: unlimited
  | Current stacksize for task 12: unlimited
  | Current stacksize for task 13: unlimited
  | Current stacksize for task 14: unlimited
  | Current stacksize for task 15: unlimited
  | Current stacksize for task 16: unlimited
  | Current stacksize for task 17: unlimited
 
  Consistency checks for the contents of control.in are next.
 
  MPI_IN_PLACE appears to work with this MPI implementation.
  | Keeping use_mpi_in_place .true. (see manual).
  Explicit treatment of the Coulomb operator is needed, but the RI method is not specified.
  Coulomb operator: Defaulting to 'LVL fast' resolution of identity - RI_type = LVL_fast
  Species H: Using default value for prodbas_acc =   1.000000E-06.
  Species H: Using default value max_l_prodbas =     6.
  Species C: Using default value for prodbas_acc =   1.000000E-06.
  Species C: Using default value max_l_prodbas =     6.
  Target number of points in a grid batch is not set.  Since GPU acceleration is enabled, defaulting to  200
  Method for grid partitioning is not set. Defaulting to parallel hash+maxmin partitioning.
  Batch size limit is not set. Defaulting to    200
  By default, will store active basis functions for each batch.
  If in need of memory, prune_basis_once .false. can be used to disable this option.
  communication_type for Hartree potential was not specified.
  Defaulting to calc_hartree .
  Defaulting to Pulay charge density mixer.
  Pulay mixer: Number of relevant iterations not set.
  Defaulting to    8 iterations.
  Pulay mixer: Number of initial linear mixing iterations not set.
  Defaulting to    0 iterations.
  Work space size for distributed Hartree potential not set.
  Defaulting to   0.200000E+03 MB.
  Algorithm-dependent basis array size parameters:
  | n_max_pulay                         :        8
  Maximum number of self-consistency iterations not provided.
  Presetting  1000 iterations.
  Presetting      1001 iterations before the initial mixing cycle
  is restarted anyway using the sc_init_iter criterion / keyword.
  Presetting a factor      1.000 between actual scf density residual
  and density convergence criterion sc_accuracy_rho below which sc_init_iter
  takes no effect.
 * No s.c.f. convergence criteria (sc_accuracy_*) were provided in control.in.
 * The run will proceed with a reasonable default guess, but please check whether.
 * the s.c.f. cycles seem to take too much or too little time.
  Geometry relaxation not requested: no relaxation will be performed.
 * Notice: The s.c.f. convergence criterion sc_accuracy_rho was not provided.
 * We used to stop in this case, and ask the user to provide reasonable
 * scf convergence criteria. However, this led some users to employ criteria
 * that led to extremely long run times, e.g., for simple relaxation.
 * We now preset a default value for sc_accuracy_rho if it is not set.
 * You may still wish to check if this setting is too tight or too loose for your needs.
 * Based on n_atoms and forces and force-correction status, FHI-aims chose sc_accuracy_rho =  0.391918E-04 .
  No accuracy limit for integral partition fn. given. Defaulting to  0.1000E-14.
  No threshold value for u(r) in integrations given. Defaulting to  0.1000E-05.
  No occupation type (smearing scheme) given. Defaulting to Gaussian broadening, width =  0.1000E-01 eV.
  The width will be adjusted in iteration number     2 of the first full s.c.f. cycle only.
  S.C.F. convergence parameters will be adjusted in iteration number     2 of the first full s.c.f. cycle only.
  No accuracy for occupation numbers given. Defaulting to  0.1000E-12.
  No threshold value for occupation numbers given. Defaulting to  0.0000E+00.
  No accuracy for fermi level given. Defaulting to  0.1000E-19.
  Maximum # of iterations to find E_F not set. Defaulting to  200.
  Preferred method for the eigenvalue solver ('KS_method') not specified in 'control.in'.
  Calling BLACS routine to test compilation state
  Since ScaLAPACK support is enabled, defaulting to ELPA (via ELSI).
  Will not use alltoall communication since running on < 1024 CPUs.
  Threshold for basis singularities not set.
  Default threshold for basis singularities:  0.1000E-04
  partition_type (choice of integration weights) for integrals was not specified.
  | Using a version of the partition function of Stratmann and coworkers ('stratmann_sparse').
  | At each grid point, the set of atoms used to build the partition table is smoothly restricted to
  | only those atoms whose free-atom density would be non-zero at that grid point.
  Partitioning for Hartree potential was not defined. Using partition_type for integrals.
  | Adjusted default value of keyword multip_moments_threshold to:       0.10000000E-11
  | This value may affect high angular momentum components of the Hartree potential in periodic systems.
  Angular momentum expansion for Kerker preconditioner not set explicitly.
  | Using default value of   0
  No explicit requirement for turning off preconditioner.
  | By default, it will be turned off when the charge convergence reaches
  | sc_accuracy_rho  =   0.391918E-04
  No special mixing parameter while Kerker preconditioner is on.
  Using default: charge_mix_param =     0.7500.
  Threshold for auxiliary basis singularities not set.
  Default threshold for auxiliary basis singularities:  0.1000E-04
  No q(lm)/r^(l+1) cutoff set for long-range Hartree potential.
  | Using default value of  0.100000E-09 .
  | Verify using the multipole_threshold keyword.
  Defaulting to new monopole extrapolation.
  Density update method: automatic selection selected.
  Using density matrix based charge density update.
  Using density matrix based charge density update.
  Using packed matrix style: index .
  Defaulting to use time-reversal symmetry for k-point grid.
  Charge integration errors on the 3D integration grid will be compensated
  by explicit normalization and distribution of residual charges.
  Use the "compensate_multipole_errors" flag to change this behaviour.
  Default to 1D ("use_logsbt") integrations for auxiliary 2-center integrals.
  Default onset of logarithmic r-grid for SBT is -38.000000000000
  Default onset of logarithmic k-grid for SBT is -25.000000000000
  Default range of logarithmic r- and k-grid for SBT is  45.000000000000
  Default number of logarithmic r- and k-grid for SBT is   4096
  Default of use_2d_corr is to use the efficient 2D distribution where possible
 
  Consistency checks for the contents of geometry.in are next.
 

  Range separation radius for Ewald summation (hartree_convergence_parameter):      2.91768261 bohr.
  Number of empty states per atom not set in control.in .
  | Since you are using a method that relies on the unoccupied spectrum
  | (MP2,GW,RPA et al.), will use the full Hamiltonian size (see below)
  | as the max. possible number of states (occupied plus empty).

  Structure-dependent array size parameters: 
  | Maximum number of distinct radial functions  :        9
  | Maximum number of basis functions            :     1440
  | Number of Kohn-Sham states (occupied + empty):     1440
------------------------------------------------------------
CUDA runtime version: 11060
CUDA driver version: 11060
  Initializing GPUs...

  Number of GPUs available to MPI task         0 :   1
  Number of GPUs available to MPI task         1 :   1
  Number of GPUs available to MPI task         2 :   1
  Number of GPUs available to MPI task         3 :   1
  Number of GPUs available to MPI task         4 :   1
  Number of GPUs available to MPI task         5 :   1
  Number of GPUs available to MPI task         6 :   1
  Number of GPUs available to MPI task         7 :   1
  Number of GPUs available to MPI task         8 :   1
  Number of GPUs available to MPI task         9 :   1
  Number of GPUs available to MPI task        10 :   1
  Number of GPUs available to MPI task        11 :   1
  Number of GPUs available to MPI task        12 :   1
  Number of GPUs available to MPI task        13 :   1
  Number of GPUs available to MPI task        14 :   1
  Number of GPUs available to MPI task        15 :   1
  Number of GPUs available to MPI task        16 :   1
  Number of GPUs available to MPI task        17 :   1

  | MPI task         0, GPU activated = T, Device Name = NVIDIA A100-SXM4-80GB
  | MPI task         1, GPU activated = T, Device Name = NVIDIA A100-SXM4-80GB
  | MPI task         2, GPU activated = T, Device Name = NVIDIA A100-SXM4-80GB
  | MPI task         3, GPU activated = T, Device Name = NVIDIA A100-SXM4-80GB
  | MPI task         4, GPU activated = T, Device Name = NVIDIA A100-SXM4-80GB
  | MPI task         5, GPU activated = T, Device Name = NVIDIA A100-SXM4-80GB
  | MPI task         6, GPU activated = T, Device Name = NVIDIA A100-SXM4-80GB
  | MPI task         7, GPU activated = T, Device Name = NVIDIA A100-SXM4-80GB
  | MPI task         8, GPU activated = T, Device Name = NVIDIA A100-SXM4-80GB
  | MPI task         9, GPU activated = T, Device Name = NVIDIA A100-SXM4-80GB
  | MPI task        10, GPU activated = T, Device Name = NVIDIA A100-SXM4-80GB
  | MPI task        11, GPU activated = T, Device Name = NVIDIA A100-SXM4-80GB
  | MPI task        12, GPU activated = T, Device Name = NVIDIA A100-SXM4-80GB
  | MPI task        13, GPU activated = T, Device Name = NVIDIA A100-SXM4-80GB
  | MPI task        14, GPU activated = T, Device Name = NVIDIA A100-SXM4-80GB
  | MPI task        15, GPU activated = T, Device Name = NVIDIA A100-SXM4-80GB
  | MPI task        16, GPU activated = T, Device Name = NVIDIA A100-SXM4-80GB
  | MPI task        17, GPU activated = T, Device Name = NVIDIA A100-SXM4-80GB

------------------------------------------------------------
          Preparing all fixed parts of the calculation.
------------------------------------------------------------
  Determining machine precision:
    2.225073858507201E-308
  Setting up grids for atomic and cluster calculations.

  Creating wave function, potential, and density for free atoms.
  Runtime choices for atomic solver:
  | atomic solver xc        : PW-LDA
  | compute density gradient: 0
  | compute kinetic density : F

  Species: H

  List of occupied orbitals and eigenvalues:
    n    l              occ      energy [Ha]    energy [eV]
    1    0           1.0000        -0.232375        -6.3233


  Species: C

  List of occupied orbitals and eigenvalues:
    n    l              occ      energy [Ha]    energy [eV]
    1    0           2.0000        -9.944615      -270.6068
    2    0           2.0000        -0.498807       -13.5732
    2    1           2.0000        -0.196968        -5.3598


  Adding cutoff potential to free-atom effective potential.
  Creating fixed part of basis set: Ionic, confined, hydrogenic.
 
  H                    hydrogenic:
 
  List of hydrogenic basis orbitals: 
    n    l      effective z      eigenvalue [eV]  inner max. [A]     outer max. [A]     outer radius [A]   
    2    0         2.100000       -14.9728           0.193243           1.317208           4.583499
    2    1         3.500000       -41.6669           0.602369           0.602369           3.723403
 
 
  C                    hydrogenic:
 
  List of hydrogenic basis orbitals: 
    n    l      effective z      eigenvalue [eV]  inner max. [A]     outer max. [A]     outer radius [A]   
    2    1         1.700000        -9.7616           1.230570           1.230570           4.607917
    3    2         6.000000       -54.4224           0.792453           0.792453           3.883070
    2    0         4.900000       -81.6679           0.082559           0.562749           3.078220
 
  Creating atomic-like basis functions for current effective potential.

  Species H                   :

  List of atomic basis orbitals and eigenvalues:
    n    l      energy [Ha]    energy [eV]    outer radius [A]
    1    0        -0.232375        -6.3233       4.527807


  Species C                   :

  List of atomic basis orbitals and eigenvalues:
    n    l      energy [Ha]    energy [eV]    outer radius [A]
    1    0        -9.944615      -270.6068       1.934409
    2    0        -0.498807       -13.5732       4.496620
    2    1        -0.196968        -5.3598       4.551928

  Assembling full basis from fixed parts.
  | Species H :   atomic orbital   1 s accepted.
  | Species H :    hydro orbital   2 s accepted.
  | Species H :    hydro orbital   2 p accepted.
  | Species C :   atomic orbital   1 s accepted.
  | Species C :    hydro orbital   2 s accepted.
  | Species C :   atomic orbital   2 s accepted.
  | Species C :   atomic orbital   2 p accepted.
  | Species C :    hydro orbital   2 p accepted.
  | Species C :    hydro orbital   3 d accepted.
 
  Basis size parameters after reduction:
  | Total number of radial functions:        9
  | Total number of basis functions :     1440
 
  Per-task memory consumption for arrays in subroutine allocate_ext:
  |           2.242384MB.
  Testing on-site integration grid accuracy.
  |  Species  Function  <phi|h_atom|phi> (log., in eV)  <phi|h_atom|phi> (rad., in eV)
           1        1                 -6.3245358373                 -6.3232436907
           1        2                 14.1326137532                 14.1384481100
           1        3                 25.3627025200                 25.3628451197
           2        4               -270.6067544938               -270.6067222788
           2        5                -10.5634280949                -10.5635685736
           2        6                 16.2089822398                 16.2052121796
           2        7                 -5.3613872565                 -5.3627872378
           2        8                  8.5292058327                  8.5051734780
           2        9                 27.4884461005                 27.4884542459

  Preparing densities etc. for the partition functions (integrals / Hartree potential).

  Preparations completed.
  max(cpu_time)          :      0.072 s.
  Wall clock time (cpu1) :      0.067 s.
------------------------------------------------------------

  Initializing index lists of integration centers etc. from given atomic structure:
  Mapping all atomic coordinates to central unit cell.

  Initializing the k-points
  Using symmetry for reducing the k-points
  | k-points reduced from:        2 to        2
  | Number of k-points                             :         2
  | Consuming          0 KiB for k_phase_exx.
  The eigenvectors in the calculations are REAL.
  | Number of basis functions in the Hamiltonian integrals :      8021
  | Number of basis functions in a single unit cell        :      1440
  | Number of centers in hartree potential         :      3330
  | Number of centers in hartree multipole         :      2557
  | Number of centers in electron density summation:      1990
  | Number of centers in basis integrals           :      2120
  | Number of centers in integrals                 :       963
  | Number of centers in hamiltonian               :      1992
  | Consuming          1 KiB for k_phase.
  | Number of super-cells (origin) [n_cells]                     :         175
  | Number of super-cells (after PM_index) [n_cells]             :          40
  | Number of super-cells in hamiltonian [n_cells_in_hamiltonian]:          40
  | Size of matrix packed + index [n_hamiltonian_matrix_size] :     1930712
  | Size of matrix packed + index (no_symmetry):     3858607

------------------------------------------------------------
          Begin self-consistency loop: Initialization.

          Date     :  20230119, Time     :  180129.125
------------------------------------------------------------
  | Estimated reciprocal-space cutoff momentum G_max:         3.24344278 bohr^-1 .
  | Reciprocal lattice points for long-range Hartree potential:    5310
  Using simple linear distribution as default method for k-point parallelism.
  * Using 18 tasks for Scalapack Eigenvalue solver.
  Detailed listing of tasks and assigned k-points:
   Task     0 k-point     1 on adag012
   Task     1 k-point     1 on adag012
   Task     2 k-point     1 on adag012
   Task     3 k-point     1 on adag012
   Task     4 k-point     1 on adag012
   Task     5 k-point     1 on adag012
   Task     6 k-point     1 on adag012
   Task     7 k-point     1 on adag012
   Task     8 k-point     1 on adag012
   Task     9 k-point     2 on adag012
   Task    10 k-point     2 on adag012
   Task    11 k-point     2 on adag012
   Task    12 k-point     2 on adag012
   Task    13 k-point     2 on adag012
   Task    14 k-point     2 on adag012
   Task    15 k-point     2 on adag012
   Task    16 k-point     2 on adag012
   Task    17 k-point     2 on adag012
  K-point:     1 Tasks:     9 split into      3 X      3 BLACS grid
  Calculating block size based on n_basis =         1440  max_nprow =            3  max_npcol =            3
  ScaLAPACK block size set to:           16
  Allocating        1.758 MB for ovlp
  Allocating        1.758 MB for ham
  Allocating        1.758 MB for eigenvec
  Required Scalapack workspace - INTEGER:            1  REAL:             1
  Partitioning the integration grid into batches with parallel hashing+maxmin method.
  | Number of batches:     5632
  | Maximal batch size:     189
  | Minimal batch size:     100
  | Average batch size:     135.625
  | Standard deviation of batch sizes:      30.380

  Integration load balanced across    18 MPI tasks.
  Work distribution over tasks is as follows:
  Task     0 has      42425 integration points.
  Task     1 has      42456 integration points.
  Task     2 has      42456 integration points.
  Task     3 has      42427 integration points.
  Task     4 has      42410 integration points.
  Task     5 has      42441 integration points.
  Task     6 has      42435 integration points.
  Task     7 has      42429 integration points.
  Task     8 has      42430 integration points.
  Task     9 has      42451 integration points.
  Task    10 has      42448 integration points.
  Task    11 has      42437 integration points.
  Task    12 has      42375 integration points.
  Task    13 has      42478 integration points.
  Task    14 has      42444 integration points.
  Task    15 has      42413 integration points.
  Task    16 has      42451 integration points.
  Task    17 has      42434 integration points.
  Initializing partition tables, free-atom densities, potentials, etc. across the integration grid (initialize_grid_storage).
  | initialize_grid_storage: Actual outermost partition radius vs. multipole_radius_free
  | (-- VB: in principle, multipole_radius_free should be larger, hence this output)
  | Species        1: Confinement radius =              4.999999999999999 AA, multipole_radius_free =              5.054417573612229 AA.
  | Species        1: outer_partition_radius set to              5.054417573612229 AA .
  | Species        2: Confinement radius =              4.999999999999999 AA, multipole_radius_free =              5.019602836301480 AA.
  | Species        2: outer_partition_radius set to              5.019602836301480 AA .
  | The sparse table of interatomic distances needs       7623.83 kbyte instead of     35955.20 kbyte of memory.
  | Net number of integration points:   763840
  | of which are non-zero points    :   605304
  | Numerical average free-atom electrostatic potential    :     -8.61476289 eV
  Renormalizing the initial density to the exact electron count on the 3D integration grid.
  | Initial density: Formal number of electrons (from input files) :     544.0000000000
  | Integrated number of electrons on 3D grid     :     544.0025298344
  | Charge integration error                      :       0.0025298344
  | Normalization factor for density and gradient :       0.9999953496
  Renormalizing the free-atom superposition density to the exact electron count on the 3D integration grid.
  | Formal number of electrons (from input files) :     544.0000000000
  | Integrated number of electrons on 3D grid     :     544.0025298344
  | Charge integration error                      :       0.0025298344
  | Normalization factor for density and gradient :       0.9999953496
  Obtaining max. number of non-zero basis functions in each batch (get_n_compute_maxes).
  | Maximal number of non-zero basis functions:      532 in task     0
  | Maximal number of non-zero basis functions:      545 in task     1
  | Maximal number of non-zero basis functions:      537 in task     2
  | Maximal number of non-zero basis functions:      542 in task     3
  | Maximal number of non-zero basis functions:      524 in task     4
  | Maximal number of non-zero basis functions:      537 in task     5
  | Maximal number of non-zero basis functions:      556 in task     6
  | Maximal number of non-zero basis functions:      540 in task     7
  | Maximal number of non-zero basis functions:      533 in task     8
  | Maximal number of non-zero basis functions:      533 in task     9
  | Maximal number of non-zero basis functions:      551 in task    10
  | Maximal number of non-zero basis functions:      556 in task    11
  | Maximal number of non-zero basis functions:      528 in task    12
  | Maximal number of non-zero basis functions:      541 in task    13
  | Maximal number of non-zero basis functions:      546 in task    14
  | Maximal number of non-zero basis functions:      529 in task    15
  | Maximal number of non-zero basis functions:      538 in task    16
  | Maximal number of non-zero basis functions:      552 in task    17
  Integrating Hamiltonian matrix: batch-based integration.
  GPU acceleration will be used when integrating the Hamiltonian matrix.
  Reporting GPU memory usage by myid 0.  Note that it is likely not the only MPI task binding to its GPU!
  Allocating        2.264 MB on GPU for hamiltonian_shell
  Allocating        0.804 MB on GPU for wave
  Allocating        0.002 MB on GPU for partition
  Allocating        0.804 MB on GPU for h_times_psi
  Time summed over all CPUs for integration: real work       23.492 s, elapsed       24.537 s
  Deallocating memory used on GPU for Hamiltonian integration.
  Integrating overlap matrix.
  Time summed over all CPUs for integration: real work       19.017 s, elapsed       19.431 s
  Deallocating overlap matrix.

  Updating Kohn-Sham eigenvalues and eigenvectors using ELSI and the ELPA eigensolver.
  Singularity check in k-point 1 (analysis for other k-points may follow below):
  Overlap matrix is not singular
  | Lowest and highest eigenvalues :  0.7801E-03,  0.8213E+01
  Finished singularity check of overlap matrix
  | Time :     0.095 s
  Starting ELPA eigensolver
  Finished Cholesky decomposition
  | Time :     0.015 s
  Finished transformation to standard eigenproblem
  | Time :     0.018 s
  Finished solving standard eigenproblem
  | Time :     0.218 s
  Finished back-transformation of eigenvectors
  | Time :     0.017 s

  Obtaining occupation numbers and electronic chemical potential using ELSI.
  | Note that, for insulating systems, the printed 'chemical potential' value is not uniquely defined.
  | It can be anywhere in the energy gap, as long as it correctly separates occupied and unoccupied states.
  | In systems with a gap, the physically relevant chemical potential is the VBM or HOMO.

  | Chemical potential (Fermi level):    -8.39205892 eV
  Writing Kohn-Sham eigenvalues.
  K-point:       1 at    0.000000    0.000000    0.000000 (in units of recip. lattice)

  State    Occupation    Eigenvalue [Ha]    Eigenvalue [eV]
      1       2.00000         -10.070313         -274.02717
      2       2.00000         -10.070296         -274.02669
      3       2.00000         -10.069234         -273.99781
      4       2.00000         -10.068923         -273.98932
      5       2.00000         -10.068315         -273.97280
      6       2.00000         -10.067653         -273.95477
      7       2.00000         -10.067211         -273.94274
      8       2.00000         -10.067203         -273.94254
      9       2.00000         -10.066807         -273.93177
     10       2.00000         -10.066739         -273.92991
     11       2.00000         -10.066509         -273.92364
     12       2.00000         -10.066377         -273.92005
     13       2.00000         -10.066320         -273.91850
     14       2.00000         -10.065922         -273.90768
     15       2.00000         -10.065531         -273.89704
     16       2.00000         -10.065443         -273.89465
     17       2.00000         -10.065358         -273.89233
     18       2.00000         -10.065254         -273.88949
     19       2.00000         -10.064940         -273.88096
     20       2.00000         -10.064807         -273.87732
     21       2.00000         -10.064717         -273.87488
     22       2.00000         -10.064715         -273.87483
     23       2.00000         -10.064463         -273.86798
     24       2.00000         -10.064247         -273.86209
     25       2.00000         -10.063924         -273.85331
     26       2.00000         -10.063875         -273.85197
     27       2.00000         -10.063702         -273.84727
     28       2.00000         -10.063508         -273.84198
     29       2.00000         -10.063296         -273.83621
     30       2.00000         -10.063156         -273.83242
     31       2.00000         -10.063138         -273.83192
     32       2.00000         -10.062679         -273.81943
     33       2.00000         -10.062492         -273.81434
     34       2.00000         -10.062465         -273.81361
     35       2.00000         -10.062415         -273.81224
     36       2.00000         -10.062376         -273.81118
     37       2.00000         -10.062144         -273.80487
     38       2.00000         -10.061974         -273.80024
     39       2.00000         -10.061865         -273.79728
     40       2.00000         -10.061714         -273.79316
     41       2.00000         -10.061560         -273.78898
     42       2.00000         -10.061487         -273.78698
     43       2.00000         -10.061483         -273.78689
     44       2.00000         -10.061380         -273.78408
     45       2.00000         -10.061254         -273.78065
     46       2.00000         -10.061244         -273.78038
     47       2.00000         -10.061091         -273.77622
     48       2.00000         -10.061044         -273.77495
     49       2.00000         -10.060832         -273.76916
     50       2.00000         -10.060598         -273.76280
     51       2.00000         -10.060429         -273.75819
     52       2.00000         -10.060142         -273.75040
     53       2.00000         -10.060106         -273.74942
     54       2.00000         -10.059910         -273.74408
     55       2.00000         -10.059900         -273.74381
     56       2.00000         -10.059859         -273.74270
     57       2.00000         -10.059784         -273.74065
     58       2.00000         -10.059578         -273.73503
     59       2.00000         -10.059547         -273.73421
     60       2.00000         -10.059498         -273.73287
     61       2.00000         -10.059436         -273.73117
     62       2.00000         -10.058632         -273.70931
     63       2.00000         -10.058486         -273.70532
     64       2.00000         -10.058351         -273.70166
     65       2.00000         -10.058343         -273.70143
     66       2.00000         -10.057581         -273.68070
     67       2.00000         -10.057581         -273.68070
     68       2.00000         -10.056761         -273.65840
     69       2.00000         -10.056636         -273.65499
     70       2.00000         -10.056471         -273.65049
     71       2.00000         -10.056306         -273.64600
     72       2.00000         -10.056275         -273.64516
[...]
  |    H      0     4.527807 A      4.583499 A        4.713786E-16 a.u.
  |    H      2     3.678162 A  1.011968E+04 A            0.556529 a.u.
  |    H      1     3.958095 A  1.721251E+06 A            0.841931 a.u.
  |    H      0     4.527807 A  3.866455E+12 A            0.581436 a.u.
  |    C      0     2.562483 A      2.562483 A        6.563029E-17 a.u.
  |    C      0     2.967371 A      2.967371 A        1.352164E-16 a.u.
  |    C      0     3.003870 A      3.003870 A        2.312640E-17 a.u.
  |    C      1     3.272245 A      3.272245 A       -3.835259E-17 a.u.
  |    C      0     3.312494 A      3.312494 A       -2.710381E-16 a.u.
  |    C      3     4.077671 A      4.077671 A       -1.683752E-15 a.u.
  |    C      3     4.077671 A      4.077671 A        1.412852E-15 a.u.
  |    C      1     4.496620 A      4.496620 A       -3.011059E-16 a.u.
  |    C      0     4.496620 A      4.551928 A        2.873903E-17 a.u.
  |    C      2     4.551928 A      4.551928 A       -4.610785E-16 a.u.
  |    C      2     4.551928 A      4.551928 A        7.440584E-16 a.u.
  |    C      2     4.551928 A      4.551928 A       -7.110458E-16 a.u.
  |    C      2     4.551928 A      4.551928 A       -1.935424E-16 a.u.
  |    C      0     4.551928 A      4.607917 A        2.067142E-16 a.u.
  |    C      0     4.551928 A      4.607917 A       -1.109786E-16 a.u.
  |    C      1     4.551928 A      4.607917 A       -9.951742E-17 a.u.
  |    C      1     4.551928 A      4.607917 A        1.937809E-16 a.u.
  |    C      1     4.607917 A      4.607917 A       -2.813308E-16 a.u.
  |    C      1     4.607917 A      4.607917 A       -7.330363E-17 a.u.
  |    C      2     4.607917 A      4.607917 A        1.318462E-15 a.u.
  |    C      2     4.607917 A      4.607917 A       -1.318397E-15 a.u.
  |    C      0     4.607917 A      4.664595 A        3.157826E-16 a.u.
  |    C      1     4.607917 A      4.664595 A        7.356967E-16 a.u.
  |    C      4     3.835889 A  2.962973E+02 A            4.379483 a.u.
  |    C      3     4.127827 A  1.725964E+03 A            9.005588 a.u.
  |    C      2     4.607917 A  2.608475E+04 A            9.531178 a.u.
  |    C      1     4.607917 A  2.736013E+06 A            2.127278 a.u.
  |    C      0     4.607917 A  4.399765E+12 A            0.661635 a.u.

  | Shrink_full_auxil_basis : there are       36  radial auxiliary wave functions
                            accepted and       7 rejected.
  | Shrink_full_auxil_basis : there are totally                8992 partial auxiliary wave functions.
 
  | Maximal number of product basis functions per thread :   512   512
 
  | Minimal total memory requirement for three-center overlap :      72.476 Gbs
  | Number of local auxiliary basis functions on task:      0   512
  | Number of local auxiliary basis functions on task:      1   512
  | Number of local auxiliary basis functions on task:      2   512
  | Number of local auxiliary basis functions on task:      3   512
  | Number of local auxiliary basis functions on task:      4   496
  | Number of local auxiliary basis functions on task:      5   496
  | Number of local auxiliary basis functions on task:      6   496
  | Number of local auxiliary basis functions on task:      7   496
  | Number of local auxiliary basis functions on task:      8   496
  | Number of local auxiliary basis functions on task:      9   496
  | Number of local auxiliary basis functions on task:     10   496
  | Number of local auxiliary basis functions on task:     11   496
  | Number of local auxiliary basis functions on task:     12   496
  | Number of local auxiliary basis functions on task:     13   496
  | Number of local auxiliary basis functions on task:     14   496
  | Number of local auxiliary basis functions on task:     15   496
  | Number of local auxiliary basis functions on task:     16   496
  | Number of local auxiliary basis functions on task:     17   496
  | 2D aux task distribution:      3 X      6
  | 2D block size (nb_aux_2d):     64
 
  Basis pair condensation :   1037520  -->     547220
 
 --------------------------------------------
  Constructing auxiliary basis (full product) ...
 
  Product basis:
  | charge radius: extent of product basis function
  | field radius: extent of its Coulomb potential
  | Species   l  charge radius    field radius  multipol momen
  |    H      1     3.910002 A      3.910002 A       -2.487223E-16 a.u.
  |    H      1     3.958095 A      3.958095 A       -2.441841E-16 a.u.
  |    H      0     4.527807 A      4.527807 A        1.268855E-16 a.u.
  |    H      0     4.527807 A      4.583499 A       -4.900954E-17 a.u.
  |    H      0     4.527807 A      4.583499 A        4.713786E-16 a.u.
  |    H      2     3.678162 A  1.011968E+04 A            0.556529 a.u.
  |    H      1     3.958095 A  1.721251E+06 A            0.841931 a.u.
  |    H      0     4.527807 A  3.866455E+12 A            0.581436 a.u.
  |    C      0     2.562483 A      2.562483 A        6.563029E-17 a.u.
  |    C      0     2.967371 A      2.967371 A        1.352164E-16 a.u.
  |    C      0     3.003870 A      3.003870 A        2.312640E-17 a.u.
  |    C      1     3.272245 A      3.272245 A       -3.835259E-17 a.u.
  |    C      0     3.312494 A      3.312494 A       -2.710381E-16 a.u.
  |    C      3     4.077671 A      4.077671 A       -1.683752E-15 a.u.
  |    C      3     4.077671 A      4.077671 A        1.412852E-15 a.u.
  |    C      1     4.496620 A      4.496620 A       -3.011059E-16 a.u.
  |    C      0     4.496620 A      4.551928 A        2.873903E-17 a.u.
  |    C      2     4.551928 A      4.551928 A       -4.610785E-16 a.u.
  |    C      2     4.551928 A      4.551928 A        7.440584E-16 a.u.
  |    C      2     4.551928 A      4.551928 A       -7.110458E-16 a.u.
  |    C      2     4.551928 A      4.551928 A       -1.935424E-16 a.u.
  |    C      0     4.551928 A      4.607917 A        2.067142E-16 a.u.
  |    C      0     4.551928 A      4.607917 A       -1.109786E-16 a.u.
  |    C      1     4.551928 A      4.607917 A       -9.951742E-17 a.u.
  |    C      1     4.551928 A      4.607917 A        1.937809E-16 a.u.
  |    C      1     4.607917 A      4.607917 A       -2.813308E-16 a.u.
  |    C      1     4.607917 A      4.607917 A       -7.330363E-17 a.u.
  |    C      2     4.607917 A      4.607917 A        1.318462E-15 a.u.
  |    C      2     4.607917 A      4.607917 A       -1.318397E-15 a.u.
  |    C      0     4.607917 A      4.664595 A        3.157826E-16 a.u.
  |    C      1     4.607917 A      4.664595 A        7.356967E-16 a.u.
  |    C      4     3.835889 A  2.962973E+02 A            4.379483 a.u.
  |    C      3     4.127827 A  1.725964E+03 A            9.005588 a.u.
  |    C      2     4.607917 A  2.608475E+04 A            9.531178 a.u.
  |    C      1     4.607917 A  2.736013E+06 A            2.127278 a.u.
  |    C      0     4.607917 A  4.399765E+12 A            0.661635 a.u.

  | Shrink_full_auxil_basis : there are       36  radial auxiliary wave functions
                            accepted and       7 rejected.
  | Shrink_full_auxil_basis : there are totally                8992 partial auxiliary wave functions.
 
  | Maximal number of product basis functions per thread :   512   512
 
  | Minimal total memory requirement for three-center overlap :      72.476 Gbs
  | Number of local auxiliary basis functions on task:      0   512
  | Number of local auxiliary basis functions on task:      1   512
  | Number of local auxiliary basis functions on task:      2   512
  | Number of local auxiliary basis functions on task:      3   512
  | Number of local auxiliary basis functions on task:      4   496
  | Number of local auxiliary basis functions on task:      5   496
  | Number of local auxiliary basis functions on task:      6   496
  | Number of local auxiliary basis functions on task:      7   496
  | Number of local auxiliary basis functions on task:      8   496
  | Number of local auxiliary basis functions on task:      9   496
  | Number of local auxiliary basis functions on task:     10   496
  | Number of local auxiliary basis functions on task:     11   496
  | Number of local auxiliary basis functions on task:     12   496
  | Number of local auxiliary basis functions on task:     13   496
  | Number of local auxiliary basis functions on task:     14   496
  | Number of local auxiliary basis functions on task:     15   496
  | Number of local auxiliary basis functions on task:     16   496
  | Number of local auxiliary basis functions on task:     17   496
  | 2D aux task distribution:      3 X      6
  | 2D block size (nb_aux_2d):     64
 
  Basis pair condensation :   1037520  -->     547220
  Allocating        0.069 MB for t_coeff
  Allocating        0.034 MB for basbas_idx
  Allocating        0.069 MB for wave
  Allocating        0.069 MB for total_wave
  Allocating        0.206 MB for wave_gradient
  Allocating        0.206 MB for total_wave_grad
 HERE1
 HERE2
  Deallocating        0.069 MB for t_coeff
  Deallocating        0.034 MB for basbas_idx
  Deallocating        0.069 MB for wave
  Deallocating        0.206 MB for wave_gradient
  Deallocating        0.206 MB for total_wave_grad
dP_dE (Bohr^3) at every cycle:--->
 (1009.35449255202,0.000000000000000E+000) (5.06057937705081,0.000000000000000E+000) (-463.253246667165,0.000000000000000E+000)
 (5.04593469231362,0.000000000000000E+000) (1377.73072275077,0.000000000000000E+000) (-7.96961282558763,0.000000000000000E+000)
 (-463.496099293706,0.000000000000000E+000) (-7.96279691260500,0.000000000000000E+000) (1678.26799385632,0.000000000000000E+000)
DFPT polarizability (Bohr^3)        xx        yy        zz        xy        xz        yz
  | Polarizability:--->                      1009.354492552                 1377.730722751                 1678.267993856                    5.060579377                 -463.253246667                   -7.969612826

DFPT for dielectric_constant:--->  # PARSE DFPT_dielectric_tensor
               2.369672516424094             0.006867098270306            -0.628624774334721
               0.006847225745495             2.869551203179076            -0.010814594609025
              -0.628954320168785            -0.010805345560494             3.277373869479002

                                               :  max(cpu_time)    wall_clock(cpu1)
  | Time for  dielectric calculation            :        0.000 s           0.000 s
===========================================================================

------------------------------------------------------------------------------
  Final output of selected total energy values:

  The following output summarizes some interesting total energy values
  at the end of a run (AFTER all relaxation, molecular dynamics, etc.).

  | Total energy of the DFT / Hartree-Fock s.c.f. calculation      :         -83267.538240294 eV
  | Final zero-broadening corrected energy (caution - metals only) :         -83267.538240294 eV
  | For reference only, the value of 1 Hartree used in FHI-aims is :             27.211384500 eV
  | For reference only, the overall average (free atom contribution
  | + realspace contribution) of the electrostatic potential after
  | s.c.f. convergence is                                          :             -7.702839864 eV

  Before relying on these values, please be sure to understand exactly which
  total energy value is referred to by a given number. Different objects may
  all carry the same name 'total energy'. Definitions:

  Total energy of the DFT / Hartree-Fock s.c.f. calculation:
  | Note that this energy does not include ANY quantities calculated after the
  | s.c.f. cycle, in particular not ANY RPA, MP2, etc. many-body perturbation terms.

  Final zero-broadening corrected energy:
  | For metallic systems only, a broadening of the occupation numbers at the Fermi
  | level can be extrapolated back to zero broadening by an electron-gas inspired
  | formula. For all systems that are not real metals, this value can be
  | meaningless and should be avoided.

------------------------------------------------------------------------------
  Methods described in the following list of references were used in this FHI-aims run.
  If you publish the results, please make sure to cite these reference if they apply.
  FHI-aims is an academic code, and for our developers (often, Ph.D. students
  and postdocs), scientific credit in the community is essential.
  Thank you for helping us!

  For any use of FHI-aims, please cite:

    Volker Blum, Ralf Gehrke, Felix Hanke, Paula Havu, Ville Havu,
    Xinguo Ren, Karsten Reuter, and Matthias Scheffler
    'Ab initio molecular simulations with numeric atom-centered orbitals'
    Computer Physics Communications 180, 2175-2196 (2009)
    http://doi.org/10.1016/j.cpc.2009.06.022


  For Hartree-Fock, hybrid functionals, or many-body perturbation theory used in your run, please cite:

    Xinguo Ren, Patrick Rinke, Volker Blum, Juergen Wieferink, Alex Tkatchenko,
    Andrea Sanfilippo, Karsten Reuter, and Matthias Scheffler,
    'Resolution-of-identity approach to Hartree-Fock, hybrid density functionals,
    RPA, MP2, and GW with numeric atom-centered orbital basis functions'
    New Journal of Physics 14, 053020 (2012).
    http://doi.org/10.1088/1367-2630/14/5/053020


  The provided symmetry information was generated with SPGlib:

    Atsushi Togo, Yusuke Seto, Dimitar Pashov
    SPGlib 1.7.3 obtained from http://spglib.sourceforge.net
    Copyright (C) 2008 Atsushi Togo


  The DFPT (perturbation by an electric field) part of the code was used.
  Here is the corresponding reference:

    Honghui Shang, Nathaniel Raimbault, Mariana Rossi,
    Christian Carbogno, Patrick Rinke and Matthias Scheffler,
    'All-Electron, Real-Space Perturbation Theory for Homogeneous
    Electric Fields: Theory, Implementation, and Application within dft'
    New Journal of Physics, 20(7):073040, 2018


  The ELSI infrastructure was used in your run to solve the Kohn-Sham electronic structure.
  Please check out http://elsi-interchange.org to learn more.
  If scalability is important for your project, please acknowledge ELSI by citing:

    V. W-z. Yu, F. Corsetti, A. Garcia, W. P. Huhn, M. Jacquelin, W. Jia,
    B. Lange, L. Lin, J. Lu, W. Mi, A. Seifitokaldani, A. Vazquez-Mayagoitia,
    C. Yang, H. Yang, and V. Blum
    'ELSI: A unified software interface for Kohn-Sham electronic structure solvers'
    Computer Physics Communications 222, 267-285 (2018).
    http://doi.org/10.1016/j.cpc.2017.09.007


  For the real-space grid partitioning and parallelization used in this calculation, please cite:

    Ville Havu, Volker Blum, Paula Havu, and Matthias Scheffler,
    'Efficient O(N) integration for all-electron electronic structure calculation'
    'using numerically tabulated basis functions'
    Journal of Computational Physics 228, 8367-8379 (2009).
    http://doi.org/10.1016/j.jcp.2009.08.008


  The high-level electronic structure method used in your calculation
  employed our efficient localized resolution of identity for the Coulomb operator.
  Some calculations, especially large-scale hybrid density functional theory,
  are only possible thanks to this development. For this feature, please cite:

    Arvid Ihrig, Juergen Wieferink, Igor Ying Zhang, Matti Ropo, Xinguo Ren,
    Patrick Rinke, Matthias Scheffler, and Volker Blum,
    'Accurate localized resolution of identity approach for linear-scaling
    hybrid density functionals and for many-body perturbation theory'
    New Journal of Physics 117, 093020 (2015).
    http://doi.org/10.1088/1367-2630/17/9/093020

  Of course, there are many other important community references, e.g., those cited in the
  above references. Our list is limited to references that describe implementations in the
  FHI-aims code. The reason is purely practical (length of this list) - please credit others as well.

------------------------------------------------------------
          Leaving FHI-aims.
          Date     :  20230119, Time     :  182722.782

          Computational steps:
          | Number of self-consistency cycles          :           46
          | Number of SCF (re)initializations          :            1
          | Number of coupled perturbed self-consistency cycles          :            0
          | Number of CPSCF (re)initializations          :            0

          Detailed time accounting                     :  max(cpu_time)    wall_clock(cpu1)
          | Total time                                  :     1554.106 s        1568.495 s
          | GPU initialization                          :        1.743 s          13.693 s
          | Preparation time                            :        0.072 s           0.067 s
          | Boundary condition initalization            :        0.966 s           0.966 s
          | Grid partitioning                           :        1.252 s           1.252 s
          | Preloading free-atom quantities on grid     :        3.758 s           3.758 s
          | Free-atom superposition energy              :        0.490 s           0.490 s
          | Total time for integrations                 :       19.328 s          20.012 s
          | Product basis setup: Total time             :        0.000 s           0.000 s
          | Product basis: | 2-center integrations     :(       0.000 s)  (       0.000 s)
          | Product basis: | LVL 3-center & coefficient:(       0.000 s)  (       0.000 s)
          | Total time for solution of K.-S. equations  :        3.607 s           3.607 s
          | Total time for density update               :       13.196 s          14.357 s
          | Total time for mixing & preconditioning     :       12.764 s          12.766 s
          | Total time for Hartree multipole update     :        0.118 s           0.119 s
          | Total time for Hartree multipole sum        :       46.520 s          46.535 s
          | Total time for total energy evaluation      :        0.004 s           0.002 s
          | Total time first_order_DM                   :        1.863 s           1.863 s
          | Total time first_order_density              :      306.527 s         306.602 s
          | Total time first_order_potential            :      119.071 s         119.106 s
          | Total time first_order_H                    :      581.173 s         581.324 s
          | Total time solving of Sternheimer equations :        1.820 s           1.821 s
          | Total time for dielectric constant          :        0.000 s           0.000 s
          | Total time momentum matrix                  :        0.000 s           0.000 s

          GPU acceleration has been used for charge density update.
          GPU acceleration has been used for real-space Hamiltonian integration.
          Due to GPU usage, wall_clock(cpu1) will give a more reliable estimate for timings.

          Partial memory accounting:
          | Residual value for overall tracked memory usage across tasks:     1.234863 MB (should be 0.000000 MB)
          |
          | Largest tracked array allocation:
          |   Minimum:      103.111 MB (DFPT_pulay_mixing::initialize_pulay_mixing::X_in_diffs on task  0)
          |   Maximum:      103.111 MB (DFPT_pulay_mixing::initialize_pulay_mixing::X_in_diffs on task  0)
          |   Average:      103.111 MB
          |
          | Because the residual tracked memory usage was not zero, the peak value for overall
          | tracked memory usage was not output, as it is probably incorrect.  This is likely due
          | to a missing aims_deallocate statement in the source code, which should be otherwise
          | harmless.
          |
          Note:  These values currently only include a subset of arrays which are explicitly tracked.
          The "true" memory usage will be greater.

          Have a nice day.
------------------------------------------------------------
