------------------------------------------------------------
          Invoking FHI-aims ...

          When using FHI-aims, please cite the following reference:

            Volker Blum, Ralf Gehrke, Felix Hanke, Paula Havu,
            Ville Havu, Xinguo Ren, Karsten Reuter, and Matthias Scheffler,
            'Ab Initio Molecular Simulations with Numeric Atom-Centered Orbitals',
            Computer Physics Communications 180, 2175-2196 (2009)

          In addition, many other developments in FHI-aims are likely important for
          your particular application. A partial list of references is given at the end of
          this file. Thank you for giving credit to the authors of these developments.

          For any questions about FHI-aims, please visit our slack channel at

            https://fhi-aims.slack.com

          and our main development and support site at

            https://aims-git.rz-berlin.mpg.de .

          The latter site, in particular, has a wiki to collect information, as well
          as an issue tracker to log discussions, suggest improvements, and report issues
          or bugs. https://aims-git.rz-berlin.mpg.de is also the main development site
          of the project and all new and updated code versions can be obtained there.
          Please send an email to aims-coordinators@fhi-berlin.mpg.de and we will add
          you to these sites. They are for you and everyone is welcome there.

------------------------------------------------------------



  Date     :  20230119, Time     :  210158.768
  Time zero on CPU 1             :   0.378879000000000E+00  s.
  Internal wall clock time zero  :           443394118.768  s.

  FHI-aims created a unique identifier for this run for later identification
  aims_uuid : B3C0DDF0-05E0-49DA-A9FF-19057658470D

  Build configuration of the current instance of FHI-aims
  -------------------------------------------------------
  FHI-aims version      : 220829
  Commit number         : 9895fc21d
  CMake host system     : Linux-5.3.18-150300.59.68-default
  CMake version         : 3.17.0
  Fortran compiler      : /mpcdf/soft/SLE_15/packages/x86_64/intel_oneapi/2021.3/mpi/2021.3.0/bin/mpiifort (Intel) version 20.2.3.20210609
  Fortran compiler flags: -O3 -ip -fp-model precise
  C compiler            : /mpcdf/soft/SLE_15/packages/x86_64/intel/2021.3.0/bin/icc (Intel) version 20.2.3.20210609
  C compiler flags      : -O3 -ip -fp-model precise -std=gnu99
  CUDA compiler         : /mpcdf/soft/SLE_15/packages/x86_64/cuda/11.6.2/bin/nvcc
  CUDA compiler flags   : -O3 -DAdd_ -lcublas
  ELPA2 kernel          : AVX512
  Using MPI
  Using ScaLAPACK
  Using LibXC
  Using CUDA
  Using i-PI
  Using RLSY
  Linking against: /mpcdf/soft/SLE_15/packages/x86_64/cuda/11.6.2/lib64/libcublas.so
                   /mpcdf/soft/SLE_15/packages/x86_64/cuda/11.6.2/lib64/libcudart.so
                   /mpcdf/soft/SLE_15/packages/x86_64/intel_oneapi/2021.3/mkl/latest/lib/intel64/libmkl_intel_lp64.so
                   /mpcdf/soft/SLE_15/packages/x86_64/intel_oneapi/2021.3/mkl/latest/lib/intel64/libmkl_sequential.so
                   /mpcdf/soft/SLE_15/packages/x86_64/intel_oneapi/2021.3/mkl/latest/lib/intel64/libmkl_core.so
                   /mpcdf/soft/SLE_15/packages/x86_64/intel_oneapi/2021.3/mkl/latest/lib/intel64/libmkl_blacs_intelmpi_lp64.so
                   /mpcdf/soft/SLE_15/packages/x86_64/intel_oneapi/2021.3/mkl/latest/lib/intel64/libmkl_scalapack_lp64.so

  Using       18 parallel tasks.
  Task        0 on host adag015 reporting.
  Task        1 on host adag015 reporting.
  Task        2 on host adag015 reporting.
  Task        3 on host adag015 reporting.
  Task        4 on host adag015 reporting.
  Task        5 on host adag015 reporting.
  Task        6 on host adag015 reporting.
  Task        7 on host adag015 reporting.
  Task        8 on host adag015 reporting.
  Task        9 on host adag015 reporting.
  Task       10 on host adag015 reporting.
  Task       11 on host adag015 reporting.
  Task       12 on host adag015 reporting.
  Task       13 on host adag015 reporting.
  Task       14 on host adag015 reporting.
  Task       15 on host adag015 reporting.
  Task       16 on host adag015 reporting.
  Task       17 on host adag015 reporting.

  Performing system and environment tests:
  | Environment variable OMP_NUM_THREADS correctly set to 1.
  | Checking for ScaLAPACK...
  | Testing pdtran()...
  | All pdtran() tests passed.

  Obtaining array dimensions for all initial allocations:
  
  -----------------------------------------------------------------------
  Parsing control.in (first pass over file, find array dimensions only).
  The contents of control.in will be repeated verbatim below
  unless switched off by setting 'verbatim_writeout .false.' .
  in the first line of control.in .
  -----------------------------------------------------------------------
  
  #
  # Input for polarizability replays on generic oligoacene molecular crystals (light settings,  LDA+MBD).
  #
  #########################################################################################
  #
  #  Physical model
  #
    xc                 pw-lda
    spin               none
    relativistic       none
    charge             0.0
    k_grid 	     2 1 1
    DFPT dielectric
  #
  #  GPU acceleration
  #
  # Turns on GPU acceleration everywhere
    use_gpu
  
  # Turns OFF GPU acceleration of ELPA - may be necessary if GPU ELPA is slow
    elsi_elpa_gpu 0
  #
  #  Relaxation
  #
  #  relax_geometry trm 1E-3
  #  relax_unit_cell fixed_angles
  #
  #  SCF convergence        #
    charge_mix_param   0.75
    #sc_accuracy_rho 1E-4
  #
  # i-PI communication
  #
  compute_forces .false.
  # use_pimd_wrapper 130.183.223.27 26118
  #communicate_pimd_wrapper polarizability
  #output_level MD_light
  #
  # Output SALTED info
    ri_density_restart write
    ri_rho1 write
    ri_full_output .true.
  #  sc_accuracy_rho    1d-6
    default_prodbas_acc 1e-6
    default_max_l_prodbas 6
  #
  #
  ################################################################################
  #
  #  FHI-aims code project
  #  VB, Fritz-Haber Institut, 2009
  #
  #  Suggested "light" defaults for H atom (to be pasted into control.in file)
  #  Be sure to double-check any results obtained with these settings for post-processing,
  #  e.g., with the "tight" defaults and larger basis sets.
  #
  ################################################################################
    species        H
  #     global species definitions
      nucleus             1
      mass                1.00794
  #
      l_hartree           4
  #
      cut_pot             3.5  1.5  1.0
      basis_dep_cutoff    1e-4
  #
      radial_base         24 5.0
      radial_multiplier   1
      angular_grids       specified
        division   0.2421   50
        division   0.3822  110
        division   0.4799  194
        division   0.5341  302
  #      division   0.5626  434
  #      division   0.5922  590
  #      division   0.6542  770
  #      division   0.6868 1202
  #      outer_grid  770
        outer_grid  302
  ################################################################################
  #
  #  Definition of "minimal" basis
  #
  ################################################################################
  #     valence basis states
      valence      1  s   1.
  #     ion occupancy
      ion_occ      1  s   0.5
  ################################################################################
  #
  #  Suggested additional basis functions. For production calculations,
  #  uncomment them one after another (the most important basis functions are
  #  listed first).
  #
  #  Basis constructed for dimers: 0.5 A, 0.7 A, 1.0 A, 1.5 A, 2.5 A
  #
  ################################################################################
  #  "First tier" - improvements: -1014.90 meV to -62.69 meV
       hydro 2 s 2.1
       hydro 2 p 3.5
  #  "Second tier" - improvements: -12.89 meV to -1.83 meV
  #     hydro 1 s 0.85
  #     hydro 2 p 3.7
  #     hydro 2 s 1.2
  #     hydro 3 d 7
  #  "Third tier" - improvements: -0.25 meV to -0.12 meV
  #     hydro 4 f 11.2
  #     hydro 3 p 4.8
  #     hydro 4 d 9
  #     hydro 3 s 3.2
  ################################################################################
  ################################################################################
  #
  #  FHI-aims code project
  #  VB, Fritz-Haber Institut, 2009
  #
  #  Suggested "light" defaults for C atom (to be pasted into control.in file)
  #  Be sure to double-check any results obtained with these settings for post-processing,
  #  e.g., with the "tight" defaults and larger basis sets.
  #
  ################################################################################
    species        C
  #     global species definitions
      nucleus             6
      mass                12.0107
  #
      l_hartree           4
  #
      cut_pot             3.5  1.5  1.0
      basis_dep_cutoff    1e-4
  #
      radial_base         34 5.0
      radial_multiplier   1
      angular_grids specified
        division   0.3326   50
        division   0.5710  110
        division   0.7727  194
        division   0.8772  302
  #      division   0.9334  434
  #      division   0.9625  590
  #      division   0.9924  770
  #      division   1.0230  974
  #      division   1.4589 1202
  #     outer_grid  974
       outer_grid 302
  ################################################################################
  #
  #  Definition of "minimal" basis
  #
  ################################################################################
  #     valence basis states
      valence      2  s   2.
      valence      2  p   2.
  #     ion occupancy
      ion_occ      2  s   1.
      ion_occ      2  p   1.
  ################################################################################
  #
  #  Suggested additional basis functions. For production calculations,
  #  uncomment them one after another (the most important basis functions are
  #  listed first).
  #
  #  Constructed for dimers: 1.0 A, 1.25 A, 1.5 A, 2.0 A, 3.0 A
  #
  ################################################################################
  #  "First tier" - improvements: -1214.57 meV to -155.61 meV
       hydro 2 p 1.7
       hydro 3 d 6
       hydro 2 s 4.9
  #  "Second tier" - improvements: -67.75 meV to -5.23 meV
  #     hydro 4 f 9.8
  #     hydro 3 p 5.2
  #     hydro 3 s 4.3
  #     hydro 5 g 14.4
  #     hydro 3 d 6.2
  #  "Third tier" - improvements: -2.43 meV to -0.60 meV
  #     hydro 2 p 5.6
  #     hydro 2 s 1.4
  #     hydro 3 d 4.9
  #     hydro 4 f 11.2
  #  "Fourth tier" - improvements: -0.39 meV to -0.18 meV
  #     hydro 2 p 2.1
  #     hydro 5 g 16.4
  #     hydro 4 d 13.2
  #     hydro 3 s 13.6
  #     hydro 4 f 17.6
  #  Further basis functions - improvements: -0.08 meV and below
  #     hydro 3 s 2
  #     hydro 3 p 6
  #     hydro 4 d 20
  
  -----------------------------------------------------------------------
  Completed first pass over input file control.in .
  -----------------------------------------------------------------------
  
  
  -----------------------------------------------------------------------
  Parsing geometry.in (first pass over file, find array dimensions only).
  The contents of geometry.in will be repeated verbatim below
  unless switched off by setting 'verbatim_writeout .false.' .
  in the first line of geometry.in .
  -----------------------------------------------------------------------
  
  #=======================================================
  # FHI-aims file: /ada/ptmp/mpsd/alewis/naphthalene/qmdata/data/geoms/245.in
  # Created using the Atomic Simulation Environment (ASE)
  # Thu Jan 19 15:19:17 2023
  #=======================================================
  lattice_vector 8.1020000000000003 0.0000000000000000 0.0000000000000000
  lattice_vector 0.0000000000000000 11.8800000000000008 0.0000000000000000
  lattice_vector -9.7850918486534706 0.0000000000000000 14.2571119625755713
  atom -0.8894680000000000 0.3614940000000000 2.3178399999999999 C
  atom 0.0640640000000000 2.9919300000000000 4.8209900000000001 C
  atom 4.3261399999999997 5.8996599999999999 4.9521199999999999 C
  atom 3.2521200000000001 2.9634600000000000 2.3734199999999999 C
  atom 0.0050105800000000 1.0751900000000001 1.5504199999999999 C
  atom -0.6934450000000000 3.8658700000000001 5.5828100000000003 C
  atom 3.5369500000000000 5.0585699999999996 5.6896500000000003 C
  atom 4.0171799999999998 2.0787800000000001 1.6164200000000000 C
  atom 0.3445750000000000 0.6614870000000000 0.2375330000000000 C
  atom -1.0020000000000000 3.5209500000000000 6.9145399999999997 C
  atom 3.0804900000000002 5.3628200000000001 6.9905700000000000 C
  atom 4.3944000000000001 2.4249800000000001 0.2836170000000000 C
  atom -3.8491599999999999 1.5000000000000000 6.6891999999999996 C
  atom 3.1604800000000002 4.5518500000000000 0.5212420000000000 C
  atom 7.1994199999999999 4.3761500000000000 0.4887020000000000 C
  atom 0.2141360000000000 1.4034199999999999 6.6286100000000001 C
  atom -3.5551200000000001 1.1980400000000000 5.3812800000000003 C
  atom 2.7989400000000000 4.2113300000000002 1.8177099999999999 C
  atom 6.9774099999999999 4.6859900000000003 1.8246500000000001 C
  atom 0.5027160000000001 1.7653799999999999 5.3347899999999999 C
  atom -1.1537599999999999 0.7410300000000000 3.3060299999999998 H
  atom 0.2386470000000000 3.1956400000000000 3.7530600000000001 H
  atom 4.6371300000000000 5.5856800000000000 3.9753200000000000 H
  atom 2.9557300000000000 2.6199400000000002 3.3582500000000000 H
  atom 0.5517360000000000 1.9551000000000001 1.9087300000000000 H
  atom -0.9534010000000001 4.8225899999999999 5.1458899999999996 H
  atom 3.2339600000000002 4.0946499999999997 5.2740700000000000 H
  atom 4.3876700000000000 1.1135999999999999 2.0181300000000002 H
  atom -3.5394999999999999 2.4342600000000001 7.1289600000000002 H
  atom 2.7526500000000000 5.4560300000000002 0.0553063000000000 H
  atom 6.9428099999999997 3.4430000000000001 -0.0001332100000000 H
  atom 0.6078770000000000 0.4590790000000000 7.0080499999999999 H
  atom -2.9036900000000001 1.9122900000000000 4.7844800000000003 H
  atom 2.1467900000000002 4.8697100000000004 2.3944100000000001 H
  atom 6.4940800000000003 3.9781000000000000 2.4929199999999998 H
  atom 1.0267200000000001 1.0498099999999999 4.7130400000000003 H
  atom -5.6005500000000001 -0.0522491000000000 9.6350400000000000 C
  atom -4.7496000000000000 3.1307200000000002 11.8300000000000001 C
  atom -0.7553050000000000 5.8532599999999997 11.8490000000000002 C
  atom -1.6104700000000001 2.8262200000000002 9.6146799999999999 C
  atom -4.9603099999999998 0.8650070000000000 8.8584800000000001 C
  atom -5.4782599999999997 3.9661100000000000 12.6145999999999994 C
  atom -1.4760300000000000 4.9408500000000002 12.5973000000000006 C
  atom -0.8967210000000000 1.9919000000000000 8.7934900000000003 C
  atom -4.6039199999999996 0.5923740000000000 7.5108600000000001 C
  atom -5.8297900000000000 3.6774700000000000 13.9687999999999999 C
  atom -1.8658999999999999 5.2557799999999997 13.9052000000000007 C
  atom -0.5419270000000000 2.2862399999999998 7.4404800000000000 C
  atom -8.5935799999999993 1.3685200000000000 13.6379999999999999 C
  atom -1.7589200000000000 4.4153200000000004 7.7306400000000002 C
  atom 2.2661099999999998 4.5010500000000002 7.7809400000000002 C
  atom -4.6021400000000003 1.5563300000000000 13.7113999999999994 C
  atom -8.2059999999999995 0.8496380000000000 12.4034999999999993 C
  atom -2.0860300000000001 4.0579799999999997 9.0358800000000006 C
  atom 1.8661600000000000 4.8733800000000000 9.0691199999999998 C
  atom -4.3094299999999999 1.9071100000000001 12.4230999999999998 C
  atom -5.8166599999999997 0.2054690000000000 10.6565999999999992 H
  atom -4.5979299999999999 3.3824800000000002 10.7721000000000000 H
  atom -0.4941220000000000 5.5781999999999998 10.8259000000000007 H
  atom -1.8310800000000000 2.5484499999999999 10.6302000000000003 H
  atom -4.7183400000000004 1.8481900000000000 9.2351899999999993 H
  atom -5.8337399999999997 4.9308800000000002 12.1805000000000003 H
  atom -1.8268100000000000 4.0213700000000001 12.1288000000000000 H
  atom -0.5516170000000000 1.0459900000000000 9.1819199999999999 H
  atom -8.1707500000000000 2.3265699999999998 13.9541000000000004 H
  atom -1.9844599999999999 5.4020299999999999 7.3647000000000000 H
  atom 1.8840399999999999 3.5455500000000000 7.3937400000000002 H
  atom -4.2379800000000003 0.6148169999999999 14.1229999999999993 H
  atom -7.5445700000000002 1.3992800000000001 11.7476000000000003 H
  atom -2.6352300000000000 4.7720599999999997 9.6332100000000001 H
  atom 1.1790799999999999 4.1867200000000002 9.6247500000000006 H
  atom -3.7382800000000000 1.2326500000000000 11.7672000000000008 H
  atom -0.7904030000000000 5.9318299999999997 2.3464399999999999 C
  atom 0.1744610000000000 9.0825200000000006 4.6807699999999999 C
  atom 4.1191000000000004 11.8802000000000003 4.8307599999999997 C
  atom 3.2037599999999999 8.6659000000000006 2.6097100000000002 C
  atom -0.1383240000000000 6.8275800000000002 1.5385500000000001 C
  atom -0.5289130000000000 9.9645600000000005 5.4415600000000000 C
  atom 3.3635299999999999 10.9783000000000008 5.5784000000000002 C
  atom 3.9885899999999999 7.8653000000000004 1.8217600000000000 C
  atom 0.2060950000000000 6.5386899999999999 0.1855910000000000 C
  atom -0.8858090000000000 9.6277699999999999 6.7771699999999999 C
  atom 3.1068199999999999 11.1972000000000005 6.9368699999999999 C
  atom 4.3311900000000003 8.2196300000000004 0.4863690000000000 C
  atom -3.7126399999999999 7.4011500000000003 6.8335800000000004 C
  atom 3.0875400000000002 10.3082999999999991 0.8054130000000000 C
  atom 7.0387599999999999 10.5405999999999995 0.6001750000000000 C
  atom 0.3433230000000000 7.5000999999999998 6.5190400000000004 C
  atom -3.3812500000000001 7.1209899999999999 5.4935999999999998 C
  atom 2.7621199999999999 9.9318299999999997 2.0864500000000001 C
  atom 6.6513799999999996 11.0561000000000007 1.8361799999999999 C
  atom 0.6366260000000000 7.8732699999999998 5.2376699999999996 C
  atom -1.0975400000000000 6.1976000000000004 3.3704499999999999 H
  atom 0.4215350000000000 9.3712599999999995 3.6630199999999999 H
  atom 4.3125999999999998 11.5884000000000000 3.8059500000000002 H
  atom 2.9002200000000000 8.2860700000000005 3.5555500000000002 H
  atom 0.1462840000000000 7.8096300000000003 1.9356899999999999 H
  atom -0.8547060000000000 10.9255999999999993 5.0612300000000001 H
  atom 3.0069400000000002 10.0754000000000001 5.0976400000000002 H
  atom 4.3601299999999998 6.9072300000000002 2.2359000000000000 H
  atom -3.4263800000000000 8.3891799999999996 7.2621700000000002 H
  atom 2.7061600000000001 11.2249999999999996 0.3915310000000000 H
  atom 6.5939399999999999 9.6094000000000008 0.2886000000000000 H
  atom 0.7779940000000000 6.6205200000000000 6.9737200000000001 H
  atom -2.8108100000000000 7.8438299999999996 4.9235199999999999 H
  atom 2.0672199999999998 10.5739000000000001 2.6876799999999998 H
  atom 5.9266199999999998 10.4558000000000000 2.3962699999999999 H
  atom 1.2557100000000001 7.2801999999999998 4.6026100000000003 H
  atom -5.7252400000000003 6.0771400000000000 9.6904800000000009 C
  atom -4.6540299999999997 9.0513300000000001 12.1588999999999992 C
  atom -0.7183120000000000 11.5138999999999996 11.9502000000000006 C
  atom -1.5242400000000000 8.9082100000000004 9.3879000000000001 C
  atom -4.9065099999999999 6.9007899999999998 8.9343500000000002 C
  atom -5.4663199999999996 9.8428100000000001 12.9215999999999998 C
  atom -1.5538799999999999 10.8173999999999992 12.7661999999999995 C
  atom -0.8329610000000000 8.0008800000000004 8.6141699999999997 C
  atom -4.5232299999999999 6.5802500000000004 7.6026300000000004 C
  atom -5.8795400000000004 9.4900199999999995 14.2489000000000008 C
  atom -1.8771199999999999 11.2888999999999999 14.0459999999999994 C
  atom -0.4547530000000000 8.3429599999999997 7.3179499999999997 C
  atom -8.8084399999999992 7.4315899999999999 13.6683000000000003 C
  atom -1.6357900000000001 10.4885000000000002 7.6057100000000002 C
  atom 2.4115500000000001 10.2726000000000006 7.7766599999999997 C
  atom -4.6148100000000003 7.4182399999999999 13.9565999999999999 C
  atom -8.3910599999999995 7.0682900000000002 12.4154000000000000 C
  atom -1.9876799999999999 10.1234000000000002 8.8832500000000003 C
  atom 2.1728200000000002 10.5534999999999997 9.0808599999999995 C
  atom -4.2187400000000004 7.7891199999999996 12.6731999999999996 C
  atom -5.9931700000000001 6.3654999999999999 10.6925000000000008 H
  atom -4.3372599999999997 9.3150999999999993 11.1522000000000006 H
  atom -0.4328910000000000 11.1306999999999992 10.9444999999999997 H
  atom -1.7907400000000000 8.6375399999999996 10.4257000000000009 H
  atom -4.4968599999999999 7.8152699999999999 9.3353599999999997 H
  atom -5.8003900000000002 10.7760999999999996 12.5139999999999993 H
  atom -2.0142400000000000 9.9274699999999996 12.3878000000000004 H
  atom -0.6090110000000000 6.9720199999999997 8.9373699999999996 H
  atom -8.5231100000000009 8.4141800000000000 14.1099999999999994 H
  atom -1.8952199999999999 11.4506999999999994 7.1887200000000000 H
  atom 2.1531500000000001 9.2972699999999993 7.3656499999999996 H
  atom -4.2760400000000001 6.4622599999999997 14.3223000000000003 H
  atom -7.7370700000000001 7.7068899999999996 11.8445000000000000 H
  atom -2.5541000000000000 10.7708999999999993 9.5387000000000004 H
  atom 1.7717300000000000 9.7469300000000008 9.7067499999999995 H
  atom -3.5531899999999998 7.1230900000000004 12.0977999999999994 H
  
  -----------------------------------------------------------------------
  Completed first pass over input file geometry.in .
  -----------------------------------------------------------------------
  

  Basic array size parameters:
  | Number of species                 :        2
  | Number of atoms                   :      144
  | Number of lattice vectors         :        3
  | Max. basis fn. angular momentum   :        2
  | Max. atomic/ionic basis occupied n:        2
  | Max. number of basis fn. types    :        2
  | Max. radial fns per species/type  :        3
  | Max. logarithmic grid size        :     1277
  | Max. radial integration grid size :       34
  | Max. angular integration grid size:      302
  | Max. angular grid division number :        8
  | Radial grid for Hartree potential :     1277
  | Number of spin channels           :        1

------------------------------------------------------------
          Reading file control.in.
------------------------------------------------------------
  XC: Using Perdew-Wang parametrisation of Ceperley-Alder LDA.
  Spin treatment: No spin polarisation.
  Non-relativistic treatment of kinetic energy.
  Charge =   0.000000E+00: Neutral system requested explicitly.
  Found k-point grid:         2         1         1
  DFPT calculation will begin after the DFT/HF calculation.
  Charge density mixing - mixing parameter:     0.7500
  Forces will not be computed.
 
  Reading configuration options for species H                   .
  | Found nuclear charge :   1.0000
  | Found atomic mass :    1.00794000000000      amu
  | Found l_max for Hartree potential  :   4
  | Found cutoff potl. onset [A], width [A], scale factor :    3.50000    1.50000    1.00000
  | Threshold for basis-dependent cutoff potential is   0.100000E-03
  | Found data for basic radial integration grid :    24 points, outermost radius =    5.000 A
  | Found multiplier for basic radial grid :   1
  | Found angular grid specification: user-specified.
  | Specified grid contains     5 separate shells.
  | Check grid settings after all constraints further below.
  | Found free-atom valence shell :  1 s   1.000
  | No ionic wave fns used. Skipping ion_occ.
  | Found hydrogenic basis function :  2 s   2.100
  | Found hydrogenic basis function :  2 p   3.500
  Species H                   : Missing cutoff potential type.
  Defaulting to exp(1/x)/(1-x)^2 type cutoff potential.
  Species H : No 'logarithmic' tag. Using default grid for free atom:
  | Default logarithmic grid data [bohr] : 0.1000E-03 0.1000E+03 0.1012E+01
  Species H : On-site basis accuracy parameter (for Gram-Schmidt orthonormalisation) not specified.
  Using default value basis_acc =  0.1000000E-03.
  Species H                   : Using default innermost maximum threshold i_radial=  2 for radial functions.
  Species H                   : Default cutoff onset for free atom density etc. : 0.35000000E+01 AA.
  Species H                   : Basic radial grid will be enhanced according to radial_multiplier =   1, to contain    24 grid points.
 
  Reading configuration options for species C                   .
  | Found nuclear charge :   6.0000
  | Found atomic mass :    12.0107000000000      amu
  | Found l_max for Hartree potential  :   4
  | Found cutoff potl. onset [A], width [A], scale factor :    3.50000    1.50000    1.00000
  | Threshold for basis-dependent cutoff potential is   0.100000E-03
  | Found data for basic radial integration grid :    34 points, outermost radius =    5.000 A
  | Found multiplier for basic radial grid :   1
  | Found angular grid specification: user-specified.
  | Specified grid contains     5 separate shells.
  | Check grid settings after all constraints further below.
  | Found free-atom valence shell :  2 s   2.000
  | Found free-atom valence shell :  2 p   2.000
  | No ionic wave fns used. Skipping ion_occ.
  | No ionic wave fns used. Skipping ion_occ.
  | Found hydrogenic basis function :  2 p   1.700
  | Found hydrogenic basis function :  3 d   6.000
  | Found hydrogenic basis function :  2 s   4.900
  Species C                   : Missing cutoff potential type.
  Defaulting to exp(1/x)/(1-x)^2 type cutoff potential.
  Species C : No 'logarithmic' tag. Using default grid for free atom:
  | Default logarithmic grid data [bohr] : 0.1000E-03 0.1000E+03 0.1012E+01
  Species C : On-site basis accuracy parameter (for Gram-Schmidt orthonormalisation) not specified.
  Using default value basis_acc =  0.1000000E-03.
  Species C                   : Using default innermost maximum threshold i_radial=  2 for radial functions.
  Species C                   : Default cutoff onset for free atom density etc. : 0.35000000E+01 AA.
  Species C                   : Basic radial grid will be enhanced according to radial_multiplier =   1, to contain    34 grid points.
 
  Finished reading input file 'control.in'.
 
------------------------------------------------------------


------------------------------------------------------------
          Reading geometry description geometry.in.
------------------------------------------------------------
  | The smallest distance between any two atoms is         1.06349455 AA.
  | The first atom of this pair is atom number                     76 .
  | The second atom of this pair is atom number                    96 .
  | Wigner-Seitz cell of the first atom image           0     0     0 .
  | (The Wigner-Seitz cell of the second atom is 0 0 0  by definition.)

  Symmetry information by spglib:
  | Precision set to  0.1E-04
  | Number of Operations  : 1
  | Space group           : 1
  | International         : P1
  | Schoenflies           : C1^1
  Input structure read successfully.
  The structure contains      144 atoms,  and a total of        544.000 electrons.

  Input geometry:
  | Unit cell:
  |        8.10200000        0.00000000        0.00000000
  |        0.00000000       11.88000000        0.00000000
  |       -9.78509185        0.00000000       14.25711196
  | Atomic structure:
  |       Atom                x [A]            y [A]            z [A]
  |    1: Species C            -0.88946800        0.36149400        2.31784000
  |    2: Species C             0.06406400        2.99193000        4.82099000
  |    3: Species C             4.32614000        5.89966000        4.95212000
  |    4: Species C             3.25212000        2.96346000        2.37342000
  |    5: Species C             0.00501058        1.07519000        1.55042000
  |    6: Species C            -0.69344500        3.86587000        5.58281000
  |    7: Species C             3.53695000        5.05857000        5.68965000
  |    8: Species C             4.01718000        2.07878000        1.61642000
  |    9: Species C             0.34457500        0.66148700        0.23753300
  |   10: Species C            -1.00200000        3.52095000        6.91454000
  |   11: Species C             3.08049000        5.36282000        6.99057000
  |   12: Species C             4.39440000        2.42498000        0.28361700
  |   13: Species C            -3.84916000        1.50000000        6.68920000
  |   14: Species C             3.16048000        4.55185000        0.52124200
  |   15: Species C             7.19942000        4.37615000        0.48870200
  |   16: Species C             0.21413600        1.40342000        6.62861000
  |   17: Species C            -3.55512000        1.19804000        5.38128000
  |   18: Species C             2.79894000        4.21133000        1.81771000
  |   19: Species C             6.97741000        4.68599000        1.82465000
  |   20: Species C             0.50271600        1.76538000        5.33479000
  |   21: Species H            -1.15376000        0.74103000        3.30603000
  |   22: Species H             0.23864700        3.19564000        3.75306000
  |   23: Species H             4.63713000        5.58568000        3.97532000
  |   24: Species H             2.95573000        2.61994000        3.35825000
  |   25: Species H             0.55173600        1.95510000        1.90873000
  |   26: Species H            -0.95340100        4.82259000        5.14589000
  |   27: Species H             3.23396000        4.09465000        5.27407000
  |   28: Species H             4.38767000        1.11360000        2.01813000
  |   29: Species H            -3.53950000        2.43426000        7.12896000
  |   30: Species H             2.75265000        5.45603000        0.05530630
  |   31: Species H             6.94281000        3.44300000       -0.00013321
  |   32: Species H             0.60787700        0.45907900        7.00805000
  |   33: Species H            -2.90369000        1.91229000        4.78448000
  |   34: Species H             2.14679000        4.86971000        2.39441000
  |   35: Species H             6.49408000        3.97810000        2.49292000
  |   36: Species H             1.02672000        1.04981000        4.71304000
  |   37: Species C            -5.60055000       -0.05224910        9.63504000
  |   38: Species C            -4.74960000        3.13072000       11.83000000
  |   39: Species C            -0.75530500        5.85326000       11.84900000
  |   40: Species C            -1.61047000        2.82622000        9.61468000
  |   41: Species C            -4.96031000        0.86500700        8.85848000
  |   42: Species C            -5.47826000        3.96611000       12.61460000
  |   43: Species C            -1.47603000        4.94085000       12.59730000
  |   44: Species C            -0.89672100        1.99190000        8.79349000
  |   45: Species C            -4.60392000        0.59237400        7.51086000
  |   46: Species C            -5.82979000        3.67747000       13.96880000
  |   47: Species C            -1.86590000        5.25578000       13.90520000
  |   48: Species C            -0.54192700        2.28624000        7.44048000
  |   49: Species C            -8.59358000        1.36852000       13.63800000
  |   50: Species C            -1.75892000        4.41532000        7.73064000
  |   51: Species C             2.26611000        4.50105000        7.78094000
  |   52: Species C            -4.60214000        1.55633000       13.71140000
  |   53: Species C            -8.20600000        0.84963800       12.40350000
  |   54: Species C            -2.08603000        4.05798000        9.03588000
  |   55: Species C             1.86616000        4.87338000        9.06912000
  |   56: Species C            -4.30943000        1.90711000       12.42310000
  |   57: Species H            -5.81666000        0.20546900       10.65660000
  |   58: Species H            -4.59793000        3.38248000       10.77210000
  |   59: Species H            -0.49412200        5.57820000       10.82590000
  |   60: Species H            -1.83108000        2.54845000       10.63020000
  |   61: Species H            -4.71834000        1.84819000        9.23519000
  |   62: Species H            -5.83374000        4.93088000       12.18050000
  |   63: Species H            -1.82681000        4.02137000       12.12880000
  |   64: Species H            -0.55161700        1.04599000        9.18192000
  |   65: Species H            -8.17075000        2.32657000       13.95410000
  |   66: Species H            -1.98446000        5.40203000        7.36470000
  |   67: Species H             1.88404000        3.54555000        7.39374000
  |   68: Species H            -4.23798000        0.61481700       14.12300000
  |   69: Species H            -7.54457000        1.39928000       11.74760000
  |   70: Species H            -2.63523000        4.77206000        9.63321000
  |   71: Species H             1.17908000        4.18672000        9.62475000
  |   72: Species H            -3.73828000        1.23265000       11.76720000
  |   73: Species C            -0.79040300        5.93183000        2.34644000
  |   74: Species C             0.17446100        9.08252000        4.68077000
  |   75: Species C             4.11910000       11.88020000        4.83076000
  |   76: Species C             3.20376000        8.66590000        2.60971000
  |   77: Species C            -0.13832400        6.82758000        1.53855000
  |   78: Species C            -0.52891300        9.96456000        5.44156000
  |   79: Species C             3.36353000       10.97830000        5.57840000
  |   80: Species C             3.98859000        7.86530000        1.82176000
  |   81: Species C             0.20609500        6.53869000        0.18559100
  |   82: Species C            -0.88580900        9.62777000        6.77717000
  |   83: Species C             3.10682000       11.19720000        6.93687000
  |   84: Species C             4.33119000        8.21963000        0.48636900
  |   85: Species C            -3.71264000        7.40115000        6.83358000
  |   86: Species C             3.08754000       10.30830000        0.80541300
  |   87: Species C             7.03876000       10.54060000        0.60017500
  |   88: Species C             0.34332300        7.50010000        6.51904000
  |   89: Species C            -3.38125000        7.12099000        5.49360000
  |   90: Species C             2.76212000        9.93183000        2.08645000
  |   91: Species C             6.65138000       11.05610000        1.83618000
  |   92: Species C             0.63662600        7.87327000        5.23767000
  |   93: Species H            -1.09754000        6.19760000        3.37045000
  |   94: Species H             0.42153500        9.37126000        3.66302000
  |   95: Species H             4.31260000       11.58840000        3.80595000
  |   96: Species H             2.90022000        8.28607000        3.55555000
  |   97: Species H             0.14628400        7.80963000        1.93569000
  |   98: Species H            -0.85470600       10.92560000        5.06123000
  |   99: Species H             3.00694000       10.07540000        5.09764000
  |  100: Species H             4.36013000        6.90723000        2.23590000
  |  101: Species H            -3.42638000        8.38918000        7.26217000
  |  102: Species H             2.70616000       11.22500000        0.39153100
  |  103: Species H             6.59394000        9.60940000        0.28860000
  |  104: Species H             0.77799400        6.62052000        6.97372000
  |  105: Species H            -2.81081000        7.84383000        4.92352000
  |  106: Species H             2.06722000       10.57390000        2.68768000
  |  107: Species H             5.92662000       10.45580000        2.39627000
  |  108: Species H             1.25571000        7.28020000        4.60261000
  |  109: Species C            -5.72524000        6.07714000        9.69048000
  |  110: Species C            -4.65403000        9.05133000       12.15890000
  |  111: Species C            -0.71831200       11.51390000       11.95020000
  |  112: Species C            -1.52424000        8.90821000        9.38790000
  |  113: Species C            -4.90651000        6.90079000        8.93435000
  |  114: Species C            -5.46632000        9.84281000       12.92160000
  |  115: Species C            -1.55388000       10.81740000       12.76620000
  |  116: Species C            -0.83296100        8.00088000        8.61417000
  |  117: Species C            -4.52323000        6.58025000        7.60263000
  |  118: Species C            -5.87954000        9.49002000       14.24890000
  |  119: Species C            -1.87712000       11.28890000       14.04600000
  |  120: Species C            -0.45475300        8.34296000        7.31795000
  |  121: Species C            -8.80844000        7.43159000       13.66830000
  |  122: Species C            -1.63579000       10.48850000        7.60571000
  |  123: Species C             2.41155000       10.27260000        7.77666000
  |  124: Species C            -4.61481000        7.41824000       13.95660000
  |  125: Species C            -8.39106000        7.06829000       12.41540000
  |  126: Species C            -1.98768000       10.12340000        8.88325000
  |  127: Species C             2.17282000       10.55350000        9.08086000
  |  128: Species C            -4.21874000        7.78912000       12.67320000
  |  129: Species H            -5.99317000        6.36550000       10.69250000
  |  130: Species H            -4.33726000        9.31510000       11.15220000
  |  131: Species H            -0.43289100       11.13070000       10.94450000
  |  132: Species H            -1.79074000        8.63754000       10.42570000
  |  133: Species H            -4.49686000        7.81527000        9.33536000
  |  134: Species H            -5.80039000       10.77610000       12.51400000
  |  135: Species H            -2.01424000        9.92747000       12.38780000
  |  136: Species H            -0.60901100        6.97202000        8.93737000
  |  137: Species H            -8.52311000        8.41418000       14.11000000
  |  138: Species H            -1.89522000       11.45070000        7.18872000
  |  139: Species H             2.15315000        9.29727000        7.36565000
  |  140: Species H            -4.27604000        6.46226000       14.32230000
  |  141: Species H            -7.73707000        7.70689000       11.84450000
  |  142: Species H            -2.55410000       10.77090000        9.53870000
  |  143: Species H             1.77173000        9.74693000        9.70675000
  |  144: Species H            -3.55319000        7.12309000       12.09780000

  Lattice parameters for 3D lattice (in Angstroms) :     8.102000   11.880000   17.292000
  Angle(s) between unit vectors (in degrees)       :    90.000000  124.463000   90.000000


  Quantities derived from the lattice vectors (in Angstrom^-1):
  | Reciprocal lattice vector 1:  0.775510  0.000000  0.532257
  | Reciprocal lattice vector 2:  0.000000  0.528888  0.000000
  | Reciprocal lattice vector 3: -0.000000  0.000000  0.440705
  | Unit cell volume                               :   0.137227E+04  Angstrom^3

  Fractional coordinates:
                         L1                L2                L3
       atom_frac         0.08656337        0.03042879        0.16257430  C
       atom_frac         0.41629929        0.25184596        0.33814632  C
       atom_frac         0.95345981        0.49660438        0.34734384  C
       atom_frac         0.60245257        0.24944949        0.16647271  C
       atom_frac         0.13195646        0.09050421        0.10874713  C
       atom_frac         0.38733747        0.32540993        0.39158071  C
       atom_frac         0.91853009        0.42580556        0.39907451  C
       atom_frac         0.63275469        0.17498148        0.11337640  C
       atom_frac         0.06265134        0.05568072        0.01666067  C
       atom_frac         0.46206618        0.29637626        0.48498883  C
       atom_frac         0.97239347        0.45141582        0.49032160  C
       atom_frac         0.56641015        0.20412290        0.01989302  C
       atom_frac         0.09156288        0.12626263        0.46918338  C
       atom_frac         0.43424146        0.38315236        0.03656014  C
       atom_frac         0.92999644        0.36836279        0.03427777  C
       atom_frac         0.58794788        0.11813300        0.46493357  C
       atom_frac         0.01705961        0.10084512        0.37744531  C
       atom_frac         0.49944334        0.35448906        0.12749497  C
       atom_frac         1.01576439        0.39444360        0.12798174  C
       atom_frac         0.51396513        0.14860101        0.37418448  C
       atom_frac         0.13765360        0.06237626        0.23188637  H
       atom_frac         0.34738174        0.26899327        0.26324125  H
       atom_frac         0.90909821        0.47017508        0.27883066  H
       atom_frac         0.64929643        0.22053367        0.23554911  H
       atom_frac         0.22978965        0.16457071        0.13387915  H
       atom_frac         0.31824002        0.40594192        0.36093495  H
       atom_frac         0.84592884        0.34466751        0.36992555  H
       atom_frac         0.71251226        0.09373737        0.14155251  H
       atom_frac         0.16703570        0.20490404        0.50002834  H
       atom_frac         0.34443451        0.45926178        0.00387921  H
       atom_frac         0.85691417        0.28981481       -0.00000934  H
       atom_frac         0.66868872        0.03864301        0.49154766  H
       atom_frac         0.04690754        0.16096717        0.33558550  H
       atom_frac         0.46780385        0.40990825        0.16794495  H
       atom_frac         1.01271874        0.33485690        0.17485449  H
       atom_frac         0.52597179        0.08836785        0.33057466  H
       atom_frac         0.12494107       -0.00439807        0.67580587  C
       atom_frac         0.41590850        0.26352862        0.82976132  C
       atom_frac         0.91051913        0.49269865        0.83109399  C
       atom_frac         0.61569722        0.23789731        0.67437781  C
       atom_frac         0.13818016        0.07281204        0.62133762  C
       atom_frac         0.39243714        0.33384764        0.88479350  C
       atom_frac         0.88495213        0.41589646        0.88358007  C
       atom_frac         0.63422859        0.16766835        0.61677919  C
       atom_frac         0.06800949        0.04986313        0.52681497  C
       atom_frac         0.46376506        0.30955135        0.97977767  C
       atom_frac         0.94762576        0.44240572        0.97531674  C
       atom_frac         0.56340433        0.19244444        0.52187849  C
       atom_frac         0.09461817        0.11519529        0.95657522  C
       atom_frac         0.43777519        0.37165993        0.54223043  C
       atom_frac         0.93883079        0.37887626        0.54575850  C
       atom_frac         0.59348470        0.13100421        0.96172353  C
       atom_frac         0.03787969        0.07151835        0.86998686  C
       atom_frac         0.50796973        0.34158081        0.63378053  C
       atom_frac         0.99858977        0.41021717        0.63611200  C
       atom_frac         0.52047931        0.16053114        0.87136161  C
       atom_frac         0.18480504        0.01729537        0.74745853  H
       atom_frac         0.34501254        0.28472054        0.75555975  H
       atom_frac         0.85608790        0.46954545        0.75933331  H
       atom_frac         0.67449411        0.21451599        0.74560683  H
       atom_frac         0.19995720        0.15557155        0.64776022  H
       atom_frac         0.31178839        0.41505724        0.85434554  H
       atom_frac         0.80196942        0.33849916        0.85071928  H
       atom_frac         0.70972790        0.08804630        0.64402384  H
       atom_frac         0.17358374        0.19583923        0.97874661  H
       atom_frac         0.37893838        0.45471633        0.51656324  H
       atom_frac         0.85887310        0.29844697        0.51860012  H
       atom_frac         0.67329878        0.05175227        0.99059333  H
       atom_frac         0.06395545        0.11778451        0.82398175  H
       atom_frac         0.49078457        0.40168855        0.67567752  H
       atom_frac         0.96085413        0.35241751        0.67508413  H
       atom_frac         0.53541214        0.10375842        0.82535650  H
       atom_frac         0.10121334        0.49931229        0.16458032  C
       atom_frac         0.41804697        0.76452189        0.32831123  C
       atom_frac         0.91762507        1.00001684        0.33883160  C
       atom_frac         0.61650009        0.72945286        0.18304619  C
       atom_frac         0.11325968        0.57471212        0.10791456  C
       atom_frac         0.39567959        0.83876768        0.38167337  C
       atom_frac         0.88770137        0.92409933        0.39127139  C
       atom_frac         0.64662054        0.66206229        0.12777903  C
       atom_frac         0.04115919        0.55039478        0.01301743  C
       atom_frac         0.46477042        0.81041835        0.47535364  C
       atom_frac         0.97109429        0.94252525        0.48655506  C
       atom_frac         0.57578375        0.69188805        0.03411413  C
       atom_frac         0.12064365        0.62299242        0.47931026  C
       atom_frac         0.44931123        0.86770202        0.05649202  C
       atom_frac         0.91960978        0.88725589        0.04209653  C
       atom_frac         0.59461114        0.63132155        0.45724829  C
       atom_frac         0.04803452        0.59940993        0.38532348  C
       atom_frac         0.51766409        0.83601263        0.14634451  C
       atom_frac         0.97650043        0.93064815        0.12879046  C
       atom_frac         0.52226599        0.66273316        0.36737244  C
       atom_frac         0.15004973        0.52168350        0.23640482  H
       atom_frac         0.36232753        0.78882660        0.25692581  H
       atom_frac         0.85469512        0.97545455        0.26695098  H
       atom_frac         0.65915856        0.69748064        0.24938781  H
       atom_frac         0.18203002        0.65737626        0.13577013  H
       atom_frac         0.32324993        0.91966330        0.35499686  H
       atom_frac         0.80296300        0.84809764        0.35755067  H
       atom_frac         0.72756067        0.58141667        0.15682699  H
       atom_frac         0.19228207        0.70615993        0.50937175  H
       atom_frac         0.36717844        0.94486532        0.02746215  H
       atom_frac         0.83831338        0.80887205        0.02024253  H
       atom_frac         0.68677749        0.55728283        0.48913974  H
       atom_frac         0.07014963        0.66025505        0.34533782  H
       atom_frac         0.48282609        0.89005892        0.18851504  H
       atom_frac         0.93449190        0.88011785        0.16807541  H
       atom_frac         0.54488052        0.61281145        0.32282906  H
       atom_frac         0.11424743        0.51154377        0.67969446  C
       atom_frac         0.45556589        0.76189646        0.85283051  C
       atom_frac         0.92365782        0.96918350        0.83819220  C
       atom_frac         0.60712945        0.74984933        0.65847137  C
       atom_frac         0.15124754        0.58087458        0.62665917  C
       atom_frac         0.41991720        0.82851936        0.90632661  C
       atom_frac         0.88965112        0.91055556        0.89542679  C
       atom_frac         0.62690783        0.67347475        0.60420161  C
       atom_frac         0.08574271        0.55389310        0.53325176  C
       atom_frac         0.48135223        0.79882323        0.99942401  C
       atom_frac         0.95816826        0.95024411        0.98519252  C
       atom_frac         0.56378423        0.70226936        0.51328418  C
       atom_frac         0.07066554        0.62555471        0.95870047  C
       atom_frac         0.44238970        0.88287037        0.53346779  C
       atom_frac         0.95641934        0.86469697        0.54545830  C
       atom_frac         0.61269209        0.62443098        0.97892196  C
       atom_frac         0.01604648        0.59497391        0.87082153  C
       atom_frac         0.50717922        0.85213805        0.62307500  C
       atom_frac         1.03743420        0.88834175        0.63693545  C
       atom_frac         0.55285913        0.65564983        0.88890373  C
       atom_frac         0.16606019        0.53581650        0.74997658  H
       atom_frac         0.40938482        0.78409933        0.78222013  H
       atom_frac         0.87369217        0.93692761        0.76765196  H
       atom_frac         0.66214968        0.72706566        0.73126311  H
       atom_frac         0.23577919        0.65785101        0.65478619  H
       atom_frac         0.34415586        0.90707912        0.87773737  H
       atom_frac         0.80077584        0.83564562        0.86888565  H
       atom_frac         0.68192783        0.58687037        0.62687100  H
       atom_frac         0.14329973        0.70826431        0.98968150  H
       atom_frac         0.37504546        0.96386364        0.50421993  H
       atom_frac         0.88970881        0.78259848        0.51662988  H
       atom_frac         0.68548413        0.54396128        1.00457232  H
       atom_frac         0.04840441        0.64872811        0.83077835  H
       atom_frac         0.49279208        0.90664141        0.66904854  H
       atom_frac         1.04094906        0.82044865        0.68083564  H
       atom_frac         0.58626265        0.59958670        0.84854492  H

 
  Finished reading input file 'geometry.in'.
 

 
  Consistency checks for stacksize environment parameter are next.
 
  | Maximum stacksize for task 0: unlimited
  | Maximum stacksize for task 1: unlimited
  | Maximum stacksize for task 2: unlimited
  | Maximum stacksize for task 3: unlimited
  | Maximum stacksize for task 4: unlimited
  | Maximum stacksize for task 5: unlimited
  | Maximum stacksize for task 6: unlimited
  | Maximum stacksize for task 7: unlimited
  | Maximum stacksize for task 8: unlimited
  | Maximum stacksize for task 9: unlimited
  | Maximum stacksize for task 10: unlimited
  | Maximum stacksize for task 11: unlimited
  | Maximum stacksize for task 12: unlimited
  | Maximum stacksize for task 13: unlimited
  | Maximum stacksize for task 14: unlimited
  | Maximum stacksize for task 15: unlimited
  | Maximum stacksize for task 16: unlimited
  | Maximum stacksize for task 17: unlimited
  | Current stacksize for task 0: unlimited
  | Current stacksize for task 1: unlimited
  | Current stacksize for task 2: unlimited
  | Current stacksize for task 3: unlimited
  | Current stacksize for task 4: unlimited
  | Current stacksize for task 5: unlimited
  | Current stacksize for task 6: unlimited
  | Current stacksize for task 7: unlimited
  | Current stacksize for task 8: unlimited
  | Current stacksize for task 9: unlimited
  | Current stacksize for task 10: unlimited
  | Current stacksize for task 11: unlimited
  | Current stacksize for task 12: unlimited
  | Current stacksize for task 13: unlimited
  | Current stacksize for task 14: unlimited
  | Current stacksize for task 15: unlimited
  | Current stacksize for task 16: unlimited
  | Current stacksize for task 17: unlimited
 
  Consistency checks for the contents of control.in are next.
 
  MPI_IN_PLACE appears to work with this MPI implementation.
  | Keeping use_mpi_in_place .true. (see manual).
  Explicit treatment of the Coulomb operator is needed, but the RI method is not specified.
  Coulomb operator: Defaulting to 'LVL fast' resolution of identity - RI_type = LVL_fast
  Species H: Using default value for prodbas_acc =   1.000000E-06.
  Species H: Using default value max_l_prodbas =     6.
  Species C: Using default value for prodbas_acc =   1.000000E-06.
  Species C: Using default value max_l_prodbas =     6.
  Target number of points in a grid batch is not set.  Since GPU acceleration is enabled, defaulting to  200
  Method for grid partitioning is not set. Defaulting to parallel hash+maxmin partitioning.
  Batch size limit is not set. Defaulting to    200
  By default, will store active basis functions for each batch.
  If in need of memory, prune_basis_once .false. can be used to disable this option.
  communication_type for Hartree potential was not specified.
  Defaulting to calc_hartree .
  Defaulting to Pulay charge density mixer.
  Pulay mixer: Number of relevant iterations not set.
  Defaulting to    8 iterations.
  Pulay mixer: Number of initial linear mixing iterations not set.
  Defaulting to    0 iterations.
  Work space size for distributed Hartree potential not set.
  Defaulting to   0.200000E+03 MB.
  Algorithm-dependent basis array size parameters:
  | n_max_pulay                         :        8
  Maximum number of self-consistency iterations not provided.
  Presetting  1000 iterations.
  Presetting      1001 iterations before the initial mixing cycle
  is restarted anyway using the sc_init_iter criterion / keyword.
  Presetting a factor      1.000 between actual scf density residual
  and density convergence criterion sc_accuracy_rho below which sc_init_iter
  takes no effect.
 * No s.c.f. convergence criteria (sc_accuracy_*) were provided in control.in.
 * The run will proceed with a reasonable default guess, but please check whether.
 * the s.c.f. cycles seem to take too much or too little time.
  Geometry relaxation not requested: no relaxation will be performed.
 * Notice: The s.c.f. convergence criterion sc_accuracy_rho was not provided.
 * We used to stop in this case, and ask the user to provide reasonable
 * scf convergence criteria. However, this led some users to employ criteria
 * that led to extremely long run times, e.g., for simple relaxation.
 * We now preset a default value for sc_accuracy_rho if it is not set.
 * You may still wish to check if this setting is too tight or too loose for your needs.
 * Based on n_atoms and forces and force-correction status, FHI-aims chose sc_accuracy_rho =  0.391918E-04 .
  No accuracy limit for integral partition fn. given. Defaulting to  0.1000E-14.
  No threshold value for u(r) in integrations given. Defaulting to  0.1000E-05.
  No occupation type (smearing scheme) given. Defaulting to Gaussian broadening, width =  0.1000E-01 eV.
  The width will be adjusted in iteration number     2 of the first full s.c.f. cycle only.
  S.C.F. convergence parameters will be adjusted in iteration number     2 of the first full s.c.f. cycle only.
  No accuracy for occupation numbers given. Defaulting to  0.1000E-12.
  No threshold value for occupation numbers given. Defaulting to  0.0000E+00.
  No accuracy for fermi level given. Defaulting to  0.1000E-19.
  Maximum # of iterations to find E_F not set. Defaulting to  200.
  Preferred method for the eigenvalue solver ('KS_method') not specified in 'control.in'.
  Calling BLACS routine to test compilation state
  Since ScaLAPACK support is enabled, defaulting to ELPA (via ELSI).
  Will not use alltoall communication since running on < 1024 CPUs.
  Threshold for basis singularities not set.
  Default threshold for basis singularities:  0.1000E-04
  partition_type (choice of integration weights) for integrals was not specified.
  | Using a version of the partition function of Stratmann and coworkers ('stratmann_sparse').
  | At each grid point, the set of atoms used to build the partition table is smoothly restricted to
  | only those atoms whose free-atom density would be non-zero at that grid point.
  Partitioning for Hartree potential was not defined. Using partition_type for integrals.
  | Adjusted default value of keyword multip_moments_threshold to:       0.10000000E-11
  | This value may affect high angular momentum components of the Hartree potential in periodic systems.
  Angular momentum expansion for Kerker preconditioner not set explicitly.
  | Using default value of   0
  No explicit requirement for turning off preconditioner.
  | By default, it will be turned off when the charge convergence reaches
  | sc_accuracy_rho  =   0.391918E-04
  No special mixing parameter while Kerker preconditioner is on.
  Using default: charge_mix_param =     0.7500.
  Threshold for auxiliary basis singularities not set.
  Default threshold for auxiliary basis singularities:  0.1000E-04
  No q(lm)/r^(l+1) cutoff set for long-range Hartree potential.
  | Using default value of  0.100000E-09 .
  | Verify using the multipole_threshold keyword.
  Defaulting to new monopole extrapolation.
  Density update method: automatic selection selected.
  Using density matrix based charge density update.
  Using density matrix based charge density update.
  Using packed matrix style: index .
  Defaulting to use time-reversal symmetry for k-point grid.
  Charge integration errors on the 3D integration grid will be compensated
  by explicit normalization and distribution of residual charges.
  Use the "compensate_multipole_errors" flag to change this behaviour.
  Default to 1D ("use_logsbt") integrations for auxiliary 2-center integrals.
  Default onset of logarithmic r-grid for SBT is -38.000000000000
  Default onset of logarithmic k-grid for SBT is -25.000000000000
  Default range of logarithmic r- and k-grid for SBT is  45.000000000000
  Default number of logarithmic r- and k-grid for SBT is   4096
  Default of use_2d_corr is to use the efficient 2D distribution where possible
 
  Consistency checks for the contents of geometry.in are next.
 

  Range separation radius for Ewald summation (hartree_convergence_parameter):      2.91768261 bohr.
  Number of empty states per atom not set in control.in .
  | Since you are using a method that relies on the unoccupied spectrum
  | (MP2,GW,RPA et al.), will use the full Hamiltonian size (see below)
  | as the max. possible number of states (occupied plus empty).

  Structure-dependent array size parameters: 
  | Maximum number of distinct radial functions  :        9
  | Maximum number of basis functions            :     1440
  | Number of Kohn-Sham states (occupied + empty):     1440
------------------------------------------------------------
CUDA runtime version: 11060
CUDA driver version: 11060
  Initializing GPUs...

  Number of GPUs available to MPI task         0 :   1
  Number of GPUs available to MPI task         1 :   1
  Number of GPUs available to MPI task         2 :   1
  Number of GPUs available to MPI task         3 :   1
  Number of GPUs available to MPI task         4 :   1
  Number of GPUs available to MPI task         5 :   1
  Number of GPUs available to MPI task         6 :   1
  Number of GPUs available to MPI task         7 :   1
  Number of GPUs available to MPI task         8 :   1
  Number of GPUs available to MPI task         9 :   1
  Number of GPUs available to MPI task        10 :   1
  Number of GPUs available to MPI task        11 :   1
  Number of GPUs available to MPI task        12 :   1
  Number of GPUs available to MPI task        13 :   1
  Number of GPUs available to MPI task        14 :   1
  Number of GPUs available to MPI task        15 :   1
  Number of GPUs available to MPI task        16 :   1
  Number of GPUs available to MPI task        17 :   1

  | MPI task         0, GPU activated = T, Device Name = NVIDIA A100-SXM4-80GB
  | MPI task         1, GPU activated = T, Device Name = NVIDIA A100-SXM4-80GB
  | MPI task         2, GPU activated = T, Device Name = NVIDIA A100-SXM4-80GB
  | MPI task         3, GPU activated = T, Device Name = NVIDIA A100-SXM4-80GB
  | MPI task         4, GPU activated = T, Device Name = NVIDIA A100-SXM4-80GB
  | MPI task         5, GPU activated = T, Device Name = NVIDIA A100-SXM4-80GB
  | MPI task         6, GPU activated = T, Device Name = NVIDIA A100-SXM4-80GB
  | MPI task         7, GPU activated = T, Device Name = NVIDIA A100-SXM4-80GB
  | MPI task         8, GPU activated = T, Device Name = NVIDIA A100-SXM4-80GB
  | MPI task         9, GPU activated = T, Device Name = NVIDIA A100-SXM4-80GB
  | MPI task        10, GPU activated = T, Device Name = NVIDIA A100-SXM4-80GB
  | MPI task        11, GPU activated = T, Device Name = NVIDIA A100-SXM4-80GB
  | MPI task        12, GPU activated = T, Device Name = NVIDIA A100-SXM4-80GB
  | MPI task        13, GPU activated = T, Device Name = NVIDIA A100-SXM4-80GB
  | MPI task        14, GPU activated = T, Device Name = NVIDIA A100-SXM4-80GB
  | MPI task        15, GPU activated = T, Device Name = NVIDIA A100-SXM4-80GB
  | MPI task        16, GPU activated = T, Device Name = NVIDIA A100-SXM4-80GB
  | MPI task        17, GPU activated = T, Device Name = NVIDIA A100-SXM4-80GB

------------------------------------------------------------
          Preparing all fixed parts of the calculation.
------------------------------------------------------------
  Determining machine precision:
    2.225073858507201E-308
  Setting up grids for atomic and cluster calculations.

  Creating wave function, potential, and density for free atoms.
  Runtime choices for atomic solver:
  | atomic solver xc        : PW-LDA
  | compute density gradient: 0
  | compute kinetic density : F

  Species: H

  List of occupied orbitals and eigenvalues:
    n    l              occ      energy [Ha]    energy [eV]
    1    0           1.0000        -0.232375        -6.3233


  Species: C

  List of occupied orbitals and eigenvalues:
    n    l              occ      energy [Ha]    energy [eV]
    1    0           2.0000        -9.944615      -270.6068
    2    0           2.0000        -0.498807       -13.5732
    2    1           2.0000        -0.196968        -5.3598


  Adding cutoff potential to free-atom effective potential.
  Creating fixed part of basis set: Ionic, confined, hydrogenic.
 
  H                    hydrogenic:
 
  List of hydrogenic basis orbitals: 
    n    l      effective z      eigenvalue [eV]  inner max. [A]     outer max. [A]     outer radius [A]   
    2    0         2.100000       -14.9728           0.193243           1.317208           4.583499
    2    1         3.500000       -41.6669           0.602369           0.602369           3.723403
 
 
  C                    hydrogenic:
 
  List of hydrogenic basis orbitals: 
    n    l      effective z      eigenvalue [eV]  inner max. [A]     outer max. [A]     outer radius [A]   
    2    1         1.700000        -9.7616           1.230570           1.230570           4.607917
    3    2         6.000000       -54.4224           0.792453           0.792453           3.883070
    2    0         4.900000       -81.6679           0.082559           0.562749           3.078220
 
  Creating atomic-like basis functions for current effective potential.

  Species H                   :

  List of atomic basis orbitals and eigenvalues:
    n    l      energy [Ha]    energy [eV]    outer radius [A]
    1    0        -0.232375        -6.3233       4.527807


  Species C                   :

  List of atomic basis orbitals and eigenvalues:
    n    l      energy [Ha]    energy [eV]    outer radius [A]
    1    0        -9.944615      -270.6068       1.934409
    2    0        -0.498807       -13.5732       4.496620
    2    1        -0.196968        -5.3598       4.551928

  Assembling full basis from fixed parts.
  | Species H :   atomic orbital   1 s accepted.
  | Species H :    hydro orbital   2 s accepted.
  | Species H :    hydro orbital   2 p accepted.
  | Species C :   atomic orbital   1 s accepted.
  | Species C :    hydro orbital   2 s accepted.
  | Species C :   atomic orbital   2 s accepted.
  | Species C :   atomic orbital   2 p accepted.
  | Species C :    hydro orbital   2 p accepted.
  | Species C :    hydro orbital   3 d accepted.
 
  Basis size parameters after reduction:
  | Total number of radial functions:        9
  | Total number of basis functions :     1440
 
  Per-task memory consumption for arrays in subroutine allocate_ext:
  |           2.242384MB.
  Testing on-site integration grid accuracy.
  |  Species  Function  <phi|h_atom|phi> (log., in eV)  <phi|h_atom|phi> (rad., in eV)
           1        1                 -6.3245358373                 -6.3232436907
           1        2                 14.1326137532                 14.1384481100
           1        3                 25.3627025200                 25.3628451197
           2        4               -270.6067544938               -270.6067222788
           2        5                -10.5634280949                -10.5635685736
           2        6                 16.2089822398                 16.2052121796
           2        7                 -5.3613872565                 -5.3627872378
           2        8                  8.5292058327                  8.5051734780
           2        9                 27.4884461005                 27.4884542459

  Preparing densities etc. for the partition functions (integrals / Hartree potential).

  Preparations completed.
  max(cpu_time)          :      0.072 s.
  Wall clock time (cpu1) :      0.067 s.
------------------------------------------------------------

  Initializing index lists of integration centers etc. from given atomic structure:
  Mapping all atomic coordinates to central unit cell.

  Initializing the k-points
  Using symmetry for reducing the k-points
  | k-points reduced from:        2 to        2
  | Number of k-points                             :         2
  | Consuming          0 KiB for k_phase_exx.
  The eigenvectors in the calculations are REAL.
  | Number of basis functions in the Hamiltonian integrals :      8043
  | Number of basis functions in a single unit cell        :      1440
  | Number of centers in hartree potential         :      3318
  | Number of centers in hartree multipole         :      2555
  | Number of centers in electron density summation:      1991
  | Number of centers in basis integrals           :      2126
  | Number of centers in integrals                 :       964
  | Number of centers in hamiltonian               :      1997
  | Consuming          1 KiB for k_phase.
  | Number of super-cells (origin) [n_cells]                     :         175
  | Number of super-cells (after PM_index) [n_cells]             :          38
  | Number of super-cells in hamiltonian [n_cells_in_hamiltonian]:          38
  | Size of matrix packed + index [n_hamiltonian_matrix_size] :     1930351
  | Size of matrix packed + index (no_symmetry):     3857885

------------------------------------------------------------
          Begin self-consistency loop: Initialization.

          Date     :  20230119, Time     :  210209.330
------------------------------------------------------------
  | Estimated reciprocal-space cutoff momentum G_max:         3.24344278 bohr^-1 .
  | Reciprocal lattice points for long-range Hartree potential:    5310
  Using simple linear distribution as default method for k-point parallelism.
  * Using 18 tasks for Scalapack Eigenvalue solver.
  Detailed listing of tasks and assigned k-points:
   Task     0 k-point     1 on adag015
   Task     1 k-point     1 on adag015
   Task     2 k-point     1 on adag015
   Task     3 k-point     1 on adag015
   Task     4 k-point     1 on adag015
   Task     5 k-point     1 on adag015
   Task     6 k-point     1 on adag015
   Task     7 k-point     1 on adag015
   Task     8 k-point     1 on adag015
   Task     9 k-point     2 on adag015
   Task    10 k-point     2 on adag015
   Task    11 k-point     2 on adag015
   Task    12 k-point     2 on adag015
   Task    13 k-point     2 on adag015
   Task    14 k-point     2 on adag015
   Task    15 k-point     2 on adag015
   Task    16 k-point     2 on adag015
   Task    17 k-point     2 on adag015
  K-point:     1 Tasks:     9 split into      3 X      3 BLACS grid
  Calculating block size based on n_basis =         1440  max_nprow =            3  max_npcol =            3
  ScaLAPACK block size set to:           16
  Allocating        1.758 MB for ovlp
  Allocating        1.758 MB for ham
  Allocating        1.758 MB for eigenvec
  Required Scalapack workspace - INTEGER:            1  REAL:             1
  Partitioning the integration grid into batches with parallel hashing+maxmin method.
  | Number of batches:     5583
  | Maximal batch size:     200
  | Minimal batch size:      99
  | Average batch size:     136.815
  | Standard deviation of batch sizes:      30.743

  Integration load balanced across    18 MPI tasks.
  Work distribution over tasks is as follows:
  Task     0 has      42446 integration points.
  Task     1 has      42423 integration points.
  Task     2 has      42462 integration points.
  Task     3 has      42442 integration points.
  Task     4 has      42429 integration points.
  Task     5 has      42448 integration points.
  Task     6 has      42425 integration points.
  Task     7 has      42448 integration points.
  Task     8 has      42440 integration points.
  Task     9 has      42404 integration points.
  Task    10 has      42383 integration points.
  Task    11 has      42434 integration points.
  Task    12 has      42461 integration points.
  Task    13 has      42407 integration points.
  Task    14 has      42434 integration points.
  Task    15 has      42488 integration points.
  Task    16 has      42436 integration points.
  Task    17 has      42430 integration points.
  Initializing partition tables, free-atom densities, potentials, etc. across the integration grid (initialize_grid_storage).
  | initialize_grid_storage: Actual outermost partition radius vs. multipole_radius_free
  | (-- VB: in principle, multipole_radius_free should be larger, hence this output)
  | Species        1: Confinement radius =              4.999999999999999 AA, multipole_radius_free =              5.054417573612229 AA.
  | Species        1: outer_partition_radius set to              5.054417573612229 AA .
  | Species        2: Confinement radius =              4.999999999999999 AA, multipole_radius_free =              5.019602836301480 AA.
  | Species        2: outer_partition_radius set to              5.019602836301480 AA .
  | The sparse table of interatomic distances needs       7649.77 kbyte instead of     36159.01 kbyte of memory.
  | Net number of integration points:   763840
  | of which are non-zero points    :   605402
  | Numerical average free-atom electrostatic potential    :     -8.61467275 eV
  Renormalizing the initial density to the exact electron count on the 3D integration grid.
  | Initial density: Formal number of electrons (from input files) :     544.0000000000
  | Integrated number of electrons on 3D grid     :     543.9957979285
  | Charge integration error                      :      -0.0042020715
  | Normalization factor for density and gradient :       1.0000077245
  Renormalizing the free-atom superposition density to the exact electron count on the 3D integration grid.
  | Formal number of electrons (from input files) :     544.0000000000
  | Integrated number of electrons on 3D grid     :     543.9957979285
  | Charge integration error                      :      -0.0042020715
  | Normalization factor for density and gradient :       1.0000077245
  Obtaining max. number of non-zero basis functions in each batch (get_n_compute_maxes).
  | Maximal number of non-zero basis functions:      554 in task     0
  | Maximal number of non-zero basis functions:      556 in task     1
  | Maximal number of non-zero basis functions:      542 in task     2
  | Maximal number of non-zero basis functions:      537 in task     3
  | Maximal number of non-zero basis functions:      550 in task     4
  | Maximal number of non-zero basis functions:      547 in task     5
  | Maximal number of non-zero basis functions:      547 in task     6
  | Maximal number of non-zero basis functions:      544 in task     7
  | Maximal number of non-zero basis functions:      534 in task     8
  | Maximal number of non-zero basis functions:      567 in task     9
  | Maximal number of non-zero basis functions:      545 in task    10
  | Maximal number of non-zero basis functions:      552 in task    11
  | Maximal number of non-zero basis functions:      537 in task    12
  | Maximal number of non-zero basis functions:      532 in task    13
  | Maximal number of non-zero basis functions:      554 in task    14
  | Maximal number of non-zero basis functions:      543 in task    15
  | Maximal number of non-zero basis functions:      541 in task    16
  | Maximal number of non-zero basis functions:      533 in task    17
  Integrating Hamiltonian matrix: batch-based integration.
  GPU acceleration will be used when integrating the Hamiltonian matrix.
  Reporting GPU memory usage by myid 0.  Note that it is likely not the only MPI task binding to its GPU!
  Allocating        2.455 MB on GPU for hamiltonian_shell
  Allocating        0.886 MB on GPU for wave
  Allocating        0.002 MB on GPU for partition
  Allocating        0.886 MB on GPU for h_times_psi
  Time summed over all CPUs for integration: real work       22.637 s, elapsed       23.315 s
  Deallocating memory used on GPU for Hamiltonian integration.
  Integrating overlap matrix.
  Time summed over all CPUs for integration: real work       19.634 s, elapsed       20.060 s
  Deallocating overlap matrix.

  Updating Kohn-Sham eigenvalues and eigenvectors using ELSI and the ELPA eigensolver.
  Singularity check in k-point 1 (analysis for other k-points may follow below):
  Overlap matrix is not singular
  | Lowest and highest eigenvalues :  0.7821E-03,  0.8251E+01
  Finished singularity check of overlap matrix
  | Time :     0.103 s
  Starting ELPA eigensolver
  Finished Cholesky decomposition
  | Time :     0.017 s
  Finished transformation to standard eigenproblem
  | Time :     0.022 s
  Finished solving standard eigenproblem
  | Time :     0.216 s
  Finished back-transformation of eigenvectors
  | Time :     0.017 s

  Obtaining occupation numbers and electronic chemical potential using ELSI.
  | Note that, for insulating systems, the printed 'chemical potential' value is not uniquely defined.
  | It can be anywhere in the energy gap, as long as it correctly separates occupied and unoccupied states.
  | In systems with a gap, the physically relevant chemical potential is the VBM or HOMO.

  | Chemical potential (Fermi level):    -9.10883750 eV
  Writing Kohn-Sham eigenvalues.
  K-point:       1 at    0.000000    0.000000    0.000000 (in units of recip. lattice)

  State    Occupation    Eigenvalue [Ha]    Eigenvalue [eV]
      1       2.00000         -10.072706         -274.09228
      2       2.00000         -10.072299         -274.08120
      3       2.00000         -10.071289         -274.05373
      4       2.00000         -10.069833         -274.01410
      5       2.00000         -10.069564         -274.00679
      6       2.00000         -10.069010         -273.99170
      7       2.00000         -10.068984         -273.99101
      8       2.00000         -10.068493         -273.97763
      9       2.00000         -10.068264         -273.97140
     10       2.00000         -10.067895         -273.96135
     11       2.00000         -10.067797         -273.95871
     12       2.00000         -10.067702         -273.95611
     13       2.00000         -10.067606         -273.95350
     14       2.00000         -10.067487         -273.95027
     15       2.00000         -10.067486         -273.95023
     16       2.00000         -10.067397         -273.94780
     17       2.00000         -10.067192         -273.94224
     18       2.00000         -10.067130         -273.94056
     19       2.00000         -10.066832         -273.93242
     20       2.00000         -10.066820         -273.93210
     21       2.00000         -10.066778         -273.93097
     22       2.00000         -10.066657         -273.92768
     23       2.00000         -10.066417         -273.92115
     24       2.00000         -10.066213         -273.91560
     25       2.00000         -10.066175         -273.91456
     26       2.00000         -10.066139         -273.91359
     27       2.00000         -10.066025         -273.91048
     28       2.00000         -10.065831         -273.90520
     29       2.00000         -10.065693         -273.90144
     30       2.00000         -10.065597         -273.89883
     31       2.00000         -10.065385         -273.89307
     32       2.00000         -10.065229         -273.88882
     33       2.00000         -10.065038         -273.88362
     34       2.00000         -10.064804         -273.87724
     35       2.00000         -10.064706         -273.87459
     36       2.00000         -10.064658         -273.87327
     37       2.00000         -10.064589         -273.87141
     38       2.00000         -10.064437         -273.86728
     39       2.00000         -10.064334         -273.86446
     40       2.00000         -10.064205         -273.86096
     41       2.00000         -10.064190         -273.86055
     42       2.00000         -10.064001         -273.85541
     43       2.00000         -10.063939         -273.85371
     44       2.00000         -10.063899         -273.85263
     45       2.00000         -10.063889         -273.85235
     46       2.00000         -10.063880         -273.85212
     47       2.00000         -10.063737         -273.84823
     48       2.00000         -10.063448         -273.84036
     49       2.00000         -10.063215         -273.83402
     50       2.00000         -10.062994         -273.82799
     51       2.00000         -10.062934         -273.82637
     52       2.00000         -10.062529         -273.81535
     53       2.00000         -10.062156         -273.80520
     54       2.00000         -10.061778         -273.79490
     55       2.00000         -10.060922         -273.77163
     56       2.00000         -10.060890         -273.77073
     57       2.00000         -10.060771         -273.76750
     58       2.00000         -10.060522         -273.76074
     59       2.00000         -10.060119         -273.74978
     60       2.00000         -10.060039         -273.74760
     61       2.00000         -10.059916         -273.74424
     62       2.00000         -10.059908         -273.74403
     63       2.00000         -10.059809         -273.74133
     64       2.00000         -10.059704         -273.73848
     65       2.00000         -10.059687         -273.73800
     66       2.00000         -10.059431         -273.73104
     67       2.00000         -10.058888         -273.71627
     68       2.00000         -10.058815         -273.71429
     69       2.00000         -10.058569         -273.70759
     70       2.00000         -10.058260         -273.69919
     71       2.00000         -10.058130         -273.69565
     72       2.00000         -10.056945         -273.66341
     73       2.00000         -10.056570         -273.65320
[...]
  |    H      0     4.527807 A      4.583499 A        4.713786E-16 a.u.
  |    H      2     3.678162 A  1.011968E+04 A            0.556529 a.u.
  |    H      1     3.958095 A  1.721251E+06 A            0.841931 a.u.
  |    H      0     4.527807 A  3.866455E+12 A            0.581436 a.u.
  |    C      0     2.562483 A      2.562483 A        6.563029E-17 a.u.
  |    C      0     2.967371 A      2.967371 A        1.352164E-16 a.u.
  |    C      0     3.003870 A      3.003870 A        2.312640E-17 a.u.
  |    C      1     3.272245 A      3.272245 A       -3.835259E-17 a.u.
  |    C      0     3.312494 A      3.312494 A       -2.710381E-16 a.u.
  |    C      3     4.077671 A      4.077671 A       -1.683752E-15 a.u.
  |    C      3     4.077671 A      4.077671 A        1.412852E-15 a.u.
  |    C      1     4.496620 A      4.496620 A       -3.011059E-16 a.u.
  |    C      0     4.496620 A      4.551928 A        2.873903E-17 a.u.
  |    C      2     4.551928 A      4.551928 A       -4.610785E-16 a.u.
  |    C      2     4.551928 A      4.551928 A        7.440584E-16 a.u.
  |    C      2     4.551928 A      4.551928 A       -7.110458E-16 a.u.
  |    C      2     4.551928 A      4.551928 A       -1.935424E-16 a.u.
  |    C      0     4.551928 A      4.607917 A        2.067142E-16 a.u.
  |    C      0     4.551928 A      4.607917 A       -1.109786E-16 a.u.
  |    C      1     4.551928 A      4.607917 A       -9.951742E-17 a.u.
  |    C      1     4.551928 A      4.607917 A        1.937809E-16 a.u.
  |    C      1     4.607917 A      4.607917 A       -2.813308E-16 a.u.
  |    C      1     4.607917 A      4.607917 A       -7.330363E-17 a.u.
  |    C      2     4.607917 A      4.607917 A        1.318462E-15 a.u.
  |    C      2     4.607917 A      4.607917 A       -1.318397E-15 a.u.
  |    C      0     4.607917 A      4.664595 A        3.157826E-16 a.u.
  |    C      1     4.607917 A      4.664595 A        7.356967E-16 a.u.
  |    C      4     3.835889 A  2.962973E+02 A            4.379483 a.u.
  |    C      3     4.127827 A  1.725964E+03 A            9.005588 a.u.
  |    C      2     4.607917 A  2.608475E+04 A            9.531178 a.u.
  |    C      1     4.607917 A  2.736013E+06 A            2.127278 a.u.
  |    C      0     4.607917 A  4.399765E+12 A            0.661635 a.u.

  | Shrink_full_auxil_basis : there are       36  radial auxiliary wave functions
                            accepted and       7 rejected.
  | Shrink_full_auxil_basis : there are totally                8992 partial auxiliary wave functions.
 
  | Maximal number of product basis functions per thread :   512   512
 
  | Minimal total memory requirement for three-center overlap :      72.476 Gbs
  | Number of local auxiliary basis functions on task:      0   512
  | Number of local auxiliary basis functions on task:      1   512
  | Number of local auxiliary basis functions on task:      2   512
  | Number of local auxiliary basis functions on task:      3   512
  | Number of local auxiliary basis functions on task:      4   496
  | Number of local auxiliary basis functions on task:      5   496
  | Number of local auxiliary basis functions on task:      6   496
  | Number of local auxiliary basis functions on task:      7   496
  | Number of local auxiliary basis functions on task:      8   496
  | Number of local auxiliary basis functions on task:      9   496
  | Number of local auxiliary basis functions on task:     10   496
  | Number of local auxiliary basis functions on task:     11   496
  | Number of local auxiliary basis functions on task:     12   496
  | Number of local auxiliary basis functions on task:     13   496
  | Number of local auxiliary basis functions on task:     14   496
  | Number of local auxiliary basis functions on task:     15   496
  | Number of local auxiliary basis functions on task:     16   496
  | Number of local auxiliary basis functions on task:     17   496
  | 2D aux task distribution:      3 X      6
  | 2D block size (nb_aux_2d):     64
 
  Basis pair condensation :   1037520  -->     547449
 
 --------------------------------------------
  Constructing auxiliary basis (full product) ...
 
  Product basis:
  | charge radius: extent of product basis function
  | field radius: extent of its Coulomb potential
  | Species   l  charge radius    field radius  multipol momen
  |    H      1     3.910002 A      3.910002 A       -2.487223E-16 a.u.
  |    H      1     3.958095 A      3.958095 A       -2.441841E-16 a.u.
  |    H      0     4.527807 A      4.527807 A        1.268855E-16 a.u.
  |    H      0     4.527807 A      4.583499 A       -4.900954E-17 a.u.
  |    H      0     4.527807 A      4.583499 A        4.713786E-16 a.u.
  |    H      2     3.678162 A  1.011968E+04 A            0.556529 a.u.
  |    H      1     3.958095 A  1.721251E+06 A            0.841931 a.u.
  |    H      0     4.527807 A  3.866455E+12 A            0.581436 a.u.
  |    C      0     2.562483 A      2.562483 A        6.563029E-17 a.u.
  |    C      0     2.967371 A      2.967371 A        1.352164E-16 a.u.
  |    C      0     3.003870 A      3.003870 A        2.312640E-17 a.u.
  |    C      1     3.272245 A      3.272245 A       -3.835259E-17 a.u.
  |    C      0     3.312494 A      3.312494 A       -2.710381E-16 a.u.
  |    C      3     4.077671 A      4.077671 A       -1.683752E-15 a.u.
  |    C      3     4.077671 A      4.077671 A        1.412852E-15 a.u.
  |    C      1     4.496620 A      4.496620 A       -3.011059E-16 a.u.
  |    C      0     4.496620 A      4.551928 A        2.873903E-17 a.u.
  |    C      2     4.551928 A      4.551928 A       -4.610785E-16 a.u.
  |    C      2     4.551928 A      4.551928 A        7.440584E-16 a.u.
  |    C      2     4.551928 A      4.551928 A       -7.110458E-16 a.u.
  |    C      2     4.551928 A      4.551928 A       -1.935424E-16 a.u.
  |    C      0     4.551928 A      4.607917 A        2.067142E-16 a.u.
  |    C      0     4.551928 A      4.607917 A       -1.109786E-16 a.u.
  |    C      1     4.551928 A      4.607917 A       -9.951742E-17 a.u.
  |    C      1     4.551928 A      4.607917 A        1.937809E-16 a.u.
  |    C      1     4.607917 A      4.607917 A       -2.813308E-16 a.u.
  |    C      1     4.607917 A      4.607917 A       -7.330363E-17 a.u.
  |    C      2     4.607917 A      4.607917 A        1.318462E-15 a.u.
  |    C      2     4.607917 A      4.607917 A       -1.318397E-15 a.u.
  |    C      0     4.607917 A      4.664595 A        3.157826E-16 a.u.
  |    C      1     4.607917 A      4.664595 A        7.356967E-16 a.u.
  |    C      4     3.835889 A  2.962973E+02 A            4.379483 a.u.
  |    C      3     4.127827 A  1.725964E+03 A            9.005588 a.u.
  |    C      2     4.607917 A  2.608475E+04 A            9.531178 a.u.
  |    C      1     4.607917 A  2.736013E+06 A            2.127278 a.u.
  |    C      0     4.607917 A  4.399765E+12 A            0.661635 a.u.

  | Shrink_full_auxil_basis : there are       36  radial auxiliary wave functions
                            accepted and       7 rejected.
  | Shrink_full_auxil_basis : there are totally                8992 partial auxiliary wave functions.
 
  | Maximal number of product basis functions per thread :   512   512
 
  | Minimal total memory requirement for three-center overlap :      72.476 Gbs
  | Number of local auxiliary basis functions on task:      0   512
  | Number of local auxiliary basis functions on task:      1   512
  | Number of local auxiliary basis functions on task:      2   512
  | Number of local auxiliary basis functions on task:      3   512
  | Number of local auxiliary basis functions on task:      4   496
  | Number of local auxiliary basis functions on task:      5   496
  | Number of local auxiliary basis functions on task:      6   496
  | Number of local auxiliary basis functions on task:      7   496
  | Number of local auxiliary basis functions on task:      8   496
  | Number of local auxiliary basis functions on task:      9   496
  | Number of local auxiliary basis functions on task:     10   496
  | Number of local auxiliary basis functions on task:     11   496
  | Number of local auxiliary basis functions on task:     12   496
  | Number of local auxiliary basis functions on task:     13   496
  | Number of local auxiliary basis functions on task:     14   496
  | Number of local auxiliary basis functions on task:     15   496
  | Number of local auxiliary basis functions on task:     16   496
  | Number of local auxiliary basis functions on task:     17   496
  | 2D aux task distribution:      3 X      6
  | 2D block size (nb_aux_2d):     64
 
  Basis pair condensation :   1037520  -->     547449
  Allocating        0.069 MB for t_coeff
  Allocating        0.034 MB for basbas_idx
  Allocating        0.069 MB for wave
  Allocating        0.069 MB for total_wave
  Allocating        0.206 MB for wave_gradient
  Allocating        0.206 MB for total_wave_grad
 HERE1
 HERE2
  Deallocating        0.069 MB for t_coeff
  Deallocating        0.034 MB for basbas_idx
  Deallocating        0.069 MB for wave
  Deallocating        0.206 MB for wave_gradient
  Deallocating        0.206 MB for total_wave_grad
dP_dE (Bohr^3) at every cycle:--->
 (997.616348862179,0.000000000000000E+000) (1.79529703691056,0.000000000000000E+000) (-447.522824123172,0.000000000000000E+000)
 (1.81407195886053,0.000000000000000E+000) (1331.88442903197,0.000000000000000E+000) (4.07947281910679,0.000000000000000E+000)
 (-447.687103775789,0.000000000000000E+000) (4.06724755621402,0.000000000000000E+000) (1704.99953058923,0.000000000000000E+000)
DFPT polarizability (Bohr^3)        xx        yy        zz        xy        xz        yz
  | Polarizability:--->                       997.616348862                 1331.884429032                 1704.999530589                    1.795297037                 -447.522824123                    4.079472819

DFPT for dielectric_constant:--->  # PARSE DFPT_dielectric_tensor
               2.353744105816679             0.002436179784623            -0.607278926479256
               0.002461656953232             2.807338760524000             0.005535757598604
              -0.607501850463701             0.005519168177628             3.313647994630291

                                               :  max(cpu_time)    wall_clock(cpu1)
  | Time for  dielectric calculation            :        0.000 s           0.000 s
===========================================================================

------------------------------------------------------------------------------
  Final output of selected total energy values:

  The following output summarizes some interesting total energy values
  at the end of a run (AFTER all relaxation, molecular dynamics, etc.).

  | Total energy of the DFT / Hartree-Fock s.c.f. calculation      :         -83267.378507062 eV
  | Final zero-broadening corrected energy (caution - metals only) :         -83267.378507062 eV
  | For reference only, the value of 1 Hartree used in FHI-aims is :             27.211384500 eV
  | For reference only, the overall average (free atom contribution
  | + realspace contribution) of the electrostatic potential after
  | s.c.f. convergence is                                          :             -7.697158144 eV

  Before relying on these values, please be sure to understand exactly which
  total energy value is referred to by a given number. Different objects may
  all carry the same name 'total energy'. Definitions:

  Total energy of the DFT / Hartree-Fock s.c.f. calculation:
  | Note that this energy does not include ANY quantities calculated after the
  | s.c.f. cycle, in particular not ANY RPA, MP2, etc. many-body perturbation terms.

  Final zero-broadening corrected energy:
  | For metallic systems only, a broadening of the occupation numbers at the Fermi
  | level can be extrapolated back to zero broadening by an electron-gas inspired
  | formula. For all systems that are not real metals, this value can be
  | meaningless and should be avoided.

------------------------------------------------------------------------------
  Methods described in the following list of references were used in this FHI-aims run.
  If you publish the results, please make sure to cite these reference if they apply.
  FHI-aims is an academic code, and for our developers (often, Ph.D. students
  and postdocs), scientific credit in the community is essential.
  Thank you for helping us!

  For any use of FHI-aims, please cite:

    Volker Blum, Ralf Gehrke, Felix Hanke, Paula Havu, Ville Havu,
    Xinguo Ren, Karsten Reuter, and Matthias Scheffler
    'Ab initio molecular simulations with numeric atom-centered orbitals'
    Computer Physics Communications 180, 2175-2196 (2009)
    http://doi.org/10.1016/j.cpc.2009.06.022


  For Hartree-Fock, hybrid functionals, or many-body perturbation theory used in your run, please cite:

    Xinguo Ren, Patrick Rinke, Volker Blum, Juergen Wieferink, Alex Tkatchenko,
    Andrea Sanfilippo, Karsten Reuter, and Matthias Scheffler,
    'Resolution-of-identity approach to Hartree-Fock, hybrid density functionals,
    RPA, MP2, and GW with numeric atom-centered orbital basis functions'
    New Journal of Physics 14, 053020 (2012).
    http://doi.org/10.1088/1367-2630/14/5/053020


  The provided symmetry information was generated with SPGlib:

    Atsushi Togo, Yusuke Seto, Dimitar Pashov
    SPGlib 1.7.3 obtained from http://spglib.sourceforge.net
    Copyright (C) 2008 Atsushi Togo


  The DFPT (perturbation by an electric field) part of the code was used.
  Here is the corresponding reference:

    Honghui Shang, Nathaniel Raimbault, Mariana Rossi,
    Christian Carbogno, Patrick Rinke and Matthias Scheffler,
    'All-Electron, Real-Space Perturbation Theory for Homogeneous
    Electric Fields: Theory, Implementation, and Application within dft'
    New Journal of Physics, 20(7):073040, 2018


  The ELSI infrastructure was used in your run to solve the Kohn-Sham electronic structure.
  Please check out http://elsi-interchange.org to learn more.
  If scalability is important for your project, please acknowledge ELSI by citing:

    V. W-z. Yu, F. Corsetti, A. Garcia, W. P. Huhn, M. Jacquelin, W. Jia,
    B. Lange, L. Lin, J. Lu, W. Mi, A. Seifitokaldani, A. Vazquez-Mayagoitia,
    C. Yang, H. Yang, and V. Blum
    'ELSI: A unified software interface for Kohn-Sham electronic structure solvers'
    Computer Physics Communications 222, 267-285 (2018).
    http://doi.org/10.1016/j.cpc.2017.09.007


  For the real-space grid partitioning and parallelization used in this calculation, please cite:

    Ville Havu, Volker Blum, Paula Havu, and Matthias Scheffler,
    'Efficient O(N) integration for all-electron electronic structure calculation'
    'using numerically tabulated basis functions'
    Journal of Computational Physics 228, 8367-8379 (2009).
    http://doi.org/10.1016/j.jcp.2009.08.008


  The high-level electronic structure method used in your calculation
  employed our efficient localized resolution of identity for the Coulomb operator.
  Some calculations, especially large-scale hybrid density functional theory,
  are only possible thanks to this development. For this feature, please cite:

    Arvid Ihrig, Juergen Wieferink, Igor Ying Zhang, Matti Ropo, Xinguo Ren,
    Patrick Rinke, Matthias Scheffler, and Volker Blum,
    'Accurate localized resolution of identity approach for linear-scaling
    hybrid density functionals and for many-body perturbation theory'
    New Journal of Physics 117, 093020 (2015).
    http://doi.org/10.1088/1367-2630/17/9/093020

  Of course, there are many other important community references, e.g., those cited in the
  above references. Our list is limited to references that describe implementations in the
  FHI-aims code. The reason is purely practical (length of this list) - please credit others as well.

------------------------------------------------------------
          Leaving FHI-aims.
          Date     :  20230119, Time     :  212620.774

          Computational steps:
          | Number of self-consistency cycles          :           46
          | Number of SCF (re)initializations          :            1
          | Number of coupled perturbed self-consistency cycles          :            0
          | Number of CPSCF (re)initializations          :            0

          Detailed time accounting                     :  max(cpu_time)    wall_clock(cpu1)
          | Total time                                  :     1453.522 s        1462.006 s
          | GPU initialization                          :        2.108 s           9.383 s
          | Preparation time                            :        0.072 s           0.067 s
          | Boundary condition initalization            :        0.995 s           0.995 s
          | Grid partitioning                           :        1.272 s           1.272 s
          | Preloading free-atom quantities on grid     :        3.719 s           3.721 s
          | Free-atom superposition energy              :        0.509 s           0.508 s
          | Total time for integrations                 :       17.419 s          17.524 s
          | Product basis setup: Total time             :        0.000 s           0.000 s
          | Product basis: | 2-center integrations     :(       0.000 s)  (       0.000 s)
          | Product basis: | LVL 3-center & coefficient:(       0.000 s)  (       0.000 s)
          | Total time for solution of K.-S. equations  :        3.356 s           3.359 s
          | Total time for density update               :       12.112 s          12.250 s
          | Total time for mixing & preconditioning     :       11.671 s          11.674 s
          | Total time for Hartree multipole update     :        0.085 s           0.087 s
          | Total time for Hartree multipole sum        :       42.514 s          42.527 s
          | Total time for total energy evaluation      :        0.006 s           0.004 s
          | Total time first_order_DM                   :        2.037 s           2.030 s
          | Total time first_order_density              :      309.616 s         309.684 s
          | Total time first_order_potential            :      121.121 s         121.157 s
          | Total time first_order_H                    :      581.961 s         582.131 s
          | Total time solving of Sternheimer equations :        1.974 s           1.972 s
          | Total time for dielectric constant          :        0.000 s           0.000 s
          | Total time momentum matrix                  :        0.000 s           0.000 s

          GPU acceleration has been used for charge density update.
          GPU acceleration has been used for real-space Hamiltonian integration.
          Due to GPU usage, wall_clock(cpu1) will give a more reliable estimate for timings.

          Partial memory accounting:
          | Residual value for overall tracked memory usage across tasks:     1.234863 MB (should be 0.000000 MB)
          |
          | Largest tracked array allocation:
          |   Minimum:      103.092 MB (DFPT_pulay_mixing::initialize_pulay_mixing::X_in_diffs on task  0)
          |   Maximum:      103.092 MB (DFPT_pulay_mixing::initialize_pulay_mixing::X_in_diffs on task  0)
          |   Average:      103.092 MB
          |
          | Because the residual tracked memory usage was not zero, the peak value for overall
          | tracked memory usage was not output, as it is probably incorrect.  This is likely due
          | to a missing aims_deallocate statement in the source code, which should be otherwise
          | harmless.
          |
          Note:  These values currently only include a subset of arrays which are explicitly tracked.
          The "true" memory usage will be greater.

          Have a nice day.
------------------------------------------------------------
