------------------------------------------------------------
          Invoking FHI-aims ...

          When using FHI-aims, please cite the following reference:

            Volker Blum, Ralf Gehrke, Felix Hanke, Paula Havu,
            Ville Havu, Xinguo Ren, Karsten Reuter, and Matthias Scheffler,
            'Ab Initio Molecular Simulations with Numeric Atom-Centered Orbitals',
            Computer Physics Communications 180, 2175-2196 (2009)

          In addition, many other developments in FHI-aims are likely important for
          your particular application. A partial list of references is given at the end of
          this file. Thank you for giving credit to the authors of these developments.

          For any questions about FHI-aims, please visit our slack channel at

            https://fhi-aims.slack.com

          and our main development and support site at

            https://aims-git.rz-berlin.mpg.de .

          The latter site, in particular, has a wiki to collect information, as well
          as an issue tracker to log discussions, suggest improvements, and report issues
          or bugs. https://aims-git.rz-berlin.mpg.de is also the main development site
          of the project and all new and updated code versions can be obtained there.
          Please send an email to aims-coordinators@fhi-berlin.mpg.de and we will add
          you to these sites. They are for you and everyone is welcome there.

------------------------------------------------------------



  Date     :  20230119, Time     :  175933.656
  Time zero on CPU 1             :   0.377737000000000E+00  s.
  Internal wall clock time zero  :           443383173.656  s.

  FHI-aims created a unique identifier for this run for later identification
  aims_uuid : 87923CAD-D16B-410F-A5B5-2B9717DCACC8

  Build configuration of the current instance of FHI-aims
  -------------------------------------------------------
  FHI-aims version      : 220829
  Commit number         : 9895fc21d
  CMake host system     : Linux-5.3.18-150300.59.68-default
  CMake version         : 3.17.0
  Fortran compiler      : /mpcdf/soft/SLE_15/packages/x86_64/intel_oneapi/2021.3/mpi/2021.3.0/bin/mpiifort (Intel) version 20.2.3.20210609
  Fortran compiler flags: -O3 -ip -fp-model precise
  C compiler            : /mpcdf/soft/SLE_15/packages/x86_64/intel/2021.3.0/bin/icc (Intel) version 20.2.3.20210609
  C compiler flags      : -O3 -ip -fp-model precise -std=gnu99
  CUDA compiler         : /mpcdf/soft/SLE_15/packages/x86_64/cuda/11.6.2/bin/nvcc
  CUDA compiler flags   : -O3 -DAdd_ -lcublas
  ELPA2 kernel          : AVX512
  Using MPI
  Using ScaLAPACK
  Using LibXC
  Using CUDA
  Using i-PI
  Using RLSY
  Linking against: /mpcdf/soft/SLE_15/packages/x86_64/cuda/11.6.2/lib64/libcublas.so
                   /mpcdf/soft/SLE_15/packages/x86_64/cuda/11.6.2/lib64/libcudart.so
                   /mpcdf/soft/SLE_15/packages/x86_64/intel_oneapi/2021.3/mkl/latest/lib/intel64/libmkl_intel_lp64.so
                   /mpcdf/soft/SLE_15/packages/x86_64/intel_oneapi/2021.3/mkl/latest/lib/intel64/libmkl_sequential.so
                   /mpcdf/soft/SLE_15/packages/x86_64/intel_oneapi/2021.3/mkl/latest/lib/intel64/libmkl_core.so
                   /mpcdf/soft/SLE_15/packages/x86_64/intel_oneapi/2021.3/mkl/latest/lib/intel64/libmkl_blacs_intelmpi_lp64.so
                   /mpcdf/soft/SLE_15/packages/x86_64/intel_oneapi/2021.3/mkl/latest/lib/intel64/libmkl_scalapack_lp64.so

  Using       18 parallel tasks.
  Task        0 on host adag036 reporting.
  Task        1 on host adag036 reporting.
  Task        2 on host adag036 reporting.
  Task        3 on host adag036 reporting.
  Task        4 on host adag036 reporting.
  Task        5 on host adag036 reporting.
  Task        6 on host adag036 reporting.
  Task        7 on host adag036 reporting.
  Task        8 on host adag036 reporting.
  Task        9 on host adag036 reporting.
  Task       10 on host adag036 reporting.
  Task       11 on host adag036 reporting.
  Task       12 on host adag036 reporting.
  Task       13 on host adag036 reporting.
  Task       14 on host adag036 reporting.
  Task       15 on host adag036 reporting.
  Task       16 on host adag036 reporting.
  Task       17 on host adag036 reporting.

  Performing system and environment tests:
  | Environment variable OMP_NUM_THREADS correctly set to 1.
  | Checking for ScaLAPACK...
  | Testing pdtran()...
  | All pdtran() tests passed.

  Obtaining array dimensions for all initial allocations:
  
  -----------------------------------------------------------------------
  Parsing control.in (first pass over file, find array dimensions only).
  The contents of control.in will be repeated verbatim below
  unless switched off by setting 'verbatim_writeout .false.' .
  in the first line of control.in .
  -----------------------------------------------------------------------
  
  #
  # Input for polarizability replays on generic oligoacene molecular crystals (light settings,  LDA+MBD).
  #
  #########################################################################################
  #
  #  Physical model
  #
    xc                 pw-lda
    spin               none
    relativistic       none
    charge             0.0
    k_grid 	     2 1 1
    DFPT dielectric
  #
  #  GPU acceleration
  #
  # Turns on GPU acceleration everywhere
    use_gpu
  
  # Turns OFF GPU acceleration of ELPA - may be necessary if GPU ELPA is slow
    elsi_elpa_gpu 0
  #
  #  Relaxation
  #
  #  relax_geometry trm 1E-3
  #  relax_unit_cell fixed_angles
  #
  #  SCF convergence        #
    charge_mix_param   0.75
    #sc_accuracy_rho 1E-4
  #
  # i-PI communication
  #
  compute_forces .false.
  # use_pimd_wrapper 130.183.223.27 26118
  #communicate_pimd_wrapper polarizability
  #output_level MD_light
  #
  # Output SALTED info
    ri_density_restart write
    ri_rho1 write
    ri_full_output .true.
  #  sc_accuracy_rho    1d-6
    default_prodbas_acc 1e-6
    default_max_l_prodbas 6
  #
  #
  ################################################################################
  #
  #  FHI-aims code project
  #  VB, Fritz-Haber Institut, 2009
  #
  #  Suggested "light" defaults for H atom (to be pasted into control.in file)
  #  Be sure to double-check any results obtained with these settings for post-processing,
  #  e.g., with the "tight" defaults and larger basis sets.
  #
  ################################################################################
    species        H
  #     global species definitions
      nucleus             1
      mass                1.00794
  #
      l_hartree           4
  #
      cut_pot             3.5  1.5  1.0
      basis_dep_cutoff    1e-4
  #
      radial_base         24 5.0
      radial_multiplier   1
      angular_grids       specified
        division   0.2421   50
        division   0.3822  110
        division   0.4799  194
        division   0.5341  302
  #      division   0.5626  434
  #      division   0.5922  590
  #      division   0.6542  770
  #      division   0.6868 1202
  #      outer_grid  770
        outer_grid  302
  ################################################################################
  #
  #  Definition of "minimal" basis
  #
  ################################################################################
  #     valence basis states
      valence      1  s   1.
  #     ion occupancy
      ion_occ      1  s   0.5
  ################################################################################
  #
  #  Suggested additional basis functions. For production calculations,
  #  uncomment them one after another (the most important basis functions are
  #  listed first).
  #
  #  Basis constructed for dimers: 0.5 A, 0.7 A, 1.0 A, 1.5 A, 2.5 A
  #
  ################################################################################
  #  "First tier" - improvements: -1014.90 meV to -62.69 meV
       hydro 2 s 2.1
       hydro 2 p 3.5
  #  "Second tier" - improvements: -12.89 meV to -1.83 meV
  #     hydro 1 s 0.85
  #     hydro 2 p 3.7
  #     hydro 2 s 1.2
  #     hydro 3 d 7
  #  "Third tier" - improvements: -0.25 meV to -0.12 meV
  #     hydro 4 f 11.2
  #     hydro 3 p 4.8
  #     hydro 4 d 9
  #     hydro 3 s 3.2
  ################################################################################
  ################################################################################
  #
  #  FHI-aims code project
  #  VB, Fritz-Haber Institut, 2009
  #
  #  Suggested "light" defaults for C atom (to be pasted into control.in file)
  #  Be sure to double-check any results obtained with these settings for post-processing,
  #  e.g., with the "tight" defaults and larger basis sets.
  #
  ################################################################################
    species        C
  #     global species definitions
      nucleus             6
      mass                12.0107
  #
      l_hartree           4
  #
      cut_pot             3.5  1.5  1.0
      basis_dep_cutoff    1e-4
  #
      radial_base         34 5.0
      radial_multiplier   1
      angular_grids specified
        division   0.3326   50
        division   0.5710  110
        division   0.7727  194
        division   0.8772  302
  #      division   0.9334  434
  #      division   0.9625  590
  #      division   0.9924  770
  #      division   1.0230  974
  #      division   1.4589 1202
  #     outer_grid  974
       outer_grid 302
  ################################################################################
  #
  #  Definition of "minimal" basis
  #
  ################################################################################
  #     valence basis states
      valence      2  s   2.
      valence      2  p   2.
  #     ion occupancy
      ion_occ      2  s   1.
      ion_occ      2  p   1.
  ################################################################################
  #
  #  Suggested additional basis functions. For production calculations,
  #  uncomment them one after another (the most important basis functions are
  #  listed first).
  #
  #  Constructed for dimers: 1.0 A, 1.25 A, 1.5 A, 2.0 A, 3.0 A
  #
  ################################################################################
  #  "First tier" - improvements: -1214.57 meV to -155.61 meV
       hydro 2 p 1.7
       hydro 3 d 6
       hydro 2 s 4.9
  #  "Second tier" - improvements: -67.75 meV to -5.23 meV
  #     hydro 4 f 9.8
  #     hydro 3 p 5.2
  #     hydro 3 s 4.3
  #     hydro 5 g 14.4
  #     hydro 3 d 6.2
  #  "Third tier" - improvements: -2.43 meV to -0.60 meV
  #     hydro 2 p 5.6
  #     hydro 2 s 1.4
  #     hydro 3 d 4.9
  #     hydro 4 f 11.2
  #  "Fourth tier" - improvements: -0.39 meV to -0.18 meV
  #     hydro 2 p 2.1
  #     hydro 5 g 16.4
  #     hydro 4 d 13.2
  #     hydro 3 s 13.6
  #     hydro 4 f 17.6
  #  Further basis functions - improvements: -0.08 meV and below
  #     hydro 3 s 2
  #     hydro 3 p 6
  #     hydro 4 d 20
  
  -----------------------------------------------------------------------
  Completed first pass over input file control.in .
  -----------------------------------------------------------------------
  
  
  -----------------------------------------------------------------------
  Parsing geometry.in (first pass over file, find array dimensions only).
  The contents of geometry.in will be repeated verbatim below
  unless switched off by setting 'verbatim_writeout .false.' .
  in the first line of geometry.in .
  -----------------------------------------------------------------------
  
  #=======================================================
  # FHI-aims file: /ada/ptmp/mpsd/alewis/naphthalene/qmdata/data/geoms/250.in
  # Created using the Atomic Simulation Environment (ASE)
  # Thu Jan 19 15:19:17 2023
  #=======================================================
  lattice_vector 8.1020000000000003 0.0000000000000000 0.0000000000000000
  lattice_vector 0.0000000000000000 11.8800000000000008 0.0000000000000000
  lattice_vector -9.7850918486534706 0.0000000000000000 14.2571119625755713
  atom -0.8031640000000000 -0.0075404800000000 2.4087100000000001 C
  atom 0.1490650000000000 3.0403300000000000 4.8061299999999996 C
  atom 4.0967000000000002 6.0821199999999997 4.7894899999999998 C
  atom 3.2008600000000000 2.9544299999999999 2.4106200000000002 C
  atom -0.0774914000000000 0.8777920000000000 1.6396299999999999 C
  atom -0.6162480000000000 3.9153300000000000 5.5383699999999996 C
  atom 3.3958400000000002 5.1423800000000002 5.4917299999999996 C
  atom 3.9596399999999998 2.0420900000000000 1.6914300000000000 C
  atom 0.3210100000000000 0.6022280000000000 0.3158420000000000 C
  atom -0.9400550000000000 3.6168800000000001 6.9018100000000002 C
  atom 3.0424899999999999 5.3825000000000003 6.8356199999999996 C
  atom 4.4112799999999996 2.3767200000000002 0.4060680000000000 C
  atom -3.8738199999999998 1.4234000000000000 6.5011799999999997 C
  atom 3.1633499999999999 4.5172699999999999 0.5746030000000000 C
  atom 7.3614800000000002 4.4322499999999998 0.6016310000000000 C
  atom 0.2600490000000000 1.4612200000000000 6.6341900000000003 C
  atom -3.5838600000000000 0.9525760000000000 5.2202299999999999 C
  atom 2.8048299999999999 4.1923599999999999 1.8736699999999999 C
  atom 6.9880800000000001 4.8426200000000001 1.8899999999999999 C
  atom 0.5728230000000000 1.8034600000000001 5.3524300000000000 C
  atom -1.1526900000000000 0.3222090000000000 3.3833299999999999 H
  atom 0.3138690000000000 3.2682199999999999 3.7698800000000001 H
  atom 4.4067900000000000 5.8635500000000000 3.7507799999999998 H
  atom 3.0053399999999999 2.7751999999999999 3.4709300000000001 H
  atom 0.1710670000000000 1.8660800000000000 2.0264199999999999 H
  atom -0.9500860000000000 4.8753399999999996 5.1563299999999996 H
  atom 3.1625299999999998 4.2113600000000000 4.9842500000000003 H
  atom 4.2277600000000000 1.1080900000000000 2.1586099999999999 H
  atom -3.5244800000000001 2.4172799999999999 6.8532299999999999 H
  atom 2.8898299999999999 5.4603700000000002 0.1343370000000000 H
  atom 7.1101500000000000 3.4423300000000001 0.2489510000000000 H
  atom 0.5865750000000000 0.5142190000000000 7.0368800000000000 H
  atom -3.0663399999999998 1.6155200000000001 4.5184100000000003 H
  atom 2.2792599999999998 4.8917700000000002 2.5348099999999998 H
  atom 6.3482900000000004 4.1830299999999996 2.4885199999999998 H
  atom 1.1407600000000000 1.1097500000000000 4.7274599999999998 H
  atom -5.6419600000000001 0.2871230000000000 9.5843900000000009 C
  atom -4.5966300000000002 3.0583300000000002 12.0840999999999994 C
  atom -0.5576890000000000 5.7219400000000000 11.9118999999999993 C
  atom -1.6666399999999999 2.8355399999999999 9.5583700000000000 C
  atom -4.9585600000000003 1.1052200000000001 8.7003900000000005 C
  atom -5.3090400000000004 3.9841899999999999 12.7984000000000009 C
  atom -1.3408800000000001 4.9026500000000004 12.7125000000000004 C
  atom -0.9065350000000000 1.9941700000000000 8.7826100000000000 C
  atom -4.6071900000000001 0.6220059999999999 7.3931399999999998 C
  atom -5.7632300000000001 3.6522899999999998 14.1189999999999998 C
  atom -1.7099100000000000 5.3052299999999999 14.0169999999999995 C
  atom -0.5306680000000000 2.3395999999999999 7.4449800000000002 C
  atom -8.6852199999999993 1.4866699999999999 13.7746999999999993 C
  atom -1.7743500000000001 4.4503199999999996 7.7133000000000003 C
  atom 2.2470800000000000 4.4436700000000000 7.5366099999999996 C
  atom -4.6036700000000002 1.4509900000000000 13.9056999999999995 C
  atom -8.3311200000000003 1.1560999999999999 12.4855000000000000 C
  atom -2.0810800000000000 4.0806600000000000 9.0095100000000006 C
  atom 1.9691900000000000 4.6690100000000001 8.8808699999999998 C
  atom -4.2030599999999998 1.8276800000000000 12.6334000000000000 C
  atom -5.9391200000000000 0.6949220000000000 10.5762999999999998 H
  atom -4.3366699999999998 3.2997600000000000 11.0747000000000000 H
  atom -0.2548180000000000 5.2870499999999998 10.9380000000000006 H
  atom -1.8835800000000000 2.5354600000000000 10.5824999999999996 H
  atom -4.6085900000000004 2.1103700000000001 8.9746900000000007 H
  atom -5.5664300000000004 4.9130799999999999 12.3438999999999997 H
  atom -1.6118500000000000 3.9091100000000001 12.3879999999999999 H
  atom -0.5516480000000000 1.0365700000000000 9.1579800000000002 H
  atom -8.3828600000000009 2.4486599999999998 14.2171000000000003 H
  atom -2.1873399999999998 5.3694300000000004 7.3304000000000000 H
  atom 1.9628500000000000 3.5291299999999999 7.0558899999999998 H
  atom -4.3273700000000002 0.4823010000000000 14.3405000000000005 H
  atom -7.7337400000000001 1.8740399999999999 11.9082000000000008 H
  atom -2.6877100000000000 4.7910700000000004 9.6120500000000000 H
  atom 1.3762200000000000 3.9510399999999999 9.4301800000000000 H
  atom -3.6130599999999999 1.1220600000000001 12.0540000000000003 H
  atom -0.7789530000000000 6.1519199999999996 2.3448099999999998 C
  atom -0.0341315000000000 8.9630200000000002 4.8291100000000000 C
  atom 4.0332200000000000 11.5420999999999996 4.8187699999999998 C
  atom 3.0833400000000002 8.8439800000000002 2.3005700000000000 C
  atom -0.0830089000000000 7.0138600000000002 1.5397600000000000 C
  atom -0.7049830000000000 9.8754700000000000 5.6325099999999999 C
  atom 3.2456600000000000 10.8039000000000005 5.6598800000000002 C
  atom 3.8899800000000000 7.9210000000000003 1.6417200000000001 C
  atom 0.3350100000000000 6.6304699999999999 0.2371600000000000 C
  atom -0.9399700000000000 9.5863200000000006 7.0216500000000002 C
  atom 3.0218600000000002 11.2173999999999996 6.9813499999999999 C
  atom 4.3395700000000001 8.2456700000000005 0.3372450000000000 C
  atom -3.8736000000000002 7.5616300000000001 6.7007700000000003 C
  atom 3.0956899999999998 10.4029000000000007 0.4483080000000000 C
  atom 7.2418600000000000 10.3160000000000007 0.5509220000000000 C
  atom 0.3133270000000000 7.5060099999999998 6.7443200000000001 C
  atom -3.6428900000000000 7.2971300000000001 5.3779399999999997 C
  atom 2.6697600000000001 10.0650999999999993 1.7051499999999999 C
  atom 6.8830999999999998 10.6435999999999993 1.8362400000000001 C
  atom 0.5087960000000000 7.8140400000000003 5.3978400000000004 C
  atom -1.1527300000000000 6.5042600000000004 3.2985799999999998 H
  atom 0.1243370000000000 9.1766400000000008 3.7358799999999999 H
  atom 4.2826500000000003 11.1423000000000005 3.8414899999999998 H
  atom 2.7998599999999998 8.6054600000000008 3.3183799999999999 H
  atom 0.1542560000000000 8.0316899999999993 1.8656699999999999 H
  atom -0.9869430000000000 10.8567999999999998 5.2186199999999996 H
  atom 2.9885199999999998 9.7664299999999997 5.3664300000000003 H
  atom 4.1662299999999997 6.9364299999999997 2.0597200000000000 H
  atom -3.4908199999999998 8.4236400000000007 7.2118200000000003 H
  atom 2.9427300000000001 11.3785000000000007 -0.0321276000000000 H
  atom 6.9392699999999996 9.3731399999999994 0.0928896000000000 H
  atom 0.7204810000000000 6.6185600000000004 7.2313599999999996 H
  atom -3.0575000000000001 8.0206000000000000 4.7534299999999998 H
  atom 2.0785900000000002 10.7879000000000005 2.2744900000000001 H
  atom 6.1883600000000003 9.9932400000000001 2.3728600000000002 H
  atom 1.0960600000000000 7.1523700000000003 4.7669300000000003 H
  atom -5.6501400000000004 5.8239999999999998 9.5157299999999996 C
  atom -4.6914300000000004 8.8605300000000007 11.9557000000000002 C
  atom -0.6070449999999999 11.8374000000000006 11.9176000000000002 C
  atom -1.5736399999999999 8.8719500000000000 9.7057300000000009 C
  atom -4.8997200000000003 6.7916900000000000 8.8445900000000002 C
  atom -5.4518899999999997 9.7807999999999993 12.6631000000000000 C
  atom -1.3142100000000001 10.8901000000000003 12.6821999999999999 C
  atom -0.8009900000000000 8.0138499999999997 8.9285999999999994 C
  atom -4.5840100000000001 6.6146599999999998 7.4814100000000003 C
  atom -5.8639200000000002 9.4837799999999994 13.9711999999999996 C
  atom -1.7254100000000001 11.1982999999999997 14.0343000000000000 C
  atom -0.4859030000000000 8.3451500000000003 7.5725899999999999 C
  atom -8.6498100000000004 7.4588200000000002 13.6122999999999994 C
  atom -1.7024999999999999 10.4688999999999997 7.8587699999999998 C
  atom 2.2861099999999999 10.4126999999999992 7.8780500000000000 C
  atom -4.6643100000000004 7.3242099999999999 13.8475999999999999 C
  atom -8.2234499999999997 7.0061900000000001 12.3614999999999995 C
  atom -2.0104700000000002 10.1149000000000004 9.1699999999999999 C
  atom 2.0275300000000001 10.8777000000000008 9.1740399999999998 C
  atom -4.2856100000000001 7.6649399999999996 12.5428999999999995 C
  atom -5.8606800000000003 6.0021699999999996 10.5747999999999998 H
  atom -4.3538500000000004 9.2042400000000004 10.9855999999999998 H
  atom -0.4063020000000000 11.6495999999999995 10.8796999999999997 H
  atom -1.7605200000000001 8.5845800000000008 10.7401999999999997 H
  atom -4.5031299999999996 7.6341400000000004 9.4221500000000002 H
  atom -5.7024999999999997 10.7738999999999994 12.2285000000000004 H
  atom -1.6455200000000001 9.9228600000000000 12.2718000000000007 H
  atom -0.4022970000000000 7.1014900000000001 9.3707200000000004 H
  atom -8.3560999999999996 8.4358900000000006 13.9512000000000000 H
  atom -2.1292200000000001 11.3716000000000008 7.4062900000000003 H
  atom 1.9013800000000001 9.4478399999999993 7.5302699999999998 H
  atom -4.3715400000000004 6.3449400000000002 14.2946000000000009 H
  atom -7.5862800000000004 7.6747100000000001 11.7788000000000004 H
  atom -2.6418499999999998 10.7536000000000005 9.7649799999999995 H
  atom 1.3827499999999999 10.2596000000000007 9.7790400000000002 H
  atom -3.6687799999999999 6.9475300000000004 11.9857999999999993 H
  
  -----------------------------------------------------------------------
  Completed first pass over input file geometry.in .
  -----------------------------------------------------------------------
  

  Basic array size parameters:
  | Number of species                 :        2
  | Number of atoms                   :      144
  | Number of lattice vectors         :        3
  | Max. basis fn. angular momentum   :        2
  | Max. atomic/ionic basis occupied n:        2
  | Max. number of basis fn. types    :        2
  | Max. radial fns per species/type  :        3
  | Max. logarithmic grid size        :     1277
  | Max. radial integration grid size :       34
  | Max. angular integration grid size:      302
  | Max. angular grid division number :        8
  | Radial grid for Hartree potential :     1277
  | Number of spin channels           :        1

------------------------------------------------------------
          Reading file control.in.
------------------------------------------------------------
  XC: Using Perdew-Wang parametrisation of Ceperley-Alder LDA.
  Spin treatment: No spin polarisation.
  Non-relativistic treatment of kinetic energy.
  Charge =   0.000000E+00: Neutral system requested explicitly.
  Found k-point grid:         2         1         1
  DFPT calculation will begin after the DFT/HF calculation.
  Charge density mixing - mixing parameter:     0.7500
  Forces will not be computed.
 
  Reading configuration options for species H                   .
  | Found nuclear charge :   1.0000
  | Found atomic mass :    1.00794000000000      amu
  | Found l_max for Hartree potential  :   4
  | Found cutoff potl. onset [A], width [A], scale factor :    3.50000    1.50000    1.00000
  | Threshold for basis-dependent cutoff potential is   0.100000E-03
  | Found data for basic radial integration grid :    24 points, outermost radius =    5.000 A
  | Found multiplier for basic radial grid :   1
  | Found angular grid specification: user-specified.
  | Specified grid contains     5 separate shells.
  | Check grid settings after all constraints further below.
  | Found free-atom valence shell :  1 s   1.000
  | No ionic wave fns used. Skipping ion_occ.
  | Found hydrogenic basis function :  2 s   2.100
  | Found hydrogenic basis function :  2 p   3.500
  Species H                   : Missing cutoff potential type.
  Defaulting to exp(1/x)/(1-x)^2 type cutoff potential.
  Species H : No 'logarithmic' tag. Using default grid for free atom:
  | Default logarithmic grid data [bohr] : 0.1000E-03 0.1000E+03 0.1012E+01
  Species H : On-site basis accuracy parameter (for Gram-Schmidt orthonormalisation) not specified.
  Using default value basis_acc =  0.1000000E-03.
  Species H                   : Using default innermost maximum threshold i_radial=  2 for radial functions.
  Species H                   : Default cutoff onset for free atom density etc. : 0.35000000E+01 AA.
  Species H                   : Basic radial grid will be enhanced according to radial_multiplier =   1, to contain    24 grid points.
 
  Reading configuration options for species C                   .
  | Found nuclear charge :   6.0000
  | Found atomic mass :    12.0107000000000      amu
  | Found l_max for Hartree potential  :   4
  | Found cutoff potl. onset [A], width [A], scale factor :    3.50000    1.50000    1.00000
  | Threshold for basis-dependent cutoff potential is   0.100000E-03
  | Found data for basic radial integration grid :    34 points, outermost radius =    5.000 A
  | Found multiplier for basic radial grid :   1
  | Found angular grid specification: user-specified.
  | Specified grid contains     5 separate shells.
  | Check grid settings after all constraints further below.
  | Found free-atom valence shell :  2 s   2.000
  | Found free-atom valence shell :  2 p   2.000
  | No ionic wave fns used. Skipping ion_occ.
  | No ionic wave fns used. Skipping ion_occ.
  | Found hydrogenic basis function :  2 p   1.700
  | Found hydrogenic basis function :  3 d   6.000
  | Found hydrogenic basis function :  2 s   4.900
  Species C                   : Missing cutoff potential type.
  Defaulting to exp(1/x)/(1-x)^2 type cutoff potential.
  Species C : No 'logarithmic' tag. Using default grid for free atom:
  | Default logarithmic grid data [bohr] : 0.1000E-03 0.1000E+03 0.1012E+01
  Species C : On-site basis accuracy parameter (for Gram-Schmidt orthonormalisation) not specified.
  Using default value basis_acc =  0.1000000E-03.
  Species C                   : Using default innermost maximum threshold i_radial=  2 for radial functions.
  Species C                   : Default cutoff onset for free atom density etc. : 0.35000000E+01 AA.
  Species C                   : Basic radial grid will be enhanced according to radial_multiplier =   1, to contain    34 grid points.
 
  Finished reading input file 'control.in'.
 
------------------------------------------------------------


------------------------------------------------------------
          Reading geometry description geometry.in.
------------------------------------------------------------
  | The smallest distance between any two atoms is         1.06567185 AA.
  | The first atom of this pair is atom number                     42 .
  | The second atom of this pair is atom number                    62 .
  | Wigner-Seitz cell of the first atom image           0     0     0 .
  | (The Wigner-Seitz cell of the second atom is 0 0 0  by definition.)

  Symmetry information by spglib:
  | Precision set to  0.1E-04
  | Number of Operations  : 1
  | Space group           : 1
  | International         : P1
  | Schoenflies           : C1^1
  Input structure read successfully.
  The structure contains      144 atoms,  and a total of        544.000 electrons.

  Input geometry:
  | Unit cell:
  |        8.10200000        0.00000000        0.00000000
  |        0.00000000       11.88000000        0.00000000
  |       -9.78509185        0.00000000       14.25711196
  | Atomic structure:
  |       Atom                x [A]            y [A]            z [A]
  |    1: Species C            -0.80316400       -0.00754048        2.40871000
  |    2: Species C             0.14906500        3.04033000        4.80613000
  |    3: Species C             4.09670000        6.08212000        4.78949000
  |    4: Species C             3.20086000        2.95443000        2.41062000
  |    5: Species C            -0.07749140        0.87779200        1.63963000
  |    6: Species C            -0.61624800        3.91533000        5.53837000
  |    7: Species C             3.39584000        5.14238000        5.49173000
  |    8: Species C             3.95964000        2.04209000        1.69143000
  |    9: Species C             0.32101000        0.60222800        0.31584200
  |   10: Species C            -0.94005500        3.61688000        6.90181000
  |   11: Species C             3.04249000        5.38250000        6.83562000
  |   12: Species C             4.41128000        2.37672000        0.40606800
  |   13: Species C            -3.87382000        1.42340000        6.50118000
  |   14: Species C             3.16335000        4.51727000        0.57460300
  |   15: Species C             7.36148000        4.43225000        0.60163100
  |   16: Species C             0.26004900        1.46122000        6.63419000
  |   17: Species C            -3.58386000        0.95257600        5.22023000
  |   18: Species C             2.80483000        4.19236000        1.87367000
  |   19: Species C             6.98808000        4.84262000        1.89000000
  |   20: Species C             0.57282300        1.80346000        5.35243000
  |   21: Species H            -1.15269000        0.32220900        3.38333000
  |   22: Species H             0.31386900        3.26822000        3.76988000
  |   23: Species H             4.40679000        5.86355000        3.75078000
  |   24: Species H             3.00534000        2.77520000        3.47093000
  |   25: Species H             0.17106700        1.86608000        2.02642000
  |   26: Species H            -0.95008600        4.87534000        5.15633000
  |   27: Species H             3.16253000        4.21136000        4.98425000
  |   28: Species H             4.22776000        1.10809000        2.15861000
  |   29: Species H            -3.52448000        2.41728000        6.85323000
  |   30: Species H             2.88983000        5.46037000        0.13433700
  |   31: Species H             7.11015000        3.44233000        0.24895100
  |   32: Species H             0.58657500        0.51421900        7.03688000
  |   33: Species H            -3.06634000        1.61552000        4.51841000
  |   34: Species H             2.27926000        4.89177000        2.53481000
  |   35: Species H             6.34829000        4.18303000        2.48852000
  |   36: Species H             1.14076000        1.10975000        4.72746000
  |   37: Species C            -5.64196000        0.28712300        9.58439000
  |   38: Species C            -4.59663000        3.05833000       12.08410000
  |   39: Species C            -0.55768900        5.72194000       11.91190000
  |   40: Species C            -1.66664000        2.83554000        9.55837000
  |   41: Species C            -4.95856000        1.10522000        8.70039000
  |   42: Species C            -5.30904000        3.98419000       12.79840000
  |   43: Species C            -1.34088000        4.90265000       12.71250000
  |   44: Species C            -0.90653500        1.99417000        8.78261000
  |   45: Species C            -4.60719000        0.62200600        7.39314000
  |   46: Species C            -5.76323000        3.65229000       14.11900000
  |   47: Species C            -1.70991000        5.30523000       14.01700000
  |   48: Species C            -0.53066800        2.33960000        7.44498000
  |   49: Species C            -8.68522000        1.48667000       13.77470000
  |   50: Species C            -1.77435000        4.45032000        7.71330000
  |   51: Species C             2.24708000        4.44367000        7.53661000
  |   52: Species C            -4.60367000        1.45099000       13.90570000
  |   53: Species C            -8.33112000        1.15610000       12.48550000
  |   54: Species C            -2.08108000        4.08066000        9.00951000
  |   55: Species C             1.96919000        4.66901000        8.88087000
  |   56: Species C            -4.20306000        1.82768000       12.63340000
  |   57: Species H            -5.93912000        0.69492200       10.57630000
  |   58: Species H            -4.33667000        3.29976000       11.07470000
  |   59: Species H            -0.25481800        5.28705000       10.93800000
  |   60: Species H            -1.88358000        2.53546000       10.58250000
  |   61: Species H            -4.60859000        2.11037000        8.97469000
  |   62: Species H            -5.56643000        4.91308000       12.34390000
  |   63: Species H            -1.61185000        3.90911000       12.38800000
  |   64: Species H            -0.55164800        1.03657000        9.15798000
  |   65: Species H            -8.38286000        2.44866000       14.21710000
  |   66: Species H            -2.18734000        5.36943000        7.33040000
  |   67: Species H             1.96285000        3.52913000        7.05589000
  |   68: Species H            -4.32737000        0.48230100       14.34050000
  |   69: Species H            -7.73374000        1.87404000       11.90820000
  |   70: Species H            -2.68771000        4.79107000        9.61205000
  |   71: Species H             1.37622000        3.95104000        9.43018000
  |   72: Species H            -3.61306000        1.12206000       12.05400000
  |   73: Species C            -0.77895300        6.15192000        2.34481000
  |   74: Species C            -0.03413150        8.96302000        4.82911000
  |   75: Species C             4.03322000       11.54210000        4.81877000
  |   76: Species C             3.08334000        8.84398000        2.30057000
  |   77: Species C            -0.08300890        7.01386000        1.53976000
  |   78: Species C            -0.70498300        9.87547000        5.63251000
  |   79: Species C             3.24566000       10.80390000        5.65988000
  |   80: Species C             3.88998000        7.92100000        1.64172000
  |   81: Species C             0.33501000        6.63047000        0.23716000
  |   82: Species C            -0.93997000        9.58632000        7.02165000
  |   83: Species C             3.02186000       11.21740000        6.98135000
  |   84: Species C             4.33957000        8.24567000        0.33724500
  |   85: Species C            -3.87360000        7.56163000        6.70077000
  |   86: Species C             3.09569000       10.40290000        0.44830800
  |   87: Species C             7.24186000       10.31600000        0.55092200
  |   88: Species C             0.31332700        7.50601000        6.74432000
  |   89: Species C            -3.64289000        7.29713000        5.37794000
  |   90: Species C             2.66976000       10.06510000        1.70515000
  |   91: Species C             6.88310000       10.64360000        1.83624000
  |   92: Species C             0.50879600        7.81404000        5.39784000
  |   93: Species H            -1.15273000        6.50426000        3.29858000
  |   94: Species H             0.12433700        9.17664000        3.73588000
  |   95: Species H             4.28265000       11.14230000        3.84149000
  |   96: Species H             2.79986000        8.60546000        3.31838000
  |   97: Species H             0.15425600        8.03169000        1.86567000
  |   98: Species H            -0.98694300       10.85680000        5.21862000
  |   99: Species H             2.98852000        9.76643000        5.36643000
  |  100: Species H             4.16623000        6.93643000        2.05972000
  |  101: Species H            -3.49082000        8.42364000        7.21182000
  |  102: Species H             2.94273000       11.37850000       -0.03212760
  |  103: Species H             6.93927000        9.37314000        0.09288960
  |  104: Species H             0.72048100        6.61856000        7.23136000
  |  105: Species H            -3.05750000        8.02060000        4.75343000
  |  106: Species H             2.07859000       10.78790000        2.27449000
  |  107: Species H             6.18836000        9.99324000        2.37286000
  |  108: Species H             1.09606000        7.15237000        4.76693000
  |  109: Species C            -5.65014000        5.82400000        9.51573000
  |  110: Species C            -4.69143000        8.86053000       11.95570000
  |  111: Species C            -0.60704500       11.83740000       11.91760000
  |  112: Species C            -1.57364000        8.87195000        9.70573000
  |  113: Species C            -4.89972000        6.79169000        8.84459000
  |  114: Species C            -5.45189000        9.78080000       12.66310000
  |  115: Species C            -1.31421000       10.89010000       12.68220000
  |  116: Species C            -0.80099000        8.01385000        8.92860000
  |  117: Species C            -4.58401000        6.61466000        7.48141000
  |  118: Species C            -5.86392000        9.48378000       13.97120000
  |  119: Species C            -1.72541000       11.19830000       14.03430000
  |  120: Species C            -0.48590300        8.34515000        7.57259000
  |  121: Species C            -8.64981000        7.45882000       13.61230000
  |  122: Species C            -1.70250000       10.46890000        7.85877000
  |  123: Species C             2.28611000       10.41270000        7.87805000
  |  124: Species C            -4.66431000        7.32421000       13.84760000
  |  125: Species C            -8.22345000        7.00619000       12.36150000
  |  126: Species C            -2.01047000       10.11490000        9.17000000
  |  127: Species C             2.02753000       10.87770000        9.17404000
  |  128: Species C            -4.28561000        7.66494000       12.54290000
  |  129: Species H            -5.86068000        6.00217000       10.57480000
  |  130: Species H            -4.35385000        9.20424000       10.98560000
  |  131: Species H            -0.40630200       11.64960000       10.87970000
  |  132: Species H            -1.76052000        8.58458000       10.74020000
  |  133: Species H            -4.50313000        7.63414000        9.42215000
  |  134: Species H            -5.70250000       10.77390000       12.22850000
  |  135: Species H            -1.64552000        9.92286000       12.27180000
  |  136: Species H            -0.40229700        7.10149000        9.37072000
  |  137: Species H            -8.35610000        8.43589000       13.95120000
  |  138: Species H            -2.12922000       11.37160000        7.40629000
  |  139: Species H             1.90138000        9.44784000        7.53027000
  |  140: Species H            -4.37154000        6.34494000       14.29460000
  |  141: Species H            -7.58628000        7.67471000       11.77880000
  |  142: Species H            -2.64185000       10.75360000        9.76498000
  |  143: Species H             1.38275000       10.25960000        9.77904000
  |  144: Species H            -3.66878000        6.94753000       11.98580000

  Lattice parameters for 3D lattice (in Angstroms) :     8.102000   11.880000   17.292000
  Angle(s) between unit vectors (in degrees)       :    90.000000  124.463000   90.000000


  Quantities derived from the lattice vectors (in Angstrom^-1):
  | Reciprocal lattice vector 1:  0.775510  0.000000  0.532257
  | Reciprocal lattice vector 2:  0.000000  0.528888  0.000000
  | Reciprocal lattice vector 3: -0.000000  0.000000  0.440705
  | Unit cell volume                               :   0.137227E+04  Angstrom^3

  Fractional coordinates:
                         L1                L2                L3
       atom_frac         0.10491327       -0.00063472        0.16894796  C
       atom_frac         0.42553184        0.25592003        0.33710404  C
       atom_frac         0.91136428        0.51196296        0.33593690  C
       atom_frac         0.59927699        0.24868939        0.16908193  C
       atom_frac         0.12933063        0.07388822        0.11500436  C
       atom_frac         0.39310104        0.32957323        0.38846367  C
       atom_frac         0.88434735        0.43286027        0.38519232  C
       atom_frac         0.63200693        0.17189310        0.11863763  C
       atom_frac         0.06637645        0.05069259        0.02215329  C
       atom_frac         0.46863345        0.30445118        0.48409594  C
       atom_frac         0.95457727        0.45307239        0.47945334  C
       atom_frac         0.57886656        0.20006061        0.02848179  C
       atom_frac         0.07259178        0.11981481        0.45599558  C
       atom_frac         0.43911597        0.38024158        0.04030290  C
       atom_frac         0.95956526        0.37308502        0.04219866  C
       atom_frac         0.59408744        0.12299832        0.46532496  C
       atom_frac        -0.00013041        0.08018316        0.36614919  C
       atom_frac         0.50491076        0.35289226        0.13142002  C
       atom_frac         1.02261723        0.40762795        0.13256542  C
       atom_frac         0.52411249        0.15180640        0.37542176  C
       atom_frac         0.14433385        0.02712197        0.23730823  H
       atom_frac         0.35809095        0.27510269        0.26442101  H
       atom_frac         0.86164712        0.49356481        0.26308133  H
       atom_frac         0.66496487        0.23360269        0.24345253  H
       atom_frac         0.19277475        0.15707744        0.14213398  H
       atom_frac         0.31953356        0.41038215        0.36166722  H
       atom_frac         0.81256149        0.35449158        0.34959745  H
       atom_frac         0.70467539        0.09327357        0.15140584  H
       atom_frac         0.14553213        0.20347475        0.48068852  H
       atom_frac         0.36806092        0.45962710        0.00942246  H
       atom_frac         0.89866856        0.28975842        0.01746153  H
       atom_frac         0.66850172        0.04328443        0.49356981  H
       atom_frac         0.00429313        0.13598653        0.31692323  H
       atom_frac         0.49604759        0.41176515        0.17779267  H
       atom_frac         0.99435169        0.35210690        0.17454587  H
       atom_frac         0.54126886        0.09341330        0.33158609  H
       atom_frac         0.11553936        0.02416860        0.67225326  C
       atom_frac         0.45631416        0.25743519        0.84758400  C
       atom_frac         0.94023848        0.48164478        0.83550582  C
       atom_frac         0.60399427        0.23868182        0.67042821  C
       atom_frac         0.12500416        0.09303199        0.61024912  C
       atom_frac         0.42889326        0.33536953        0.89768531  C
       atom_frac         0.91139193        0.41268098        0.89166025  C
       atom_frac         0.63209563        0.16785943        0.61601606  C
       atom_frac         0.05763367        0.05235741        0.51855804  C
       atom_frac         0.48470395        0.30743182        0.99031277  C
       atom_frac         0.97634975        0.44656818        0.98315844  C
       atom_frac         0.56517519        0.19693603        0.52219412  C
       atom_frac         0.09488741        0.12514057        0.96616342  C
       atom_frac         0.43440183        0.37460606        0.54101420  C
       atom_frac         0.91578448        0.37404630        0.52862109  C
       atom_frac         0.60975525        0.12213721        0.97535181  C
       atom_frac         0.02938292        0.09731481        0.87573837  C
       atom_frac         0.50634685        0.34348990        0.63193093  C
       atom_frac         0.99535949        0.39301431        0.62290806  C
       atom_frac         0.55142294        0.15384512        0.88611214  C
       atom_frac         0.16288794        0.05849512        0.74182626  H
       atom_frac         0.40289252        0.27775758        0.77678425  H
       atom_frac         0.89512044        0.44503788        0.76719605  H
       atom_frac         0.66397350        0.21342256        0.74226113  H
       atom_frac         0.19143596        0.17764057        0.62948864  H
       atom_frac         0.35862330        0.41355892        0.86580649  H
       atom_frac         0.85045830        0.32904966        0.86889968  H
       atom_frac         0.70769608        0.08725337        0.64234468  H
       atom_frac         0.16968285        0.20611616        0.99719354  H
       atom_frac         0.35099206        0.45197222        0.51415743  H
       atom_frac         0.83998063        0.29706481        0.49490318  H
       atom_frac         0.68069040        0.04059773        1.00584887  H
       atom_frac         0.05421152        0.15774747        0.83524630  H
       atom_frac         0.48251466        0.40328872        0.67419334  H
       atom_frac         0.96870413        0.33257912        0.66143690  H
       atom_frac         0.57516277        0.09444949        0.84547277  H
       atom_frac         0.10248850        0.51783838        0.16446599  C
       atom_frac         0.40486724        0.75446296        0.33871586  C
       atom_frac         0.90600953        0.97155724        0.33799061  C
       atom_frac         0.57544946        0.74444276        0.16136297  C
       atom_frac         0.12018952        0.59039226        0.10799943  C
       atom_frac         0.39012353        0.83126852        0.39506669  C
       atom_frac         0.88005538        0.90941919        0.39698643  C
       atom_frac         0.61919805        0.66675084        0.11515095  C
       atom_frac         0.06143917        0.55812037        0.01663450  C
       atom_frac         0.47879574        0.80692929        0.49250157  C
       atom_frac         0.96437595        0.94422559        0.48967491  C
       atom_frac         0.56418558        0.69407997        0.02365451  C
       atom_frac         0.08952645        0.63650084        0.46999491  C
       atom_frac         0.42006634        0.87566498        0.03144452  C
       atom_frac         0.94050538        0.86835017        0.03864191  C
       atom_frac         0.60999260        0.63181902        0.47304952  C
       atom_frac         0.00594355        0.61423653        0.37721104  C
       atom_frac         0.47396403        0.84723064        0.11959996  C
       atom_frac         1.00510586        0.89592593        0.12879467  C
       atom_frac         0.52005661        0.65774747        0.37860683  C
       atom_frac         0.13714963        0.54749663        0.23136383  H
       atom_frac         0.33181753        0.77244444        0.26203624  H
       atom_frac         0.85400914        0.93790404        0.26944377  H
       atom_frac         0.62668053        0.72436532        0.23275261  H
       atom_frac         0.17708249        0.67606818        0.13085890  H
       atom_frac         0.32026110        0.91387205        0.36603626  H
       atom_frac         0.82345902        0.82209007        0.37640372  H
       atom_frac         0.68870388        0.58387458        0.14446965  H
       atom_frac         0.18006326        0.70906061        0.50584017  H
       atom_frac         0.36048875        0.95778620       -0.00225344  H
       atom_frac         0.86435732        0.78898485        0.00651532  H
       atom_frac         0.70150388        0.55711785        0.50721072  H
       atom_frac         0.02529306        0.67513468        0.33340764  H
       atom_frac         0.44922760        0.90807239        0.15953371  H
       atom_frac         0.96481441        0.84118182        0.16643343  H
       atom_frac         0.53909526        0.60205135        0.33435453  H
       atom_frac         0.10871346        0.49023569        0.66743742  C
       atom_frac         0.43373642        0.74583586        0.83857797  C
       atom_frac         0.93462951        0.99641414        0.83590562  C
       atom_frac         0.62795597        0.74679714        0.68076410  C
       atom_frac         0.14448192        0.57169108        0.62036337  C
       atom_frac         0.39980038        0.82329966        0.88819531  C
       atom_frac         0.91211696        0.91667508        0.88953499  C
       atom_frac         0.65748965        0.67456650        0.62625587  C
       atom_frac         0.06797216        0.55678956        0.52474933  C
       atom_frac         0.45975583        0.79829798        0.97994601  C
       atom_frac         0.97590215        0.94261785        0.98437187  C
       atom_frac         0.58151037        0.70245370        0.53114474  C
       atom_frac         0.08550082        0.62784680        0.95477261  C
       atom_frac         0.45559296        0.88122054        0.55121753  C
       atom_frac         0.94952562        0.87648990        0.55256983  C
       atom_frac         0.59734896        0.61651599        0.97127665  C
       atom_frac         0.03216803        0.58974663        0.86704096  C
       atom_frac         0.52865729        0.85142256        0.64318777  C
       atom_frac         1.02739498        0.91563131        0.64347113  C
       atom_frac         0.53356773        0.64519697        0.87976443  C
       atom_frac         0.17244243        0.50523316        0.74172105  H
       atom_frac         0.39322429        0.77476768        0.77053474  H
       atom_frac         0.87148466        0.98060606        0.76310686  H
       atom_frac         0.69252131        0.72260774        0.75332227  H
       atom_frac         0.24235740        0.64260438        0.66087368  H
       atom_frac         0.33205300        0.90689394        0.85771228  H
       atom_frac         0.83645909        0.83525758        0.86074936  H
       atom_frac         0.74415140        0.59776852        0.65726635  H
       atom_frac         0.15046101        0.71009175        0.97854320  H
       atom_frac         0.36459433        0.95720539        0.51948038  H
       atom_frac         0.87257894        0.79527273        0.52817640  H
       atom_frac         0.67135041        0.53408586        1.00262943  H
       atom_frac         0.06145033        0.64601936        0.82617013  H
       atom_frac         0.50112989        0.90518519        0.68491992  H
       atom_frac         0.99906247        0.86360269        0.68590610  H
       atom_frac         0.56250815        0.58480892        0.84068920  H

 
  Finished reading input file 'geometry.in'.
 

 
  Consistency checks for stacksize environment parameter are next.
 
  | Maximum stacksize for task 0: unlimited
  | Maximum stacksize for task 1: unlimited
  | Maximum stacksize for task 2: unlimited
  | Maximum stacksize for task 3: unlimited
  | Maximum stacksize for task 4: unlimited
  | Maximum stacksize for task 5: unlimited
  | Maximum stacksize for task 6: unlimited
  | Maximum stacksize for task 7: unlimited
  | Maximum stacksize for task 8: unlimited
  | Maximum stacksize for task 9: unlimited
  | Maximum stacksize for task 10: unlimited
  | Maximum stacksize for task 11: unlimited
  | Maximum stacksize for task 12: unlimited
  | Maximum stacksize for task 13: unlimited
  | Maximum stacksize for task 14: unlimited
  | Maximum stacksize for task 15: unlimited
  | Maximum stacksize for task 16: unlimited
  | Maximum stacksize for task 17: unlimited
  | Current stacksize for task 0: unlimited
  | Current stacksize for task 1: unlimited
  | Current stacksize for task 2: unlimited
  | Current stacksize for task 3: unlimited
  | Current stacksize for task 4: unlimited
  | Current stacksize for task 5: unlimited
  | Current stacksize for task 6: unlimited
  | Current stacksize for task 7: unlimited
  | Current stacksize for task 8: unlimited
  | Current stacksize for task 9: unlimited
  | Current stacksize for task 10: unlimited
  | Current stacksize for task 11: unlimited
  | Current stacksize for task 12: unlimited
  | Current stacksize for task 13: unlimited
  | Current stacksize for task 14: unlimited
  | Current stacksize for task 15: unlimited
  | Current stacksize for task 16: unlimited
  | Current stacksize for task 17: unlimited
 
  Consistency checks for the contents of control.in are next.
 
  MPI_IN_PLACE appears to work with this MPI implementation.
  | Keeping use_mpi_in_place .true. (see manual).
  Explicit treatment of the Coulomb operator is needed, but the RI method is not specified.
  Coulomb operator: Defaulting to 'LVL fast' resolution of identity - RI_type = LVL_fast
  Species H: Using default value for prodbas_acc =   1.000000E-06.
  Species H: Using default value max_l_prodbas =     6.
  Species C: Using default value for prodbas_acc =   1.000000E-06.
  Species C: Using default value max_l_prodbas =     6.
  Target number of points in a grid batch is not set.  Since GPU acceleration is enabled, defaulting to  200
  Method for grid partitioning is not set. Defaulting to parallel hash+maxmin partitioning.
  Batch size limit is not set. Defaulting to    200
  By default, will store active basis functions for each batch.
  If in need of memory, prune_basis_once .false. can be used to disable this option.
  communication_type for Hartree potential was not specified.
  Defaulting to calc_hartree .
  Defaulting to Pulay charge density mixer.
  Pulay mixer: Number of relevant iterations not set.
  Defaulting to    8 iterations.
  Pulay mixer: Number of initial linear mixing iterations not set.
  Defaulting to    0 iterations.
  Work space size for distributed Hartree potential not set.
  Defaulting to   0.200000E+03 MB.
  Algorithm-dependent basis array size parameters:
  | n_max_pulay                         :        8
  Maximum number of self-consistency iterations not provided.
  Presetting  1000 iterations.
  Presetting      1001 iterations before the initial mixing cycle
  is restarted anyway using the sc_init_iter criterion / keyword.
  Presetting a factor      1.000 between actual scf density residual
  and density convergence criterion sc_accuracy_rho below which sc_init_iter
  takes no effect.
 * No s.c.f. convergence criteria (sc_accuracy_*) were provided in control.in.
 * The run will proceed with a reasonable default guess, but please check whether.
 * the s.c.f. cycles seem to take too much or too little time.
  Geometry relaxation not requested: no relaxation will be performed.
 * Notice: The s.c.f. convergence criterion sc_accuracy_rho was not provided.
 * We used to stop in this case, and ask the user to provide reasonable
 * scf convergence criteria. However, this led some users to employ criteria
 * that led to extremely long run times, e.g., for simple relaxation.
 * We now preset a default value for sc_accuracy_rho if it is not set.
 * You may still wish to check if this setting is too tight or too loose for your needs.
 * Based on n_atoms and forces and force-correction status, FHI-aims chose sc_accuracy_rho =  0.391918E-04 .
  No accuracy limit for integral partition fn. given. Defaulting to  0.1000E-14.
  No threshold value for u(r) in integrations given. Defaulting to  0.1000E-05.
  No occupation type (smearing scheme) given. Defaulting to Gaussian broadening, width =  0.1000E-01 eV.
  The width will be adjusted in iteration number     2 of the first full s.c.f. cycle only.
  S.C.F. convergence parameters will be adjusted in iteration number     2 of the first full s.c.f. cycle only.
  No accuracy for occupation numbers given. Defaulting to  0.1000E-12.
  No threshold value for occupation numbers given. Defaulting to  0.0000E+00.
  No accuracy for fermi level given. Defaulting to  0.1000E-19.
  Maximum # of iterations to find E_F not set. Defaulting to  200.
  Preferred method for the eigenvalue solver ('KS_method') not specified in 'control.in'.
  Calling BLACS routine to test compilation state
  Since ScaLAPACK support is enabled, defaulting to ELPA (via ELSI).
  Will not use alltoall communication since running on < 1024 CPUs.
  Threshold for basis singularities not set.
  Default threshold for basis singularities:  0.1000E-04
  partition_type (choice of integration weights) for integrals was not specified.
  | Using a version of the partition function of Stratmann and coworkers ('stratmann_sparse').
  | At each grid point, the set of atoms used to build the partition table is smoothly restricted to
  | only those atoms whose free-atom density would be non-zero at that grid point.
  Partitioning for Hartree potential was not defined. Using partition_type for integrals.
  | Adjusted default value of keyword multip_moments_threshold to:       0.10000000E-11
  | This value may affect high angular momentum components of the Hartree potential in periodic systems.
  Angular momentum expansion for Kerker preconditioner not set explicitly.
  | Using default value of   0
  No explicit requirement for turning off preconditioner.
  | By default, it will be turned off when the charge convergence reaches
  | sc_accuracy_rho  =   0.391918E-04
  No special mixing parameter while Kerker preconditioner is on.
  Using default: charge_mix_param =     0.7500.
  Threshold for auxiliary basis singularities not set.
  Default threshold for auxiliary basis singularities:  0.1000E-04
  No q(lm)/r^(l+1) cutoff set for long-range Hartree potential.
  | Using default value of  0.100000E-09 .
  | Verify using the multipole_threshold keyword.
  Defaulting to new monopole extrapolation.
  Density update method: automatic selection selected.
  Using density matrix based charge density update.
  Using density matrix based charge density update.
  Using packed matrix style: index .
  Defaulting to use time-reversal symmetry for k-point grid.
  Charge integration errors on the 3D integration grid will be compensated
  by explicit normalization and distribution of residual charges.
  Use the "compensate_multipole_errors" flag to change this behaviour.
  Default to 1D ("use_logsbt") integrations for auxiliary 2-center integrals.
  Default onset of logarithmic r-grid for SBT is -38.000000000000
  Default onset of logarithmic k-grid for SBT is -25.000000000000
  Default range of logarithmic r- and k-grid for SBT is  45.000000000000
  Default number of logarithmic r- and k-grid for SBT is   4096
  Default of use_2d_corr is to use the efficient 2D distribution where possible
 
  Consistency checks for the contents of geometry.in are next.
 

  Range separation radius for Ewald summation (hartree_convergence_parameter):      2.91768261 bohr.
  Number of empty states per atom not set in control.in .
  | Since you are using a method that relies on the unoccupied spectrum
  | (MP2,GW,RPA et al.), will use the full Hamiltonian size (see below)
  | as the max. possible number of states (occupied plus empty).

  Structure-dependent array size parameters: 
  | Maximum number of distinct radial functions  :        9
  | Maximum number of basis functions            :     1440
  | Number of Kohn-Sham states (occupied + empty):     1440
------------------------------------------------------------
CUDA runtime version: 11060
CUDA driver version: 11060
  Initializing GPUs...

  Number of GPUs available to MPI task         0 :   1
  Number of GPUs available to MPI task         1 :   1
  Number of GPUs available to MPI task         2 :   1
  Number of GPUs available to MPI task         3 :   1
  Number of GPUs available to MPI task         4 :   1
  Number of GPUs available to MPI task         5 :   1
  Number of GPUs available to MPI task         6 :   1
  Number of GPUs available to MPI task         7 :   1
  Number of GPUs available to MPI task         8 :   1
  Number of GPUs available to MPI task         9 :   1
  Number of GPUs available to MPI task        10 :   1
  Number of GPUs available to MPI task        11 :   1
  Number of GPUs available to MPI task        12 :   1
  Number of GPUs available to MPI task        13 :   1
  Number of GPUs available to MPI task        14 :   1
  Number of GPUs available to MPI task        15 :   1
  Number of GPUs available to MPI task        16 :   1
  Number of GPUs available to MPI task        17 :   1

  | MPI task         0, GPU activated = T, Device Name = NVIDIA A100-SXM4-80GB
  | MPI task         1, GPU activated = T, Device Name = NVIDIA A100-SXM4-80GB
  | MPI task         2, GPU activated = T, Device Name = NVIDIA A100-SXM4-80GB
  | MPI task         3, GPU activated = T, Device Name = NVIDIA A100-SXM4-80GB
  | MPI task         4, GPU activated = T, Device Name = NVIDIA A100-SXM4-80GB
  | MPI task         5, GPU activated = T, Device Name = NVIDIA A100-SXM4-80GB
  | MPI task         6, GPU activated = T, Device Name = NVIDIA A100-SXM4-80GB
  | MPI task         7, GPU activated = T, Device Name = NVIDIA A100-SXM4-80GB
  | MPI task         8, GPU activated = T, Device Name = NVIDIA A100-SXM4-80GB
  | MPI task         9, GPU activated = T, Device Name = NVIDIA A100-SXM4-80GB
  | MPI task        10, GPU activated = T, Device Name = NVIDIA A100-SXM4-80GB
  | MPI task        11, GPU activated = T, Device Name = NVIDIA A100-SXM4-80GB
  | MPI task        12, GPU activated = T, Device Name = NVIDIA A100-SXM4-80GB
  | MPI task        13, GPU activated = T, Device Name = NVIDIA A100-SXM4-80GB
  | MPI task        14, GPU activated = T, Device Name = NVIDIA A100-SXM4-80GB
  | MPI task        15, GPU activated = T, Device Name = NVIDIA A100-SXM4-80GB
  | MPI task        16, GPU activated = T, Device Name = NVIDIA A100-SXM4-80GB
  | MPI task        17, GPU activated = T, Device Name = NVIDIA A100-SXM4-80GB

------------------------------------------------------------
          Preparing all fixed parts of the calculation.
------------------------------------------------------------
  Determining machine precision:
    2.225073858507201E-308
  Setting up grids for atomic and cluster calculations.

  Creating wave function, potential, and density for free atoms.
  Runtime choices for atomic solver:
  | atomic solver xc        : PW-LDA
  | compute density gradient: 0
  | compute kinetic density : F

  Species: H

  List of occupied orbitals and eigenvalues:
    n    l              occ      energy [Ha]    energy [eV]
    1    0           1.0000        -0.232375        -6.3233


  Species: C

  List of occupied orbitals and eigenvalues:
    n    l              occ      energy [Ha]    energy [eV]
    1    0           2.0000        -9.944615      -270.6068
    2    0           2.0000        -0.498807       -13.5732
    2    1           2.0000        -0.196968        -5.3598


  Adding cutoff potential to free-atom effective potential.
  Creating fixed part of basis set: Ionic, confined, hydrogenic.
 
  H                    hydrogenic:
 
  List of hydrogenic basis orbitals: 
    n    l      effective z      eigenvalue [eV]  inner max. [A]     outer max. [A]     outer radius [A]   
    2    0         2.100000       -14.9728           0.193243           1.317208           4.583499
    2    1         3.500000       -41.6669           0.602369           0.602369           3.723403
 
 
  C                    hydrogenic:
 
  List of hydrogenic basis orbitals: 
    n    l      effective z      eigenvalue [eV]  inner max. [A]     outer max. [A]     outer radius [A]   
    2    1         1.700000        -9.7616           1.230570           1.230570           4.607917
    3    2         6.000000       -54.4224           0.792453           0.792453           3.883070
    2    0         4.900000       -81.6679           0.082559           0.562749           3.078220
 
  Creating atomic-like basis functions for current effective potential.

  Species H                   :

  List of atomic basis orbitals and eigenvalues:
    n    l      energy [Ha]    energy [eV]    outer radius [A]
    1    0        -0.232375        -6.3233       4.527807


  Species C                   :

  List of atomic basis orbitals and eigenvalues:
    n    l      energy [Ha]    energy [eV]    outer radius [A]
    1    0        -9.944615      -270.6068       1.934409
    2    0        -0.498807       -13.5732       4.496620
    2    1        -0.196968        -5.3598       4.551928

  Assembling full basis from fixed parts.
  | Species H :   atomic orbital   1 s accepted.
  | Species H :    hydro orbital   2 s accepted.
  | Species H :    hydro orbital   2 p accepted.
  | Species C :   atomic orbital   1 s accepted.
  | Species C :    hydro orbital   2 s accepted.
  | Species C :   atomic orbital   2 s accepted.
  | Species C :   atomic orbital   2 p accepted.
  | Species C :    hydro orbital   2 p accepted.
  | Species C :    hydro orbital   3 d accepted.
 
  Basis size parameters after reduction:
  | Total number of radial functions:        9
  | Total number of basis functions :     1440
 
  Per-task memory consumption for arrays in subroutine allocate_ext:
  |           2.242384MB.
  Testing on-site integration grid accuracy.
  |  Species  Function  <phi|h_atom|phi> (log., in eV)  <phi|h_atom|phi> (rad., in eV)
           1        1                 -6.3245358373                 -6.3232436907
           1        2                 14.1326137532                 14.1384481100
           1        3                 25.3627025200                 25.3628451197
           2        4               -270.6067544938               -270.6067222788
           2        5                -10.5634280949                -10.5635685736
           2        6                 16.2089822398                 16.2052121796
           2        7                 -5.3613872565                 -5.3627872378
           2        8                  8.5292058327                  8.5051734780
           2        9                 27.4884461005                 27.4884542459

  Preparing densities etc. for the partition functions (integrals / Hartree potential).

  Preparations completed.
  max(cpu_time)          :      0.075 s.
  Wall clock time (cpu1) :      0.070 s.
------------------------------------------------------------

  Initializing index lists of integration centers etc. from given atomic structure:
  Mapping all atomic coordinates to central unit cell.

  Initializing the k-points
  Using symmetry for reducing the k-points
  | k-points reduced from:        2 to        2
  | Number of k-points                             :         2
  | Consuming          0 KiB for k_phase_exx.
  The eigenvectors in the calculations are REAL.
  | Number of basis functions in the Hamiltonian integrals :      7986
  | Number of basis functions in a single unit cell        :      1440
  | Number of centers in hartree potential         :      3326
  | Number of centers in hartree multipole         :      2563
  | Number of centers in electron density summation:      1989
  | Number of centers in basis integrals           :      2123
  | Number of centers in integrals                 :       964
  | Number of centers in hamiltonian               :      1997
  | Consuming          1 KiB for k_phase.
  | Number of super-cells (origin) [n_cells]                     :         175
  | Number of super-cells (after PM_index) [n_cells]             :          40
  | Number of super-cells in hamiltonian [n_cells_in_hamiltonian]:          40
  | Size of matrix packed + index [n_hamiltonian_matrix_size] :     1931459
  | Size of matrix packed + index (no_symmetry):     3860101

------------------------------------------------------------
          Begin self-consistency loop: Initialization.

          Date     :  20230119, Time     :  175945.134
------------------------------------------------------------
  | Estimated reciprocal-space cutoff momentum G_max:         3.24344278 bohr^-1 .
  | Reciprocal lattice points for long-range Hartree potential:    5310
  Using simple linear distribution as default method for k-point parallelism.
  * Using 18 tasks for Scalapack Eigenvalue solver.
  Detailed listing of tasks and assigned k-points:
   Task     0 k-point     1 on adag036
   Task     1 k-point     1 on adag036
   Task     2 k-point     1 on adag036
   Task     3 k-point     1 on adag036
   Task     4 k-point     1 on adag036
   Task     5 k-point     1 on adag036
   Task     6 k-point     1 on adag036
   Task     7 k-point     1 on adag036
   Task     8 k-point     1 on adag036
   Task     9 k-point     2 on adag036
   Task    10 k-point     2 on adag036
   Task    11 k-point     2 on adag036
   Task    12 k-point     2 on adag036
   Task    13 k-point     2 on adag036
   Task    14 k-point     2 on adag036
   Task    15 k-point     2 on adag036
   Task    16 k-point     2 on adag036
   Task    17 k-point     2 on adag036
  K-point:     1 Tasks:     9 split into      3 X      3 BLACS grid
  Calculating block size based on n_basis =         1440  max_nprow =            3  max_npcol =            3
  ScaLAPACK block size set to:           16
  Allocating        1.758 MB for ovlp
  Allocating        1.758 MB for ham
  Allocating        1.758 MB for eigenvec
  Required Scalapack workspace - INTEGER:            1  REAL:             1
  Partitioning the integration grid into batches with parallel hashing+maxmin method.
  | Number of batches:     5120
  | Maximal batch size:     200
  | Minimal batch size:     101
  | Average batch size:     149.188
  | Standard deviation of batch sizes:      32.767

  Integration load balanced across    18 MPI tasks.
  Work distribution over tasks is as follows:
  Task     0 has      42441 integration points.
  Task     1 has      42442 integration points.
  Task     2 has      42434 integration points.
  Task     3 has      42518 integration points.
  Task     4 has      42420 integration points.
  Task     5 has      42399 integration points.
  Task     6 has      42368 integration points.
  Task     7 has      42401 integration points.
  Task     8 has      42331 integration points.
  Task     9 has      42529 integration points.
  Task    10 has      42437 integration points.
  Task    11 has      42490 integration points.
  Task    12 has      42428 integration points.
  Task    13 has      42418 integration points.
  Task    14 has      42518 integration points.
  Task    15 has      42427 integration points.
  Task    16 has      42468 integration points.
  Task    17 has      42371 integration points.
  Initializing partition tables, free-atom densities, potentials, etc. across the integration grid (initialize_grid_storage).
  | initialize_grid_storage: Actual outermost partition radius vs. multipole_radius_free
  | (-- VB: in principle, multipole_radius_free should be larger, hence this output)
  | Species        1: Confinement radius =              4.999999999999999 AA, multipole_radius_free =              5.054417573612229 AA.
  | Species        1: outer_partition_radius set to              5.054417573612229 AA .
  | Species        2: Confinement radius =              4.999999999999999 AA, multipole_radius_free =              5.019602836301480 AA.
  | Species        2: outer_partition_radius set to              5.019602836301480 AA .
  | The sparse table of interatomic distances needs       7648.27 kbyte instead of     36057.03 kbyte of memory.
  | Net number of integration points:   763840
  | of which are non-zero points    :   605171
  | Numerical average free-atom electrostatic potential    :     -8.61473545 eV
  Renormalizing the initial density to the exact electron count on the 3D integration grid.
  | Initial density: Formal number of electrons (from input files) :     544.0000000000
  | Integrated number of electrons on 3D grid     :     544.0006960698
  | Charge integration error                      :       0.0006960698
  | Normalization factor for density and gradient :       0.9999987205
  Renormalizing the free-atom superposition density to the exact electron count on the 3D integration grid.
  | Formal number of electrons (from input files) :     544.0000000000
  | Integrated number of electrons on 3D grid     :     544.0006960698
  | Charge integration error                      :       0.0006960698
  | Normalization factor for density and gradient :       0.9999987205
  Obtaining max. number of non-zero basis functions in each batch (get_n_compute_maxes).
  | Maximal number of non-zero basis functions:      549 in task     0
  | Maximal number of non-zero basis functions:      538 in task     1
  | Maximal number of non-zero basis functions:      543 in task     2
  | Maximal number of non-zero basis functions:      551 in task     3
  | Maximal number of non-zero basis functions:      545 in task     4
  | Maximal number of non-zero basis functions:      540 in task     5
  | Maximal number of non-zero basis functions:      547 in task     6
  | Maximal number of non-zero basis functions:      543 in task     7
  | Maximal number of non-zero basis functions:      553 in task     8
  | Maximal number of non-zero basis functions:      538 in task     9
  | Maximal number of non-zero basis functions:      549 in task    10
  | Maximal number of non-zero basis functions:      533 in task    11
  | Maximal number of non-zero basis functions:      537 in task    12
  | Maximal number of non-zero basis functions:      548 in task    13
  | Maximal number of non-zero basis functions:      536 in task    14
  | Maximal number of non-zero basis functions:      541 in task    15
  | Maximal number of non-zero basis functions:      534 in task    16
  | Maximal number of non-zero basis functions:      547 in task    17
  Integrating Hamiltonian matrix: batch-based integration.
  GPU acceleration will be used when integrating the Hamiltonian matrix.
  Reporting GPU memory usage by myid 0.  Note that it is likely not the only MPI task binding to its GPU!
  Allocating        2.411 MB on GPU for hamiltonian_shell
  Allocating        0.878 MB on GPU for wave
  Allocating        0.002 MB on GPU for partition
  Allocating        0.878 MB on GPU for h_times_psi
  Time summed over all CPUs for integration: real work       19.827 s, elapsed       27.632 s => Consider using load balancing!
  Deallocating memory used on GPU for Hamiltonian integration.
  Integrating overlap matrix.
  Time summed over all CPUs for integration: real work       17.449 s, elapsed       17.791 s
  Deallocating overlap matrix.

  Updating Kohn-Sham eigenvalues and eigenvectors using ELSI and the ELPA eigensolver.
  Singularity check in k-point 1 (analysis for other k-points may follow below):
  Overlap matrix is not singular
  | Lowest and highest eigenvalues :  0.7756E-03,  0.8230E+01
  Finished singularity check of overlap matrix
  | Time :     0.100 s
  Starting ELPA eigensolver
  Finished Cholesky decomposition
  | Time :     0.016 s
  Finished transformation to standard eigenproblem
  | Time :     0.021 s
  Finished solving standard eigenproblem
  | Time :     0.207 s
  Finished back-transformation of eigenvectors
  | Time :     0.015 s

  Obtaining occupation numbers and electronic chemical potential using ELSI.
  | Note that, for insulating systems, the printed 'chemical potential' value is not uniquely defined.
  | It can be anywhere in the energy gap, as long as it correctly separates occupied and unoccupied states.
  | In systems with a gap, the physically relevant chemical potential is the VBM or HOMO.

  | Chemical potential (Fermi level):    -8.80808706 eV
  Writing Kohn-Sham eigenvalues.
  K-point:       1 at    0.000000    0.000000    0.000000 (in units of recip. lattice)

  State    Occupation    Eigenvalue [Ha]    Eigenvalue [eV]
      1       2.00000         -10.071038         -274.04690
      2       2.00000         -10.069696         -274.01036
      3       2.00000         -10.068371         -273.97432
      4       2.00000         -10.068355         -273.97388
      5       2.00000         -10.067930         -273.96232
      6       2.00000         -10.067730         -273.95686
      7       2.00000         -10.067729         -273.95684
      8       2.00000         -10.067607         -273.95353
      9       2.00000         -10.067193         -273.94226
     10       2.00000         -10.067067         -273.93882
     11       2.00000         -10.066856         -273.93310
     12       2.00000         -10.066312         -273.91828
     13       2.00000         -10.066164         -273.91425
     14       2.00000         -10.066024         -273.91045
     15       2.00000         -10.065978         -273.90919
     16       2.00000         -10.065889         -273.90678
     17       2.00000         -10.065814         -273.90474
     18       2.00000         -10.065804         -273.90446
     19       2.00000         -10.065753         -273.90308
     20       2.00000         -10.065330         -273.89157
     21       2.00000         -10.065263         -273.88975
     22       2.00000         -10.065094         -273.88513
     23       2.00000         -10.065076         -273.88465
     24       2.00000         -10.064984         -273.88216
     25       2.00000         -10.064737         -273.87542
     26       2.00000         -10.064735         -273.87536
     27       2.00000         -10.064689         -273.87411
     28       2.00000         -10.064613         -273.87206
     29       2.00000         -10.064402         -273.86631
     30       2.00000         -10.064083         -273.85763
     31       2.00000         -10.063692         -273.84700
     32       2.00000         -10.063687         -273.84686
     33       2.00000         -10.063603         -273.84457
     34       2.00000         -10.063583         -273.84403
     35       2.00000         -10.063528         -273.84253
     36       2.00000         -10.063374         -273.83833
     37       2.00000         -10.063372         -273.83827
     38       2.00000         -10.063303         -273.83640
     39       2.00000         -10.063046         -273.82940
     40       2.00000         -10.062623         -273.81789
     41       2.00000         -10.062446         -273.81308
     42       2.00000         -10.062410         -273.81211
     43       2.00000         -10.062262         -273.80808
     44       2.00000         -10.062131         -273.80452
     45       2.00000         -10.061858         -273.79710
     46       2.00000         -10.061840         -273.79659
     47       2.00000         -10.061727         -273.79353
     48       2.00000         -10.061580         -273.78951
     49       2.00000         -10.061171         -273.77840
     50       2.00000         -10.060983         -273.77329
     51       2.00000         -10.060876         -273.77036
     52       2.00000         -10.060549         -273.76148
     53       2.00000         -10.060549         -273.76147
     54       2.00000         -10.060472         -273.75938
     55       2.00000         -10.060033         -273.74742
     56       2.00000         -10.059750         -273.73972
     57       2.00000         -10.059483         -273.73245
     58       2.00000         -10.059229         -273.72556
     59       2.00000         -10.058954         -273.71806
     60       2.00000         -10.058936         -273.71757
     61       2.00000         -10.058813         -273.71422
     62       2.00000         -10.058650         -273.70979
     63       2.00000         -10.058435         -273.70394
     64       2.00000         -10.058422         -273.70360
     65       2.00000         -10.057575         -273.68054
     66       2.00000         -10.057551         -273.67989
     67       2.00000         -10.057452         -273.67719
     68       2.00000         -10.057234         -273.67127
     69       2.00000         -10.055773         -273.63150
     70       2.00000         -10.055542         -273.62522
     71       2.00000         -10.055505         -273.62422
     72       2.00000         -10.055287         -273.61829
[...]
  |    H      2     3.678162 A  1.011968E+04 A            0.556529 a.u.
  |    H      1     3.958095 A  1.721251E+06 A            0.841931 a.u.
  |    H      0     4.527807 A  3.866455E+12 A            0.581436 a.u.
  |    C      0     2.562483 A      2.562483 A        6.563029E-17 a.u.
  |    C      0     2.967371 A      2.967371 A        1.352164E-16 a.u.
  |    C      0     3.003870 A      3.003870 A        2.312640E-17 a.u.
  |    C      1     3.272245 A      3.272245 A       -3.835259E-17 a.u.
  |    C      0     3.312494 A      3.312494 A       -2.710381E-16 a.u.
  |    C      3     4.077671 A      4.077671 A       -1.683752E-15 a.u.
  |    C      3     4.077671 A      4.077671 A        1.412852E-15 a.u.
  |    C      1     4.496620 A      4.496620 A       -3.011059E-16 a.u.
  |    C      0     4.496620 A      4.551928 A        2.873903E-17 a.u.
  |    C      2     4.551928 A      4.551928 A       -4.610785E-16 a.u.
  |    C      2     4.551928 A      4.551928 A        7.440584E-16 a.u.
  |    C      2     4.551928 A      4.551928 A       -7.110458E-16 a.u.
  |    C      2     4.551928 A      4.551928 A       -1.935424E-16 a.u.
  |    C      0     4.551928 A      4.607917 A        2.067142E-16 a.u.
  |    C      0     4.551928 A      4.607917 A       -1.109786E-16 a.u.
  |    C      1     4.551928 A      4.607917 A       -9.951742E-17 a.u.
  |    C      1     4.551928 A      4.607917 A        1.937809E-16 a.u.
  |    C      1     4.607917 A      4.607917 A       -2.813308E-16 a.u.
  |    C      1     4.607917 A      4.607917 A       -7.330363E-17 a.u.
  |    C      2     4.607917 A      4.607917 A        1.318462E-15 a.u.
  |    C      2     4.607917 A      4.607917 A       -1.318397E-15 a.u.
  |    C      0     4.607917 A      4.664595 A        3.157826E-16 a.u.
  |    C      1     4.607917 A      4.664595 A        7.356967E-16 a.u.
  |    C      4     3.835889 A  2.962973E+02 A            4.379483 a.u.
  |    C      3     4.127827 A  1.725964E+03 A            9.005588 a.u.
  |    C      2     4.607917 A  2.608475E+04 A            9.531178 a.u.
  |    C      1     4.607917 A  2.736013E+06 A            2.127278 a.u.
  |    C      0     4.607917 A  4.399765E+12 A            0.661635 a.u.

  | Shrink_full_auxil_basis : there are       36  radial auxiliary wave functions
                            accepted and       7 rejected.
  | Shrink_full_auxil_basis : there are totally                8992 partial auxiliary wave functions.
 
  | Maximal number of product basis functions per thread :   512   512
 
  | Minimal total memory requirement for three-center overlap :      72.476 Gbs
  | Number of local auxiliary basis functions on task:      0   512
  | Number of local auxiliary basis functions on task:      1   512
  | Number of local auxiliary basis functions on task:      2   512
  | Number of local auxiliary basis functions on task:      3   512
  | Number of local auxiliary basis functions on task:      4   496
  | Number of local auxiliary basis functions on task:      5   496
  | Number of local auxiliary basis functions on task:      6   496
  | Number of local auxiliary basis functions on task:      7   496
  | Number of local auxiliary basis functions on task:      8   496
  | Number of local auxiliary basis functions on task:      9   496
  | Number of local auxiliary basis functions on task:     10   496
  | Number of local auxiliary basis functions on task:     11   496
  | Number of local auxiliary basis functions on task:     12   496
  | Number of local auxiliary basis functions on task:     13   496
  | Number of local auxiliary basis functions on task:     14   496
  | Number of local auxiliary basis functions on task:     15   496
  | Number of local auxiliary basis functions on task:     16   496
  | Number of local auxiliary basis functions on task:     17   496
  | 2D aux task distribution:      3 X      6
  | 2D block size (nb_aux_2d):     64
 
  Basis pair condensation :   1037520  -->     552354
 
 --------------------------------------------
  Constructing auxiliary basis (full product) ...
 
  Product basis:
  | charge radius: extent of product basis function
  | field radius: extent of its Coulomb potential
  | Species   l  charge radius    field radius  multipol momen
  |    H      1     3.910002 A      3.910002 A       -2.487223E-16 a.u.
  |    H      1     3.958095 A      3.958095 A       -2.441841E-16 a.u.
  |    H      0     4.527807 A      4.527807 A        1.268855E-16 a.u.
  |    H      0     4.527807 A      4.583499 A       -4.900954E-17 a.u.
  |    H      0     4.527807 A      4.583499 A        4.713786E-16 a.u.
  |    H      2     3.678162 A  1.011968E+04 A            0.556529 a.u.
  |    H      1     3.958095 A  1.721251E+06 A            0.841931 a.u.
  |    H      0     4.527807 A  3.866455E+12 A            0.581436 a.u.
  |    C      0     2.562483 A      2.562483 A        6.563029E-17 a.u.
  |    C      0     2.967371 A      2.967371 A        1.352164E-16 a.u.
  |    C      0     3.003870 A      3.003870 A        2.312640E-17 a.u.
  |    C      1     3.272245 A      3.272245 A       -3.835259E-17 a.u.
  |    C      0     3.312494 A      3.312494 A       -2.710381E-16 a.u.
  |    C      3     4.077671 A      4.077671 A       -1.683752E-15 a.u.
  |    C      3     4.077671 A      4.077671 A        1.412852E-15 a.u.
  |    C      1     4.496620 A      4.496620 A       -3.011059E-16 a.u.
  |    C      0     4.496620 A      4.551928 A        2.873903E-17 a.u.
  |    C      2     4.551928 A      4.551928 A       -4.610785E-16 a.u.
  |    C      2     4.551928 A      4.551928 A        7.440584E-16 a.u.
  |    C      2     4.551928 A      4.551928 A       -7.110458E-16 a.u.
  |    C      2     4.551928 A      4.551928 A       -1.935424E-16 a.u.
  |    C      0     4.551928 A      4.607917 A        2.067142E-16 a.u.
  |    C      0     4.551928 A      4.607917 A       -1.109786E-16 a.u.
  |    C      1     4.551928 A      4.607917 A       -9.951742E-17 a.u.
  |    C      1     4.551928 A      4.607917 A        1.937809E-16 a.u.
  |    C      1     4.607917 A      4.607917 A       -2.813308E-16 a.u.
  |    C      1     4.607917 A      4.607917 A       -7.330363E-17 a.u.
  |    C      2     4.607917 A      4.607917 A        1.318462E-15 a.u.
  |    C      2     4.607917 A      4.607917 A       -1.318397E-15 a.u.
  |    C      0     4.607917 A      4.664595 A        3.157826E-16 a.u.
  |    C      1     4.607917 A      4.664595 A        7.356967E-16 a.u.
  |    C      4     3.835889 A  2.962973E+02 A            4.379483 a.u.
  |    C      3     4.127827 A  1.725964E+03 A            9.005588 a.u.
  |    C      2     4.607917 A  2.608475E+04 A            9.531178 a.u.
  |    C      1     4.607917 A  2.736013E+06 A            2.127278 a.u.
  |    C      0     4.607917 A  4.399765E+12 A            0.661635 a.u.

  | Shrink_full_auxil_basis : there are       36  radial auxiliary wave functions
                            accepted and       7 rejected.
  | Shrink_full_auxil_basis : there are totally                8992 partial auxiliary wave functions.
 
  | Maximal number of product basis functions per thread :   512   512
 
  | Minimal total memory requirement for three-center overlap :      72.476 Gbs
  | Number of local auxiliary basis functions on task:      0   512
  | Number of local auxiliary basis functions on task:      1   512
  | Number of local auxiliary basis functions on task:      2   512
  | Number of local auxiliary basis functions on task:      3   512
  | Number of local auxiliary basis functions on task:      4   496
  | Number of local auxiliary basis functions on task:      5   496
  | Number of local auxiliary basis functions on task:      6   496
  | Number of local auxiliary basis functions on task:      7   496
  | Number of local auxiliary basis functions on task:      8   496
  | Number of local auxiliary basis functions on task:      9   496
  | Number of local auxiliary basis functions on task:     10   496
  | Number of local auxiliary basis functions on task:     11   496
  | Number of local auxiliary basis functions on task:     12   496
  | Number of local auxiliary basis functions on task:     13   496
  | Number of local auxiliary basis functions on task:     14   496
  | Number of local auxiliary basis functions on task:     15   496
  | Number of local auxiliary basis functions on task:     16   496
  | Number of local auxiliary basis functions on task:     17   496
  | 2D aux task distribution:      3 X      6
  | 2D block size (nb_aux_2d):     64
 
  Basis pair condensation :   1037520  -->     552354
  Allocating        0.069 MB for t_coeff
  Allocating        0.034 MB for basbas_idx
  Allocating        0.069 MB for wave
  Allocating        0.069 MB for total_wave
  Allocating        0.206 MB for wave_gradient
  Allocating        0.206 MB for total_wave_grad
 HERE1
 HERE2
  Deallocating        0.069 MB for t_coeff
  Deallocating        0.034 MB for basbas_idx
  Deallocating        0.069 MB for wave
  Deallocating        0.206 MB for wave_gradient
  Deallocating        0.206 MB for total_wave_grad
dP_dE (Bohr^3) at every cycle:--->
 (980.991662111588,0.000000000000000E+000) (-14.0706097511890,0.000000000000000E+000) (-436.847605509696,0.000000000000000E+000)
 (-14.1422365908170,0.000000000000000E+000) (1376.09457325104,0.000000000000000E+000) (-6.99069370831317,0.000000000000000E+000)
 (-437.036096860849,0.000000000000000E+000) (-6.97295190549023,0.000000000000000E+000) (1705.63282127467,0.000000000000000E+000)
DFPT polarizability (Bohr^3)        xx        yy        zz        xy        xz        yz
  | Polarizability:--->                       980.991662112                 1376.094573251                 1705.632821275                  -14.070609751                 -436.847605510                   -6.990693708

DFPT for dielectric_constant:--->  # PARSE DFPT_dielectric_tensor
               2.331184760507905            -0.019093517300156            -0.592792882527811
              -0.019190713393700             2.867330983207729            -0.009486222247653
              -0.593048661270723            -0.009462146999663             3.314507356582075

                                               :  max(cpu_time)    wall_clock(cpu1)
  | Time for  dielectric calculation            :        0.000 s           0.000 s
===========================================================================

------------------------------------------------------------------------------
  Final output of selected total energy values:

  The following output summarizes some interesting total energy values
  at the end of a run (AFTER all relaxation, molecular dynamics, etc.).

  | Total energy of the DFT / Hartree-Fock s.c.f. calculation      :         -83267.453670489 eV
  | Final zero-broadening corrected energy (caution - metals only) :         -83267.453670489 eV
  | For reference only, the value of 1 Hartree used in FHI-aims is :             27.211384500 eV
  | For reference only, the overall average (free atom contribution
  | + realspace contribution) of the electrostatic potential after
  | s.c.f. convergence is                                          :             -7.692139723 eV

  Before relying on these values, please be sure to understand exactly which
  total energy value is referred to by a given number. Different objects may
  all carry the same name 'total energy'. Definitions:

  Total energy of the DFT / Hartree-Fock s.c.f. calculation:
  | Note that this energy does not include ANY quantities calculated after the
  | s.c.f. cycle, in particular not ANY RPA, MP2, etc. many-body perturbation terms.

  Final zero-broadening corrected energy:
  | For metallic systems only, a broadening of the occupation numbers at the Fermi
  | level can be extrapolated back to zero broadening by an electron-gas inspired
  | formula. For all systems that are not real metals, this value can be
  | meaningless and should be avoided.

------------------------------------------------------------------------------
  Methods described in the following list of references were used in this FHI-aims run.
  If you publish the results, please make sure to cite these reference if they apply.
  FHI-aims is an academic code, and for our developers (often, Ph.D. students
  and postdocs), scientific credit in the community is essential.
  Thank you for helping us!

  For any use of FHI-aims, please cite:

    Volker Blum, Ralf Gehrke, Felix Hanke, Paula Havu, Ville Havu,
    Xinguo Ren, Karsten Reuter, and Matthias Scheffler
    'Ab initio molecular simulations with numeric atom-centered orbitals'
    Computer Physics Communications 180, 2175-2196 (2009)
    http://doi.org/10.1016/j.cpc.2009.06.022


  For Hartree-Fock, hybrid functionals, or many-body perturbation theory used in your run, please cite:

    Xinguo Ren, Patrick Rinke, Volker Blum, Juergen Wieferink, Alex Tkatchenko,
    Andrea Sanfilippo, Karsten Reuter, and Matthias Scheffler,
    'Resolution-of-identity approach to Hartree-Fock, hybrid density functionals,
    RPA, MP2, and GW with numeric atom-centered orbital basis functions'
    New Journal of Physics 14, 053020 (2012).
    http://doi.org/10.1088/1367-2630/14/5/053020


  The provided symmetry information was generated with SPGlib:

    Atsushi Togo, Yusuke Seto, Dimitar Pashov
    SPGlib 1.7.3 obtained from http://spglib.sourceforge.net
    Copyright (C) 2008 Atsushi Togo


  The DFPT (perturbation by an electric field) part of the code was used.
  Here is the corresponding reference:

    Honghui Shang, Nathaniel Raimbault, Mariana Rossi,
    Christian Carbogno, Patrick Rinke and Matthias Scheffler,
    'All-Electron, Real-Space Perturbation Theory for Homogeneous
    Electric Fields: Theory, Implementation, and Application within dft'
    New Journal of Physics, 20(7):073040, 2018


  The ELSI infrastructure was used in your run to solve the Kohn-Sham electronic structure.
  Please check out http://elsi-interchange.org to learn more.
  If scalability is important for your project, please acknowledge ELSI by citing:

    V. W-z. Yu, F. Corsetti, A. Garcia, W. P. Huhn, M. Jacquelin, W. Jia,
    B. Lange, L. Lin, J. Lu, W. Mi, A. Seifitokaldani, A. Vazquez-Mayagoitia,
    C. Yang, H. Yang, and V. Blum
    'ELSI: A unified software interface for Kohn-Sham electronic structure solvers'
    Computer Physics Communications 222, 267-285 (2018).
    http://doi.org/10.1016/j.cpc.2017.09.007


  For the real-space grid partitioning and parallelization used in this calculation, please cite:

    Ville Havu, Volker Blum, Paula Havu, and Matthias Scheffler,
    'Efficient O(N) integration for all-electron electronic structure calculation'
    'using numerically tabulated basis functions'
    Journal of Computational Physics 228, 8367-8379 (2009).
    http://doi.org/10.1016/j.jcp.2009.08.008


  The high-level electronic structure method used in your calculation
  employed our efficient localized resolution of identity for the Coulomb operator.
  Some calculations, especially large-scale hybrid density functional theory,
  are only possible thanks to this development. For this feature, please cite:

    Arvid Ihrig, Juergen Wieferink, Igor Ying Zhang, Matti Ropo, Xinguo Ren,
    Patrick Rinke, Matthias Scheffler, and Volker Blum,
    'Accurate localized resolution of identity approach for linear-scaling
    hybrid density functionals and for many-body perturbation theory'
    New Journal of Physics 117, 093020 (2015).
    http://doi.org/10.1088/1367-2630/17/9/093020

  Of course, there are many other important community references, e.g., those cited in the
  above references. Our list is limited to references that describe implementations in the
  FHI-aims code. The reason is purely practical (length of this list) - please credit others as well.

------------------------------------------------------------
          Leaving FHI-aims.
          Date     :  20230119, Time     :  182425.884

          Computational steps:
          | Number of self-consistency cycles          :           47
          | Number of SCF (re)initializations          :            1
          | Number of coupled perturbed self-consistency cycles          :            0
          | Number of CPSCF (re)initializations          :            0

          Detailed time accounting                     :  max(cpu_time)    wall_clock(cpu1)
          | Total time                                  :     1482.065 s        1492.228 s
          | GPU initialization                          :        1.824 s          10.284 s
          | Preparation time                            :        0.075 s           0.070 s
          | Boundary condition initalization            :        1.000 s           1.000 s
          | Grid partitioning                           :        1.293 s           1.294 s
          | Preloading free-atom quantities on grid     :        3.894 s           3.897 s
          | Free-atom superposition energy              :        0.450 s           0.450 s
          | Total time for integrations                 :       17.567 s          17.968 s
          | Product basis setup: Total time             :        0.000 s           0.000 s
          | Product basis: | 2-center integrations     :(       0.000 s)  (       0.000 s)
          | Product basis: | LVL 3-center & coefficient:(       0.000 s)  (       0.000 s)
          | Total time for solution of K.-S. equations  :        3.412 s           3.414 s
          | Total time for density update               :       12.592 s          13.210 s
          | Total time for mixing & preconditioning     :       11.788 s          11.794 s
          | Total time for Hartree multipole update     :        0.092 s           0.090 s
          | Total time for Hartree multipole sum        :       43.329 s          43.348 s
          | Total time for total energy evaluation      :        0.007 s           0.007 s
          | Total time first_order_DM                   :        1.955 s           1.956 s
          | Total time first_order_density              :      294.511 s         294.578 s
          | Total time first_order_potential            :      122.072 s         122.116 s
          | Total time first_order_H                    :      561.672 s         561.858 s
          | Total time solving of Sternheimer equations :        1.895 s           1.899 s
          | Total time for dielectric constant          :        0.000 s           0.000 s
          | Total time momentum matrix                  :        0.000 s           0.000 s

          GPU acceleration has been used for charge density update.
          GPU acceleration has been used for real-space Hamiltonian integration.
          Due to GPU usage, wall_clock(cpu1) will give a more reliable estimate for timings.

          Partial memory accounting:
          | Residual value for overall tracked memory usage across tasks:     1.234863 MB (should be 0.000000 MB)
          |
          | Largest tracked array allocation:
          |   Minimum:      103.151 MB (DFPT_pulay_mixing::initialize_pulay_mixing::X_in_diffs on task  0)
          |   Maximum:      103.151 MB (DFPT_pulay_mixing::initialize_pulay_mixing::X_in_diffs on task  0)
          |   Average:      103.151 MB
          |
          | Because the residual tracked memory usage was not zero, the peak value for overall
          | tracked memory usage was not output, as it is probably incorrect.  This is likely due
          | to a missing aims_deallocate statement in the source code, which should be otherwise
          | harmless.
          |
          Note:  These values currently only include a subset of arrays which are explicitly tracked.
          The "true" memory usage will be greater.

          Have a nice day.
------------------------------------------------------------
