------------------------------------------------------------
          Invoking FHI-aims ...

          When using FHI-aims, please cite the following reference:

            Volker Blum, Ralf Gehrke, Felix Hanke, Paula Havu,
            Ville Havu, Xinguo Ren, Karsten Reuter, and Matthias Scheffler,
            'Ab Initio Molecular Simulations with Numeric Atom-Centered Orbitals',
            Computer Physics Communications 180, 2175-2196 (2009)

          In addition, many other developments in FHI-aims are likely important for
          your particular application. A partial list of references is given at the end of
          this file. Thank you for giving credit to the authors of these developments.

          For any questions about FHI-aims, please visit our slack channel at

            https://fhi-aims.slack.com

          and our main development and support site at

            https://aims-git.rz-berlin.mpg.de .

          The latter site, in particular, has a wiki to collect information, as well
          as an issue tracker to log discussions, suggest improvements, and report issues
          or bugs. https://aims-git.rz-berlin.mpg.de is also the main development site
          of the project and all new and updated code versions can be obtained there.
          Please send an email to aims-coordinators@fhi-berlin.mpg.de and we will add
          you to these sites. They are for you and everyone is welcome there.

------------------------------------------------------------



  Date     :  20230119, Time     :  163917.567
  Time zero on CPU 1             :   0.883402000000000E+00  s.
  Internal wall clock time zero  :           443378357.567  s.

  FHI-aims created a unique identifier for this run for later identification
  aims_uuid : EE53F42A-0FB8-4DAA-ADE2-62B61E46FE68

  Build configuration of the current instance of FHI-aims
  -------------------------------------------------------
  FHI-aims version      : 220829
  Commit number         : 9895fc21d
  CMake host system     : Linux-5.3.18-150300.59.68-default
  CMake version         : 3.17.0
  Fortran compiler      : /mpcdf/soft/SLE_15/packages/x86_64/intel_oneapi/2021.3/mpi/2021.3.0/bin/mpiifort (Intel) version 20.2.3.20210609
  Fortran compiler flags: -O3 -ip -fp-model precise
  C compiler            : /mpcdf/soft/SLE_15/packages/x86_64/intel/2021.3.0/bin/icc (Intel) version 20.2.3.20210609
  C compiler flags      : -O3 -ip -fp-model precise -std=gnu99
  CUDA compiler         : /mpcdf/soft/SLE_15/packages/x86_64/cuda/11.6.2/bin/nvcc
  CUDA compiler flags   : -O3 -DAdd_ -lcublas
  ELPA2 kernel          : AVX512
  Using MPI
  Using ScaLAPACK
  Using LibXC
  Using CUDA
  Using i-PI
  Using RLSY
  Linking against: /mpcdf/soft/SLE_15/packages/x86_64/cuda/11.6.2/lib64/libcublas.so
                   /mpcdf/soft/SLE_15/packages/x86_64/cuda/11.6.2/lib64/libcudart.so
                   /mpcdf/soft/SLE_15/packages/x86_64/intel_oneapi/2021.3/mkl/latest/lib/intel64/libmkl_intel_lp64.so
                   /mpcdf/soft/SLE_15/packages/x86_64/intel_oneapi/2021.3/mkl/latest/lib/intel64/libmkl_sequential.so
                   /mpcdf/soft/SLE_15/packages/x86_64/intel_oneapi/2021.3/mkl/latest/lib/intel64/libmkl_core.so
                   /mpcdf/soft/SLE_15/packages/x86_64/intel_oneapi/2021.3/mkl/latest/lib/intel64/libmkl_blacs_intelmpi_lp64.so
                   /mpcdf/soft/SLE_15/packages/x86_64/intel_oneapi/2021.3/mkl/latest/lib/intel64/libmkl_scalapack_lp64.so

  Using       18 parallel tasks.
  Task        0 on host adag012 reporting.
  Task        1 on host adag012 reporting.
  Task        2 on host adag012 reporting.
  Task        3 on host adag012 reporting.
  Task        4 on host adag012 reporting.
  Task        5 on host adag012 reporting.
  Task        6 on host adag012 reporting.
  Task        7 on host adag012 reporting.
  Task        8 on host adag012 reporting.
  Task        9 on host adag012 reporting.
  Task       10 on host adag012 reporting.
  Task       11 on host adag012 reporting.
  Task       12 on host adag012 reporting.
  Task       13 on host adag012 reporting.
  Task       14 on host adag012 reporting.
  Task       15 on host adag012 reporting.
  Task       16 on host adag012 reporting.
  Task       17 on host adag012 reporting.

  Performing system and environment tests:
  | Environment variable OMP_NUM_THREADS correctly set to 1.
  | Checking for ScaLAPACK...
  | Testing pdtran()...
  | All pdtran() tests passed.

  Obtaining array dimensions for all initial allocations:
  
  -----------------------------------------------------------------------
  Parsing control.in (first pass over file, find array dimensions only).
  The contents of control.in will be repeated verbatim below
  unless switched off by setting 'verbatim_writeout .false.' .
  in the first line of control.in .
  -----------------------------------------------------------------------
  
  #
  # Input for polarizability replays on generic oligoacene molecular crystals (light settings,  LDA+MBD).
  #
  #########################################################################################
  #
  #  Physical model
  #
    xc                 pw-lda
    spin               none
    relativistic       none
    charge             0.0
    k_grid 	     2 1 1
    DFPT dielectric
  #
  #  GPU acceleration
  #
  # Turns on GPU acceleration everywhere
    use_gpu
  
  # Turns OFF GPU acceleration of ELPA - may be necessary if GPU ELPA is slow
    elsi_elpa_gpu 0
  #
  #  Relaxation
  #
  #  relax_geometry trm 1E-3
  #  relax_unit_cell fixed_angles
  #
  #  SCF convergence        #
    charge_mix_param   0.75
    #sc_accuracy_rho 1E-4
  #
  # i-PI communication
  #
  compute_forces .false.
  # use_pimd_wrapper 130.183.223.27 26118
  #communicate_pimd_wrapper polarizability
  #output_level MD_light
  #
  # Output SALTED info
    ri_density_restart write
    ri_rho1 write
    ri_full_output .true.
  #  sc_accuracy_rho    1d-6
    default_prodbas_acc 1e-6
    default_max_l_prodbas 6
  #
  #
  ################################################################################
  #
  #  FHI-aims code project
  #  VB, Fritz-Haber Institut, 2009
  #
  #  Suggested "light" defaults for H atom (to be pasted into control.in file)
  #  Be sure to double-check any results obtained with these settings for post-processing,
  #  e.g., with the "tight" defaults and larger basis sets.
  #
  ################################################################################
    species        H
  #     global species definitions
      nucleus             1
      mass                1.00794
  #
      l_hartree           4
  #
      cut_pot             3.5  1.5  1.0
      basis_dep_cutoff    1e-4
  #
      radial_base         24 5.0
      radial_multiplier   1
      angular_grids       specified
        division   0.2421   50
        division   0.3822  110
        division   0.4799  194
        division   0.5341  302
  #      division   0.5626  434
  #      division   0.5922  590
  #      division   0.6542  770
  #      division   0.6868 1202
  #      outer_grid  770
        outer_grid  302
  ################################################################################
  #
  #  Definition of "minimal" basis
  #
  ################################################################################
  #     valence basis states
      valence      1  s   1.
  #     ion occupancy
      ion_occ      1  s   0.5
  ################################################################################
  #
  #  Suggested additional basis functions. For production calculations,
  #  uncomment them one after another (the most important basis functions are
  #  listed first).
  #
  #  Basis constructed for dimers: 0.5 A, 0.7 A, 1.0 A, 1.5 A, 2.5 A
  #
  ################################################################################
  #  "First tier" - improvements: -1014.90 meV to -62.69 meV
       hydro 2 s 2.1
       hydro 2 p 3.5
  #  "Second tier" - improvements: -12.89 meV to -1.83 meV
  #     hydro 1 s 0.85
  #     hydro 2 p 3.7
  #     hydro 2 s 1.2
  #     hydro 3 d 7
  #  "Third tier" - improvements: -0.25 meV to -0.12 meV
  #     hydro 4 f 11.2
  #     hydro 3 p 4.8
  #     hydro 4 d 9
  #     hydro 3 s 3.2
  ################################################################################
  ################################################################################
  #
  #  FHI-aims code project
  #  VB, Fritz-Haber Institut, 2009
  #
  #  Suggested "light" defaults for C atom (to be pasted into control.in file)
  #  Be sure to double-check any results obtained with these settings for post-processing,
  #  e.g., with the "tight" defaults and larger basis sets.
  #
  ################################################################################
    species        C
  #     global species definitions
      nucleus             6
      mass                12.0107
  #
      l_hartree           4
  #
      cut_pot             3.5  1.5  1.0
      basis_dep_cutoff    1e-4
  #
      radial_base         34 5.0
      radial_multiplier   1
      angular_grids specified
        division   0.3326   50
        division   0.5710  110
        division   0.7727  194
        division   0.8772  302
  #      division   0.9334  434
  #      division   0.9625  590
  #      division   0.9924  770
  #      division   1.0230  974
  #      division   1.4589 1202
  #     outer_grid  974
       outer_grid 302
  ################################################################################
  #
  #  Definition of "minimal" basis
  #
  ################################################################################
  #     valence basis states
      valence      2  s   2.
      valence      2  p   2.
  #     ion occupancy
      ion_occ      2  s   1.
      ion_occ      2  p   1.
  ################################################################################
  #
  #  Suggested additional basis functions. For production calculations,
  #  uncomment them one after another (the most important basis functions are
  #  listed first).
  #
  #  Constructed for dimers: 1.0 A, 1.25 A, 1.5 A, 2.0 A, 3.0 A
  #
  ################################################################################
  #  "First tier" - improvements: -1214.57 meV to -155.61 meV
       hydro 2 p 1.7
       hydro 3 d 6
       hydro 2 s 4.9
  #  "Second tier" - improvements: -67.75 meV to -5.23 meV
  #     hydro 4 f 9.8
  #     hydro 3 p 5.2
  #     hydro 3 s 4.3
  #     hydro 5 g 14.4
  #     hydro 3 d 6.2
  #  "Third tier" - improvements: -2.43 meV to -0.60 meV
  #     hydro 2 p 5.6
  #     hydro 2 s 1.4
  #     hydro 3 d 4.9
  #     hydro 4 f 11.2
  #  "Fourth tier" - improvements: -0.39 meV to -0.18 meV
  #     hydro 2 p 2.1
  #     hydro 5 g 16.4
  #     hydro 4 d 13.2
  #     hydro 3 s 13.6
  #     hydro 4 f 17.6
  #  Further basis functions - improvements: -0.08 meV and below
  #     hydro 3 s 2
  #     hydro 3 p 6
  #     hydro 4 d 20
  
  -----------------------------------------------------------------------
  Completed first pass over input file control.in .
  -----------------------------------------------------------------------
  
  
  -----------------------------------------------------------------------
  Parsing geometry.in (first pass over file, find array dimensions only).
  The contents of geometry.in will be repeated verbatim below
  unless switched off by setting 'verbatim_writeout .false.' .
  in the first line of geometry.in .
  -----------------------------------------------------------------------
  
  #=======================================================
  # FHI-aims file: /ada/ptmp/mpsd/alewis/naphthalene/qmdata/data/geoms/25.in
  # Created using the Atomic Simulation Environment (ASE)
  # Thu Jan 19 15:19:16 2023
  #=======================================================
  lattice_vector 8.1020000000000003 0.0000000000000000 0.0000000000000000
  lattice_vector 0.0000000000000000 11.8800000000000008 0.0000000000000000
  lattice_vector -9.7850918486534706 0.0000000000000000 14.2571119625755713
  atom -0.7389390000000000 0.2150360000000000 2.4758900000000001 C
  atom 0.2215400000000000 3.2017500000000001 4.7405099999999996 C
  atom 4.2633200000000002 5.8291100000000000 4.7359600000000004 C
  atom 3.2754099999999999 3.0019800000000001 2.5227100000000000 C
  atom -0.0647797000000000 1.0893999999999999 1.6799900000000001 C
  atom -0.5823390000000001 3.9981499999999999 5.5222600000000002 C
  atom 3.5760399999999999 4.9247199999999998 5.5190200000000003 C
  atom 3.9943900000000001 2.0758999999999999 1.7907800000000000 C
  atom 0.3352200000000000 0.7134370000000000 0.3491790000000000 C
  atom -0.9237860000000000 3.6436600000000001 6.8587800000000003 C
  atom 3.1396400000000000 5.2739900000000004 6.8285999999999998 C
  atom 4.2992100000000004 2.2919000000000000 0.4097120000000000 C
  atom -3.9127800000000001 1.5816300000000001 6.6571199999999999 C
  atom 3.0738699999999999 4.4036900000000001 0.5640430000000000 C
  atom 7.1701899999999998 4.3722300000000001 0.6156440000000000 C
  atom 0.2661830000000000 1.5460100000000001 6.5211499999999996 C
  atom -3.4754000000000000 1.1674100000000001 5.4173999999999998 C
  atom 2.7534000000000001 4.1361800000000004 1.8796600000000001 C
  atom 6.7916400000000001 4.7529599999999999 1.8855500000000001 C
  atom 0.6545810000000000 1.9285600000000001 5.2441700000000004 C
  atom -0.9017790000000000 0.6163790000000000 3.4962700000000000 H
  atom 0.4941400000000000 3.5861499999999999 3.7502000000000000 H
  atom 4.5412900000000000 5.5206000000000000 3.7118199999999999 H
  atom 3.0588700000000002 2.7701199999999999 3.5631699999999999 H
  atom 0.1952260000000000 2.0651400000000000 2.0676899999999998 H
  atom -0.9056900000000000 4.9824500000000000 5.1479200000000001 H
  atom 3.2810299999999999 3.9083500000000000 5.1589700000000001 H
  atom 4.3977000000000004 1.1784699999999999 2.2412100000000001 H
  atom -3.7191200000000002 2.5793599999999999 7.0216200000000004 H
  atom 2.6319499999999998 5.2550299999999996 0.0141260000000000 H
  atom 6.9032000000000000 3.4399000000000002 0.2126890000000000 H
  atom 0.5162480000000000 0.5617910000000000 6.9242499999999998 H
  atom -2.9237500000000001 1.8271800000000000 4.7883100000000001 H
  atom 2.1484500000000000 4.8304200000000002 2.4435600000000002 H
  atom 6.1417799999999998 4.0805499999999997 2.4640399999999998 H
  atom 1.3067000000000000 1.2887900000000001 4.6320199999999998 H
  atom -5.7399899999999997 0.1532780000000000 9.5969999999999995 C
  atom -4.8276100000000000 2.8977300000000001 11.9347999999999992 C
  atom -0.7390850000000000 5.8920199999999996 11.9869000000000003 C
  atom -1.6429600000000000 2.7964099999999998 9.4299999999999997 C
  atom -5.0472500000000000 1.0362400000000000 8.7796699999999994 C
  atom -5.5899599999999996 3.7801700000000000 12.6976999999999993 C
  atom -1.5282300000000000 5.0185399999999998 12.7238000000000007 C
  atom -0.8635680000000000 1.9707399999999999 8.6582100000000004 C
  atom -4.6518499999999996 0.6683360000000000 7.4754600000000000 C
  atom -5.9291400000000003 3.4840200000000001 14.0465000000000000 C
  atom -1.8727300000000000 5.3089899999999997 14.0707000000000004 C
  atom -0.5318700000000000 2.3667500000000001 7.3307099999999998 C
  atom -8.7450899999999994 1.5995400000000000 13.7835999999999999 C
  atom -1.7402899999999999 4.4727600000000001 7.6822900000000001 C
  atom 2.3901800000000000 4.3742200000000002 7.6128900000000002 C
  atom -4.7118399999999996 1.3875400000000000 13.8789999999999996 C
  atom -8.4430499999999995 1.2312900000000000 12.4823000000000004 C
  atom -2.0908000000000002 4.0431699999999999 8.9325700000000001 C
  atom 2.0221000000000000 4.6756099999999998 8.8994499999999999 C
  atom -4.3735600000000003 1.6985699999999999 12.5379000000000005 C
  atom -5.9736099999999999 0.4247420000000000 10.6390999999999991 H
  atom -4.5352100000000002 3.1731300000000000 10.9174000000000007 H
  atom -0.5095640000000000 5.5999800000000004 10.9512999999999998 H
  atom -1.8914700000000000 2.5194999999999999 10.4611000000000001 H
  atom -4.6917400000000002 2.0022700000000002 9.1921099999999996 H
  atom -5.9779799999999996 4.6954900000000004 12.2524999999999995 H
  atom -1.8511400000000000 4.0903200000000002 12.2067999999999994 H
  atom -0.5530990000000000 0.9715140000000000 9.0214200000000009 H
  atom -8.3867899999999995 2.5317799999999999 14.2213999999999992 H
  atom -2.0967699999999998 5.4099800000000000 7.2933300000000001 H
  atom 2.1174800000000000 3.4146600000000000 7.1861100000000002 H
  atom -4.3078200000000004 0.4588400000000000 14.3382000000000005 H
  atom -7.8584100000000001 1.8919100000000000 11.8127999999999993 H
  atom -2.8079299999999998 4.5760600000000000 9.5655800000000006 H
  atom 1.3698200000000000 3.9841799999999998 9.4488900000000005 H
  atom -3.7525100000000000 0.9771960000000000 12.0198000000000000 H
  atom -0.9136520000000000 5.9922500000000003 2.4055399999999998 C
  atom 0.1923650000000000 8.9308999999999994 4.8828399999999998 C
  atom 4.2405099999999996 11.8003999999999998 4.8862199999999998 C
  atom 3.1576399999999998 9.0283899999999999 2.3244799999999999 C
  atom -0.1018370000000000 6.8440200000000004 1.6848399999999999 C
  atom -0.5441319999999999 9.8045600000000004 5.6571100000000003 C
  atom 3.4843099999999998 10.9131000000000000 5.6410000000000000 C
  atom 3.9568900000000000 8.1223600000000005 1.6472199999999999 C
  atom 0.2880840000000000 6.5623800000000001 0.3664780000000000 C
  atom -0.8952250000000000 9.4713899999999995 6.9827700000000004 C
  atom 3.1207500000000001 11.2586999999999993 6.9665800000000004 C
  atom 4.2955600000000000 8.3597300000000008 0.2658180000000000 C
  atom -3.7520199999999999 7.4016900000000003 6.5905899999999997 C
  atom 3.1214400000000002 10.4832999999999998 0.3798610000000000 C
  atom 7.3286800000000003 10.3961000000000006 0.7603110000000000 C
  atom 0.3239500000000000 7.3584600000000000 6.7301399999999996 C
  atom -3.4294799999999999 7.0834099999999998 5.2935999999999996 C
  atom 2.7221099999999998 10.2095000000000002 1.6761600000000001 C
  atom 6.9850500000000002 10.8045000000000009 2.0629700000000000 C
  atom 0.6413110000000000 7.7091399999999997 5.4100900000000003 C
  atom -1.1219500000000000 6.3438800000000004 3.4282800000000000 H
  atom 0.5165880000000000 9.2580799999999996 3.8853100000000000 H
  atom 4.5864799999999999 11.4693000000000005 3.8821500000000002 H
  atom 2.8691399999999998 8.7833799999999993 3.3636400000000002 H
  atom 0.2500630000000000 7.7663099999999998 2.1966199999999998 H
  atom -0.9327770000000000 10.7713999999999999 5.3125600000000004 H
  atom 3.2208899999999998 9.9448000000000008 5.2812000000000001 H
  atom 4.3296999999999999 7.1814099999999996 2.1146400000000001 H
  atom -3.4218500000000001 8.3649199999999997 7.0021100000000001 H
  atom 2.7703400000000000 11.4055999999999997 -0.0763145000000000 H
  atom 7.0220599999999997 9.4327400000000008 0.3217530000000000 H
  atom 0.6499270000000000 6.4226999999999999 7.1585000000000001 H
  atom -2.7887700000000000 7.7893600000000003 4.7523600000000004 H
  atom 2.0483600000000002 10.8787000000000003 2.1660300000000001 H
  atom 6.4058900000000003 10.1555999999999997 2.7498100000000001 H
  atom 1.2030600000000000 6.9971500000000004 4.7803000000000004 H
  atom -5.6185299999999998 5.8438900000000000 9.5062099999999994 C
  atom -4.7614700000000001 8.9558099999999996 11.8369999999999997 C
  atom -0.7318650000000000 11.8276000000000003 11.9901000000000000 C
  atom -1.5784100000000001 8.7806899999999999 9.6567799999999995 C
  atom -4.8627900000000004 6.7326800000000002 8.7650600000000001 C
  atom -5.4941700000000004 9.8707899999999995 12.5549999999999997 C
  atom -1.3902200000000000 10.9539000000000009 12.8256999999999994 C
  atom -0.8266080000000000 7.8910200000000001 8.8806200000000004 C
  atom -4.5206400000000002 6.5179900000000002 7.4125699999999997 C
  atom -5.8644499999999997 9.5835899999999992 13.8926999999999996 C
  atom -1.7622899999999999 11.2973999999999997 14.1662999999999997 C
  atom -0.4857980000000000 8.1861300000000004 7.5270200000000003 C
  atom -8.7191500000000008 7.4386200000000002 13.8193000000000001 C
  atom -1.5971100000000000 10.4001999999999999 7.7843299999999997 C
  atom 2.3395999999999999 10.4022000000000006 7.7850400000000004 C
  atom -4.7082499999999996 7.4222000000000001 13.7660999999999998 C
  atom -8.3732199999999999 7.0956999999999999 12.5263000000000009 C
  atom -1.9420700000000000 10.0173000000000005 9.0772700000000004 C
  atom 2.0272500000000000 10.7723999999999993 9.1001399999999997 C
  atom -4.3290600000000001 7.7345899999999999 12.4696999999999996 C
  atom -5.8780900000000003 6.1236499999999996 10.5595999999999997 H
  atom -4.4523599999999997 9.1982499999999998 10.7998999999999992 H
  atom -0.4252930000000000 11.5172000000000008 10.9878000000000000 H
  atom -1.9591200000000000 8.4932900000000000 10.6492000000000004 H
  atom -4.4493999999999998 7.6599800000000000 9.1942799999999991 H
  atom -5.8707000000000003 10.7523000000000000 12.1236999999999995 H
  atom -1.6596000000000000 9.9855599999999995 12.5005000000000006 H
  atom -0.4855420000000000 6.9667000000000003 9.3071999999999999 H
  atom -8.4090900000000008 8.4039599999999997 14.2354000000000003 H
  atom -1.9020400000000000 11.3695000000000004 7.3624099999999997 H
  atom 1.9943599999999999 9.4359800000000007 7.4441199999999998 H
  atom -4.3920399999999997 6.4876399999999999 14.1934000000000005 H
  atom -7.7916499999999997 7.7509699999999997 11.8872000000000000 H
  atom -2.5585900000000001 10.7212999999999994 9.6222300000000001 H
  atom 1.4962000000000000 10.0791000000000004 9.7293900000000004 H
  atom -3.6574700000000000 7.0721800000000004 11.9178999999999995 H
  
  -----------------------------------------------------------------------
  Completed first pass over input file geometry.in .
  -----------------------------------------------------------------------
  

  Basic array size parameters:
  | Number of species                 :        2
  | Number of atoms                   :      144
  | Number of lattice vectors         :        3
  | Max. basis fn. angular momentum   :        2
  | Max. atomic/ionic basis occupied n:        2
  | Max. number of basis fn. types    :        2
  | Max. radial fns per species/type  :        3
  | Max. logarithmic grid size        :     1277
  | Max. radial integration grid size :       34
  | Max. angular integration grid size:      302
  | Max. angular grid division number :        8
  | Radial grid for Hartree potential :     1277
  | Number of spin channels           :        1

------------------------------------------------------------
          Reading file control.in.
------------------------------------------------------------
  XC: Using Perdew-Wang parametrisation of Ceperley-Alder LDA.
  Spin treatment: No spin polarisation.
  Non-relativistic treatment of kinetic energy.
  Charge =   0.000000E+00: Neutral system requested explicitly.
  Found k-point grid:         2         1         1
  DFPT calculation will begin after the DFT/HF calculation.
  Charge density mixing - mixing parameter:     0.7500
  Forces will not be computed.
 
  Reading configuration options for species H                   .
  | Found nuclear charge :   1.0000
  | Found atomic mass :    1.00794000000000      amu
  | Found l_max for Hartree potential  :   4
  | Found cutoff potl. onset [A], width [A], scale factor :    3.50000    1.50000    1.00000
  | Threshold for basis-dependent cutoff potential is   0.100000E-03
  | Found data for basic radial integration grid :    24 points, outermost radius =    5.000 A
  | Found multiplier for basic radial grid :   1
  | Found angular grid specification: user-specified.
  | Specified grid contains     5 separate shells.
  | Check grid settings after all constraints further below.
  | Found free-atom valence shell :  1 s   1.000
  | No ionic wave fns used. Skipping ion_occ.
  | Found hydrogenic basis function :  2 s   2.100
  | Found hydrogenic basis function :  2 p   3.500
  Species H                   : Missing cutoff potential type.
  Defaulting to exp(1/x)/(1-x)^2 type cutoff potential.
  Species H : No 'logarithmic' tag. Using default grid for free atom:
  | Default logarithmic grid data [bohr] : 0.1000E-03 0.1000E+03 0.1012E+01
  Species H : On-site basis accuracy parameter (for Gram-Schmidt orthonormalisation) not specified.
  Using default value basis_acc =  0.1000000E-03.
  Species H                   : Using default innermost maximum threshold i_radial=  2 for radial functions.
  Species H                   : Default cutoff onset for free atom density etc. : 0.35000000E+01 AA.
  Species H                   : Basic radial grid will be enhanced according to radial_multiplier =   1, to contain    24 grid points.
 
  Reading configuration options for species C                   .
  | Found nuclear charge :   6.0000
  | Found atomic mass :    12.0107000000000      amu
  | Found l_max for Hartree potential  :   4
  | Found cutoff potl. onset [A], width [A], scale factor :    3.50000    1.50000    1.00000
  | Threshold for basis-dependent cutoff potential is   0.100000E-03
  | Found data for basic radial integration grid :    34 points, outermost radius =    5.000 A
  | Found multiplier for basic radial grid :   1
  | Found angular grid specification: user-specified.
  | Specified grid contains     5 separate shells.
  | Check grid settings after all constraints further below.
  | Found free-atom valence shell :  2 s   2.000
  | Found free-atom valence shell :  2 p   2.000
  | No ionic wave fns used. Skipping ion_occ.
  | No ionic wave fns used. Skipping ion_occ.
  | Found hydrogenic basis function :  2 p   1.700
  | Found hydrogenic basis function :  3 d   6.000
  | Found hydrogenic basis function :  2 s   4.900
  Species C                   : Missing cutoff potential type.
  Defaulting to exp(1/x)/(1-x)^2 type cutoff potential.
  Species C : No 'logarithmic' tag. Using default grid for free atom:
  | Default logarithmic grid data [bohr] : 0.1000E-03 0.1000E+03 0.1012E+01
  Species C : On-site basis accuracy parameter (for Gram-Schmidt orthonormalisation) not specified.
  Using default value basis_acc =  0.1000000E-03.
  Species C                   : Using default innermost maximum threshold i_radial=  2 for radial functions.
  Species C                   : Default cutoff onset for free atom density etc. : 0.35000000E+01 AA.
  Species C                   : Basic radial grid will be enhanced according to radial_multiplier =   1, to contain    34 grid points.
 
  Finished reading input file 'control.in'.
 
------------------------------------------------------------


------------------------------------------------------------
          Reading geometry description geometry.in.
------------------------------------------------------------
  | The smallest distance between any two atoms is         1.05018837 AA.
  | The first atom of this pair is atom number                     15 .
  | The second atom of this pair is atom number                    31 .
  | Wigner-Seitz cell of the first atom image           0     0     0 .
  | (The Wigner-Seitz cell of the second atom is 0 0 0  by definition.)

  Symmetry information by spglib:
  | Precision set to  0.1E-04
  | Number of Operations  : 1
  | Space group           : 1
  | International         : P1
  | Schoenflies           : C1^1
  Input structure read successfully.
  The structure contains      144 atoms,  and a total of        544.000 electrons.

  Input geometry:
  | Unit cell:
  |        8.10200000        0.00000000        0.00000000
  |        0.00000000       11.88000000        0.00000000
  |       -9.78509185        0.00000000       14.25711196
  | Atomic structure:
  |       Atom                x [A]            y [A]            z [A]
  |    1: Species C            -0.73893900        0.21503600        2.47589000
  |    2: Species C             0.22154000        3.20175000        4.74051000
  |    3: Species C             4.26332000        5.82911000        4.73596000
  |    4: Species C             3.27541000        3.00198000        2.52271000
  |    5: Species C            -0.06477970        1.08940000        1.67999000
  |    6: Species C            -0.58233900        3.99815000        5.52226000
  |    7: Species C             3.57604000        4.92472000        5.51902000
  |    8: Species C             3.99439000        2.07590000        1.79078000
  |    9: Species C             0.33522000        0.71343700        0.34917900
  |   10: Species C            -0.92378600        3.64366000        6.85878000
  |   11: Species C             3.13964000        5.27399000        6.82860000
  |   12: Species C             4.29921000        2.29190000        0.40971200
  |   13: Species C            -3.91278000        1.58163000        6.65712000
  |   14: Species C             3.07387000        4.40369000        0.56404300
  |   15: Species C             7.17019000        4.37223000        0.61564400
  |   16: Species C             0.26618300        1.54601000        6.52115000
  |   17: Species C            -3.47540000        1.16741000        5.41740000
  |   18: Species C             2.75340000        4.13618000        1.87966000
  |   19: Species C             6.79164000        4.75296000        1.88555000
  |   20: Species C             0.65458100        1.92856000        5.24417000
  |   21: Species H            -0.90177900        0.61637900        3.49627000
  |   22: Species H             0.49414000        3.58615000        3.75020000
  |   23: Species H             4.54129000        5.52060000        3.71182000
  |   24: Species H             3.05887000        2.77012000        3.56317000
  |   25: Species H             0.19522600        2.06514000        2.06769000
  |   26: Species H            -0.90569000        4.98245000        5.14792000
  |   27: Species H             3.28103000        3.90835000        5.15897000
  |   28: Species H             4.39770000        1.17847000        2.24121000
  |   29: Species H            -3.71912000        2.57936000        7.02162000
  |   30: Species H             2.63195000        5.25503000        0.01412600
  |   31: Species H             6.90320000        3.43990000        0.21268900
  |   32: Species H             0.51624800        0.56179100        6.92425000
  |   33: Species H            -2.92375000        1.82718000        4.78831000
  |   34: Species H             2.14845000        4.83042000        2.44356000
  |   35: Species H             6.14178000        4.08055000        2.46404000
  |   36: Species H             1.30670000        1.28879000        4.63202000
  |   37: Species C            -5.73999000        0.15327800        9.59700000
  |   38: Species C            -4.82761000        2.89773000       11.93480000
  |   39: Species C            -0.73908500        5.89202000       11.98690000
  |   40: Species C            -1.64296000        2.79641000        9.43000000
  |   41: Species C            -5.04725000        1.03624000        8.77967000
  |   42: Species C            -5.58996000        3.78017000       12.69770000
  |   43: Species C            -1.52823000        5.01854000       12.72380000
  |   44: Species C            -0.86356800        1.97074000        8.65821000
  |   45: Species C            -4.65185000        0.66833600        7.47546000
  |   46: Species C            -5.92914000        3.48402000       14.04650000
  |   47: Species C            -1.87273000        5.30899000       14.07070000
  |   48: Species C            -0.53187000        2.36675000        7.33071000
  |   49: Species C            -8.74509000        1.59954000       13.78360000
  |   50: Species C            -1.74029000        4.47276000        7.68229000
  |   51: Species C             2.39018000        4.37422000        7.61289000
  |   52: Species C            -4.71184000        1.38754000       13.87900000
  |   53: Species C            -8.44305000        1.23129000       12.48230000
  |   54: Species C            -2.09080000        4.04317000        8.93257000
  |   55: Species C             2.02210000        4.67561000        8.89945000
  |   56: Species C            -4.37356000        1.69857000       12.53790000
  |   57: Species H            -5.97361000        0.42474200       10.63910000
  |   58: Species H            -4.53521000        3.17313000       10.91740000
  |   59: Species H            -0.50956400        5.59998000       10.95130000
  |   60: Species H            -1.89147000        2.51950000       10.46110000
  |   61: Species H            -4.69174000        2.00227000        9.19211000
  |   62: Species H            -5.97798000        4.69549000       12.25250000
  |   63: Species H            -1.85114000        4.09032000       12.20680000
  |   64: Species H            -0.55309900        0.97151400        9.02142000
  |   65: Species H            -8.38679000        2.53178000       14.22140000
  |   66: Species H            -2.09677000        5.40998000        7.29333000
  |   67: Species H             2.11748000        3.41466000        7.18611000
  |   68: Species H            -4.30782000        0.45884000       14.33820000
  |   69: Species H            -7.85841000        1.89191000       11.81280000
  |   70: Species H            -2.80793000        4.57606000        9.56558000
  |   71: Species H             1.36982000        3.98418000        9.44889000
  |   72: Species H            -3.75251000        0.97719600       12.01980000
  |   73: Species C            -0.91365200        5.99225000        2.40554000
  |   74: Species C             0.19236500        8.93090000        4.88284000
  |   75: Species C             4.24051000       11.80040000        4.88622000
  |   76: Species C             3.15764000        9.02839000        2.32448000
  |   77: Species C            -0.10183700        6.84402000        1.68484000
  |   78: Species C            -0.54413200        9.80456000        5.65711000
  |   79: Species C             3.48431000       10.91310000        5.64100000
  |   80: Species C             3.95689000        8.12236000        1.64722000
  |   81: Species C             0.28808400        6.56238000        0.36647800
  |   82: Species C            -0.89522500        9.47139000        6.98277000
  |   83: Species C             3.12075000       11.25870000        6.96658000
  |   84: Species C             4.29556000        8.35973000        0.26581800
  |   85: Species C            -3.75202000        7.40169000        6.59059000
  |   86: Species C             3.12144000       10.48330000        0.37986100
  |   87: Species C             7.32868000       10.39610000        0.76031100
  |   88: Species C             0.32395000        7.35846000        6.73014000
  |   89: Species C            -3.42948000        7.08341000        5.29360000
  |   90: Species C             2.72211000       10.20950000        1.67616000
  |   91: Species C             6.98505000       10.80450000        2.06297000
  |   92: Species C             0.64131100        7.70914000        5.41009000
  |   93: Species H            -1.12195000        6.34388000        3.42828000
  |   94: Species H             0.51658800        9.25808000        3.88531000
  |   95: Species H             4.58648000       11.46930000        3.88215000
  |   96: Species H             2.86914000        8.78338000        3.36364000
  |   97: Species H             0.25006300        7.76631000        2.19662000
  |   98: Species H            -0.93277700       10.77140000        5.31256000
  |   99: Species H             3.22089000        9.94480000        5.28120000
  |  100: Species H             4.32970000        7.18141000        2.11464000
  |  101: Species H            -3.42185000        8.36492000        7.00211000
  |  102: Species H             2.77034000       11.40560000       -0.07631450
  |  103: Species H             7.02206000        9.43274000        0.32175300
  |  104: Species H             0.64992700        6.42270000        7.15850000
  |  105: Species H            -2.78877000        7.78936000        4.75236000
  |  106: Species H             2.04836000       10.87870000        2.16603000
  |  107: Species H             6.40589000       10.15560000        2.74981000
  |  108: Species H             1.20306000        6.99715000        4.78030000
  |  109: Species C            -5.61853000        5.84389000        9.50621000
  |  110: Species C            -4.76147000        8.95581000       11.83700000
  |  111: Species C            -0.73186500       11.82760000       11.99010000
  |  112: Species C            -1.57841000        8.78069000        9.65678000
  |  113: Species C            -4.86279000        6.73268000        8.76506000
  |  114: Species C            -5.49417000        9.87079000       12.55500000
  |  115: Species C            -1.39022000       10.95390000       12.82570000
  |  116: Species C            -0.82660800        7.89102000        8.88062000
  |  117: Species C            -4.52064000        6.51799000        7.41257000
  |  118: Species C            -5.86445000        9.58359000       13.89270000
  |  119: Species C            -1.76229000       11.29740000       14.16630000
  |  120: Species C            -0.48579800        8.18613000        7.52702000
  |  121: Species C            -8.71915000        7.43862000       13.81930000
  |  122: Species C            -1.59711000       10.40020000        7.78433000
  |  123: Species C             2.33960000       10.40220000        7.78504000
  |  124: Species C            -4.70825000        7.42220000       13.76610000
  |  125: Species C            -8.37322000        7.09570000       12.52630000
  |  126: Species C            -1.94207000       10.01730000        9.07727000
  |  127: Species C             2.02725000       10.77240000        9.10014000
  |  128: Species C            -4.32906000        7.73459000       12.46970000
  |  129: Species H            -5.87809000        6.12365000       10.55960000
  |  130: Species H            -4.45236000        9.19825000       10.79990000
  |  131: Species H            -0.42529300       11.51720000       10.98780000
  |  132: Species H            -1.95912000        8.49329000       10.64920000
  |  133: Species H            -4.44940000        7.65998000        9.19428000
  |  134: Species H            -5.87070000       10.75230000       12.12370000
  |  135: Species H            -1.65960000        9.98556000       12.50050000
  |  136: Species H            -0.48554200        6.96670000        9.30720000
  |  137: Species H            -8.40909000        8.40396000       14.23540000
  |  138: Species H            -1.90204000       11.36950000        7.36241000
  |  139: Species H             1.99436000        9.43598000        7.44412000
  |  140: Species H            -4.39204000        6.48764000       14.19340000
  |  141: Species H            -7.79165000        7.75097000       11.88720000
  |  142: Species H            -2.55859000       10.72130000        9.62223000
  |  143: Species H             1.49620000       10.07910000        9.72939000
  |  144: Species H            -3.65747000        7.07218000       11.91790000

  Lattice parameters for 3D lattice (in Angstroms) :     8.102000   11.880000   17.292000
  Angle(s) between unit vectors (in degrees)       :    90.000000  124.463000   90.000000


  Quantities derived from the lattice vectors (in Angstrom^-1):
  | Reciprocal lattice vector 1:  0.775510  0.000000  0.532257
  | Reciprocal lattice vector 2:  0.000000  0.528888  0.000000
  | Reciprocal lattice vector 3: -0.000000  0.000000  0.440705
  | Unit cell volume                               :   0.137227E+04  Angstrom^3

  Fractional coordinates:
                         L1                L2                L3
       atom_frac         0.11853123        0.01810067        0.17366000  C
       atom_frac         0.42891841        0.26950758        0.33250142  C
       atom_frac         0.92739498        0.49066582        0.33218228  C
       atom_frac         0.61797371        0.25269192        0.17694397  C
       atom_frac         0.13431854        0.09170034        0.11783523  C
       atom_frac         0.39592161        0.33654461        0.38733371  C
       atom_frac         0.90890054        0.41453872        0.38710645  C
       atom_frac         0.64471205        0.17473906        0.12560608  C
       atom_frac         0.07095436        0.06005362        0.02449157  C
       atom_frac         0.46699635        0.30670539        0.48107780  C
       atom_frac         0.96597346        0.44393855        0.47896096  C
       atom_frac         0.56534286        0.19292088        0.02873738  C
       atom_frac         0.08099296        0.13313384        0.46693328  C
       atom_frac         0.42717723        0.37068098        0.03956222  C
       atom_frac         0.93714210        0.36803283        0.04318154  C
       atom_frac         0.58526878        0.13013552        0.45739628  C
       atom_frac         0.02995893        0.09826684        0.37997878  C
       atom_frac         0.49907037        0.34816330        0.13184017  C
       atom_frac         0.99799440        0.40008081        0.13225329  C
       atom_frac         0.52503273        0.16233670        0.36782835  C
       atom_frac         0.18487016        0.05188375        0.24522989  H
       atom_frac         0.37867402        0.30186448        0.26304065  H
       atom_frac         0.87494761        0.46469697        0.26034866  H
       atom_frac         0.67938565        0.23317508        0.24992229  H
       atom_frac         0.19925264        0.17383333        0.14502867  H
       atom_frac         0.32430078        0.41939815        0.36107734  H
       atom_frac         0.84198826        0.32898569        0.36185239  H
       atom_frac         0.73264761        0.09919781        0.15719944  H
       atom_frac         0.13577296        0.21711785        0.49249946  H
       atom_frac         0.32604852        0.44234259        0.00099080  H
       atom_frac         0.87005369        0.28955387        0.01491810  H
       atom_frac         0.65028048        0.04728880        0.48566989  H
       atom_frac         0.04475605        0.15380303        0.33585413  H
       atom_frac         0.47217230        0.40660101        0.17139236  H
       atom_frac         0.96678919        0.34348064        0.17282883  H
       atom_frac         0.55366538        0.10848401        0.32489189  H
       atom_frac         0.10450809        0.01290219        0.67313773  C
       atom_frac         0.41515776        0.24391667        0.83711203  C
       atom_frac         0.92420279        0.49596128        0.84076635  C
       atom_frac         0.59604262        0.23538805        0.66142428  C
       atom_frac         0.12077338        0.08722559        0.61580985  C
       atom_frac         0.38568992        0.31819613        0.89062217  C
       atom_frac         0.88922525        0.42243603        0.89245284  C
       atom_frac         0.62686081        0.16588721        0.60729059  C
       atom_frac         0.05909489        0.05625724        0.52433200  C
       atom_frac         0.45808472        0.29326768        0.98522759  C
       atom_frac         0.96080247        0.44688468        0.98692498  C
       atom_frac         0.55534688        0.19922138        0.51417917  C
       atom_frac         0.08825180        0.13464141        0.96678767  C
       atom_frac         0.43597883        0.37649495        0.53883914  C
       atom_frac         0.93990856        0.36820034        0.53397140  C
       atom_frac         0.59414244        0.11679630        0.97347906  C
       atom_frac         0.01529673        0.10364394        0.87551392  C
       atom_frac         0.49862946        0.34033418        0.62653432  C
       atom_frac         1.00346391        0.39356987        0.62421127  C
       atom_frac         0.52228883        0.14297727        0.87941373  C
       atom_frac         0.16395083        0.03575269        0.74623108  H
       atom_frac         0.36506238        0.26709848        0.76575116  H
       atom_frac         0.86480474        0.47137879        0.76812892  H
       atom_frac         0.65271572        0.21207912        0.73374608  H
       atom_frac         0.19959098        0.16854125        0.64473857  H
       atom_frac         0.30008459        0.39524327        0.85939565  H
       atom_frac         0.80557394        0.34430303        0.85619023  H
       atom_frac         0.69594882        0.08177727        0.63276630  H
       atom_frac         0.16956204        0.21311279        0.99749515  H
       atom_frac         0.35903053        0.45538552        0.51155732  H
       atom_frac         0.87009714        0.28742929        0.50403686  H
       atom_frac         0.68290855        0.03862290        1.00568755  H
       atom_frac         0.03074251        0.15925168        0.82855490  H
       atom_frac         0.46373982        0.38519024        0.67093392  H
       atom_frac         0.96949915        0.33536869        0.66274923  H
       atom_frac         0.55505384        0.08225556        0.84307397  H
       atom_frac         0.09100761        0.50439815        0.16872562  C
       atom_frac         0.43737440        0.75175926        0.34248451  C
       atom_frac         0.93730834        0.99329966        0.34272158  C
       atom_frac         0.58664548        0.75996549        0.16304003  C
       atom_frac         0.13015554        0.57609596        0.11817541  C
       atom_frac         0.41206067        0.82529966        0.39679214  C
       atom_frac         0.90791172        0.91861111        0.39566218  C
       atom_frac         0.62792242        0.68370034        0.11553672  C
       atom_frac         0.06660196        0.55238889        0.02570493  C
       atom_frac         0.48102488        0.79725505        0.48977451  C
       atom_frac         0.97533039        0.94770202        0.48863893  C
       atom_frac         0.55270292        0.70368098        0.01864459  C
       atom_frac         0.09519914        0.62303788        0.46226683  C
       atom_frac         0.41744634        0.88243266        0.02664361  C
       atom_frac         0.96895886        0.87509259        0.05332854  C
       atom_frac         0.61010255        0.61939899        0.47205493  C
       atom_frac         0.02513941        0.59624663        0.37129539  C
       atom_frac         0.47796962        0.85938552        0.11756659  C
       atom_frac         1.03689575        0.90946970        0.14469761  C
       atom_frac         0.53745016        0.64891751        0.37946605  C
       atom_frac         0.15193574        0.53399663        0.24046104  H
       atom_frac         0.39289003        0.77929966        0.27251732  H
       atom_frac         0.89495412        0.96542929        0.27229568  H
       atom_frac         0.63906554        0.73934175        0.23592716  H
       atom_frac         0.21694279        0.65372980        0.15407188  H
       atom_frac         0.33490439        0.90668350        0.37262526  H
       atom_frac         0.84491965        0.83710438        0.37042565  H
       atom_frac         0.71353272        0.60449579        0.14832176  H
       atom_frac         0.17081118        0.70411785        0.49113102  H
       atom_frac         0.33546816        0.96006734       -0.00535273  H
       atom_frac         0.89396309        0.79400168        0.02256789  H
       atom_frac         0.68662360        0.54063131        0.50210029  H
       atom_frac         0.05837077        0.65567003        0.33333259  H
       atom_frac         0.43630864        0.91571549        0.15192628  H
       atom_frac         1.02359525        0.85484848        0.19287286  H
       atom_frac         0.55343447        0.58898569        0.33529231  H
       atom_frac         0.11180851        0.49190993        0.66676968  C
       atom_frac         0.41503641        0.75385606        0.83025230  C
       atom_frac         0.92536500        0.99558923        0.84099080  C
       atom_frac         0.62322061        0.73911532        0.67733073  C
       atom_frac         0.14230297        0.56672391        0.61478510  C
       atom_frac         0.38542463        0.83087458        0.88061313  C
       atom_frac         0.91489139        0.92204545        0.89960015  C
       atom_frac         0.65026327        0.66422727        0.62289053  C
       atom_frac         0.06996216        0.54865236        0.51992087  C
       atom_frac         0.45304058        0.80669949        0.97443999  C
       atom_frac         0.98253207        0.95095960        0.99363041  C
       atom_frac         0.57766304        0.68906818        0.52794844  C
       atom_frac         0.09447767        0.62614646        0.96929168  C
       atom_frac         0.46229495        0.87543771        0.54599627  C
       atom_frac         0.94824870        0.87560606        0.54604607  C
       atom_frac         0.58502164        0.62476431        0.96556021  C
       atom_frac         0.02764289        0.59728114        0.87860010  C
       atom_frac         0.52924438        0.84320707        0.63668364  C
       atom_frac         1.02110026        0.90676768        0.63828776  C
       atom_frac         0.52200400        0.65105976        0.87463015  C
       atom_frac         0.16900597        0.51545875        0.74065491  H
       atom_frac         0.36533468        0.77426347        0.75750966  H
       atom_frac         0.87829796        0.96946128        0.77068904  H
       atom_frac         0.66030012        0.71492340        0.74693949  H
       atom_frac         0.22968594        0.64477946        0.64489078  H
       atom_frac         0.30241496        0.90507576        0.85036156  H
       atom_frac         0.85409471        0.84053535        0.87679048  H
       atom_frac         0.72849592        0.58642256        0.65281103  H
       atom_frac         0.16799559        0.70740404        0.99847711  H
       atom_frac         0.38891719        0.95702862        0.51640262  H
       atom_frac         0.87675724        0.79427441        0.52213380  H
       atom_frac         0.66024739        0.54609764        0.99553122  H
       atom_frac         0.04528497        0.65243855        0.83377335  H
       atom_frac         0.49931383        0.90246633        0.67490737  H
       atom_frac         1.00885927        0.84840909        0.68242362  H
       atom_frac         0.55815220        0.59530135        0.83592666  H

 
  Finished reading input file 'geometry.in'.
 

 
  Consistency checks for stacksize environment parameter are next.
 
  | Maximum stacksize for task 0: unlimited
  | Maximum stacksize for task 1: unlimited
  | Maximum stacksize for task 2: unlimited
  | Maximum stacksize for task 3: unlimited
  | Maximum stacksize for task 4: unlimited
  | Maximum stacksize for task 5: unlimited
  | Maximum stacksize for task 6: unlimited
  | Maximum stacksize for task 7: unlimited
  | Maximum stacksize for task 8: unlimited
  | Maximum stacksize for task 9: unlimited
  | Maximum stacksize for task 10: unlimited
  | Maximum stacksize for task 11: unlimited
  | Maximum stacksize for task 12: unlimited
  | Maximum stacksize for task 13: unlimited
  | Maximum stacksize for task 14: unlimited
  | Maximum stacksize for task 15: unlimited
  | Maximum stacksize for task 16: unlimited
  | Maximum stacksize for task 17: unlimited
  | Current stacksize for task 0: unlimited
  | Current stacksize for task 1: unlimited
  | Current stacksize for task 2: unlimited
  | Current stacksize for task 3: unlimited
  | Current stacksize for task 4: unlimited
  | Current stacksize for task 5: unlimited
  | Current stacksize for task 6: unlimited
  | Current stacksize for task 7: unlimited
  | Current stacksize for task 8: unlimited
  | Current stacksize for task 9: unlimited
  | Current stacksize for task 10: unlimited
  | Current stacksize for task 11: unlimited
  | Current stacksize for task 12: unlimited
  | Current stacksize for task 13: unlimited
  | Current stacksize for task 14: unlimited
  | Current stacksize for task 15: unlimited
  | Current stacksize for task 16: unlimited
  | Current stacksize for task 17: unlimited
 
  Consistency checks for the contents of control.in are next.
 
  MPI_IN_PLACE appears to work with this MPI implementation.
  | Keeping use_mpi_in_place .true. (see manual).
  Explicit treatment of the Coulomb operator is needed, but the RI method is not specified.
  Coulomb operator: Defaulting to 'LVL fast' resolution of identity - RI_type = LVL_fast
  Species H: Using default value for prodbas_acc =   1.000000E-06.
  Species H: Using default value max_l_prodbas =     6.
  Species C: Using default value for prodbas_acc =   1.000000E-06.
  Species C: Using default value max_l_prodbas =     6.
  Target number of points in a grid batch is not set.  Since GPU acceleration is enabled, defaulting to  200
  Method for grid partitioning is not set. Defaulting to parallel hash+maxmin partitioning.
  Batch size limit is not set. Defaulting to    200
  By default, will store active basis functions for each batch.
  If in need of memory, prune_basis_once .false. can be used to disable this option.
  communication_type for Hartree potential was not specified.
  Defaulting to calc_hartree .
  Defaulting to Pulay charge density mixer.
  Pulay mixer: Number of relevant iterations not set.
  Defaulting to    8 iterations.
  Pulay mixer: Number of initial linear mixing iterations not set.
  Defaulting to    0 iterations.
  Work space size for distributed Hartree potential not set.
  Defaulting to   0.200000E+03 MB.
  Algorithm-dependent basis array size parameters:
  | n_max_pulay                         :        8
  Maximum number of self-consistency iterations not provided.
  Presetting  1000 iterations.
  Presetting      1001 iterations before the initial mixing cycle
  is restarted anyway using the sc_init_iter criterion / keyword.
  Presetting a factor      1.000 between actual scf density residual
  and density convergence criterion sc_accuracy_rho below which sc_init_iter
  takes no effect.
 * No s.c.f. convergence criteria (sc_accuracy_*) were provided in control.in.
 * The run will proceed with a reasonable default guess, but please check whether.
 * the s.c.f. cycles seem to take too much or too little time.
  Geometry relaxation not requested: no relaxation will be performed.
 * Notice: The s.c.f. convergence criterion sc_accuracy_rho was not provided.
 * We used to stop in this case, and ask the user to provide reasonable
 * scf convergence criteria. However, this led some users to employ criteria
 * that led to extremely long run times, e.g., for simple relaxation.
 * We now preset a default value for sc_accuracy_rho if it is not set.
 * You may still wish to check if this setting is too tight or too loose for your needs.
 * Based on n_atoms and forces and force-correction status, FHI-aims chose sc_accuracy_rho =  0.391918E-04 .
  No accuracy limit for integral partition fn. given. Defaulting to  0.1000E-14.
  No threshold value for u(r) in integrations given. Defaulting to  0.1000E-05.
  No occupation type (smearing scheme) given. Defaulting to Gaussian broadening, width =  0.1000E-01 eV.
  The width will be adjusted in iteration number     2 of the first full s.c.f. cycle only.
  S.C.F. convergence parameters will be adjusted in iteration number     2 of the first full s.c.f. cycle only.
  No accuracy for occupation numbers given. Defaulting to  0.1000E-12.
  No threshold value for occupation numbers given. Defaulting to  0.0000E+00.
  No accuracy for fermi level given. Defaulting to  0.1000E-19.
  Maximum # of iterations to find E_F not set. Defaulting to  200.
  Preferred method for the eigenvalue solver ('KS_method') not specified in 'control.in'.
  Calling BLACS routine to test compilation state
  Since ScaLAPACK support is enabled, defaulting to ELPA (via ELSI).
  Will not use alltoall communication since running on < 1024 CPUs.
  Threshold for basis singularities not set.
  Default threshold for basis singularities:  0.1000E-04
  partition_type (choice of integration weights) for integrals was not specified.
  | Using a version of the partition function of Stratmann and coworkers ('stratmann_sparse').
  | At each grid point, the set of atoms used to build the partition table is smoothly restricted to
  | only those atoms whose free-atom density would be non-zero at that grid point.
  Partitioning for Hartree potential was not defined. Using partition_type for integrals.
  | Adjusted default value of keyword multip_moments_threshold to:       0.10000000E-11
  | This value may affect high angular momentum components of the Hartree potential in periodic systems.
  Angular momentum expansion for Kerker preconditioner not set explicitly.
  | Using default value of   0
  No explicit requirement for turning off preconditioner.
  | By default, it will be turned off when the charge convergence reaches
  | sc_accuracy_rho  =   0.391918E-04
  No special mixing parameter while Kerker preconditioner is on.
  Using default: charge_mix_param =     0.7500.
  Threshold for auxiliary basis singularities not set.
  Default threshold for auxiliary basis singularities:  0.1000E-04
  No q(lm)/r^(l+1) cutoff set for long-range Hartree potential.
  | Using default value of  0.100000E-09 .
  | Verify using the multipole_threshold keyword.
  Defaulting to new monopole extrapolation.
  Density update method: automatic selection selected.
  Using density matrix based charge density update.
  Using density matrix based charge density update.
  Using packed matrix style: index .
  Defaulting to use time-reversal symmetry for k-point grid.
  Charge integration errors on the 3D integration grid will be compensated
  by explicit normalization and distribution of residual charges.
  Use the "compensate_multipole_errors" flag to change this behaviour.
  Default to 1D ("use_logsbt") integrations for auxiliary 2-center integrals.
  Default onset of logarithmic r-grid for SBT is -38.000000000000
  Default onset of logarithmic k-grid for SBT is -25.000000000000
  Default range of logarithmic r- and k-grid for SBT is  45.000000000000
  Default number of logarithmic r- and k-grid for SBT is   4096
  Default of use_2d_corr is to use the efficient 2D distribution where possible
 
  Consistency checks for the contents of geometry.in are next.
 

  Range separation radius for Ewald summation (hartree_convergence_parameter):      2.91768261 bohr.
  Number of empty states per atom not set in control.in .
  | Since you are using a method that relies on the unoccupied spectrum
  | (MP2,GW,RPA et al.), will use the full Hamiltonian size (see below)
  | as the max. possible number of states (occupied plus empty).

  Structure-dependent array size parameters: 
  | Maximum number of distinct radial functions  :        9
  | Maximum number of basis functions            :     1440
  | Number of Kohn-Sham states (occupied + empty):     1440
------------------------------------------------------------
CUDA runtime version: 11060
CUDA driver version: 11060
  Initializing GPUs...

  Number of GPUs available to MPI task         0 :   1
  Number of GPUs available to MPI task         1 :   1
  Number of GPUs available to MPI task         2 :   1
  Number of GPUs available to MPI task         3 :   1
  Number of GPUs available to MPI task         4 :   1
  Number of GPUs available to MPI task         5 :   1
  Number of GPUs available to MPI task         6 :   1
  Number of GPUs available to MPI task         7 :   1
  Number of GPUs available to MPI task         8 :   1
  Number of GPUs available to MPI task         9 :   1
  Number of GPUs available to MPI task        10 :   1
  Number of GPUs available to MPI task        11 :   1
  Number of GPUs available to MPI task        12 :   1
  Number of GPUs available to MPI task        13 :   1
  Number of GPUs available to MPI task        14 :   1
  Number of GPUs available to MPI task        15 :   1
  Number of GPUs available to MPI task        16 :   1
  Number of GPUs available to MPI task        17 :   1

  | MPI task         0, GPU activated = T, Device Name = NVIDIA A100-SXM4-80GB
  | MPI task         1, GPU activated = T, Device Name = NVIDIA A100-SXM4-80GB
  | MPI task         2, GPU activated = T, Device Name = NVIDIA A100-SXM4-80GB
  | MPI task         3, GPU activated = T, Device Name = NVIDIA A100-SXM4-80GB
  | MPI task         4, GPU activated = T, Device Name = NVIDIA A100-SXM4-80GB
  | MPI task         5, GPU activated = T, Device Name = NVIDIA A100-SXM4-80GB
  | MPI task         6, GPU activated = T, Device Name = NVIDIA A100-SXM4-80GB
  | MPI task         7, GPU activated = T, Device Name = NVIDIA A100-SXM4-80GB
  | MPI task         8, GPU activated = T, Device Name = NVIDIA A100-SXM4-80GB
  | MPI task         9, GPU activated = T, Device Name = NVIDIA A100-SXM4-80GB
  | MPI task        10, GPU activated = T, Device Name = NVIDIA A100-SXM4-80GB
  | MPI task        11, GPU activated = T, Device Name = NVIDIA A100-SXM4-80GB
  | MPI task        12, GPU activated = T, Device Name = NVIDIA A100-SXM4-80GB
  | MPI task        13, GPU activated = T, Device Name = NVIDIA A100-SXM4-80GB
  | MPI task        14, GPU activated = T, Device Name = NVIDIA A100-SXM4-80GB
  | MPI task        15, GPU activated = T, Device Name = NVIDIA A100-SXM4-80GB
  | MPI task        16, GPU activated = T, Device Name = NVIDIA A100-SXM4-80GB
  | MPI task        17, GPU activated = T, Device Name = NVIDIA A100-SXM4-80GB

------------------------------------------------------------
          Preparing all fixed parts of the calculation.
------------------------------------------------------------
  Determining machine precision:
    2.225073858507201E-308
  Setting up grids for atomic and cluster calculations.

  Creating wave function, potential, and density for free atoms.
  Runtime choices for atomic solver:
  | atomic solver xc        : PW-LDA
  | compute density gradient: 0
  | compute kinetic density : F

  Species: H

  List of occupied orbitals and eigenvalues:
    n    l              occ      energy [Ha]    energy [eV]
    1    0           1.0000        -0.232375        -6.3233


  Species: C

  List of occupied orbitals and eigenvalues:
    n    l              occ      energy [Ha]    energy [eV]
    1    0           2.0000        -9.944615      -270.6068
    2    0           2.0000        -0.498807       -13.5732
    2    1           2.0000        -0.196968        -5.3598


  Adding cutoff potential to free-atom effective potential.
  Creating fixed part of basis set: Ionic, confined, hydrogenic.
 
  H                    hydrogenic:
 
  List of hydrogenic basis orbitals: 
    n    l      effective z      eigenvalue [eV]  inner max. [A]     outer max. [A]     outer radius [A]   
    2    0         2.100000       -14.9728           0.193243           1.317208           4.583499
    2    1         3.500000       -41.6669           0.602369           0.602369           3.723403
 
 
  C                    hydrogenic:
 
  List of hydrogenic basis orbitals: 
    n    l      effective z      eigenvalue [eV]  inner max. [A]     outer max. [A]     outer radius [A]   
    2    1         1.700000        -9.7616           1.230570           1.230570           4.607917
    3    2         6.000000       -54.4224           0.792453           0.792453           3.883070
    2    0         4.900000       -81.6679           0.082559           0.562749           3.078220
 
  Creating atomic-like basis functions for current effective potential.

  Species H                   :

  List of atomic basis orbitals and eigenvalues:
    n    l      energy [Ha]    energy [eV]    outer radius [A]
    1    0        -0.232375        -6.3233       4.527807


  Species C                   :

  List of atomic basis orbitals and eigenvalues:
    n    l      energy [Ha]    energy [eV]    outer radius [A]
    1    0        -9.944615      -270.6068       1.934409
    2    0        -0.498807       -13.5732       4.496620
    2    1        -0.196968        -5.3598       4.551928

  Assembling full basis from fixed parts.
  | Species H :   atomic orbital   1 s accepted.
  | Species H :    hydro orbital   2 s accepted.
  | Species H :    hydro orbital   2 p accepted.
  | Species C :   atomic orbital   1 s accepted.
  | Species C :    hydro orbital   2 s accepted.
  | Species C :   atomic orbital   2 s accepted.
  | Species C :   atomic orbital   2 p accepted.
  | Species C :    hydro orbital   2 p accepted.
  | Species C :    hydro orbital   3 d accepted.
 
  Basis size parameters after reduction:
  | Total number of radial functions:        9
  | Total number of basis functions :     1440
 
  Per-task memory consumption for arrays in subroutine allocate_ext:
  |           2.242384MB.
  Testing on-site integration grid accuracy.
  |  Species  Function  <phi|h_atom|phi> (log., in eV)  <phi|h_atom|phi> (rad., in eV)
           1        1                 -6.3245358373                 -6.3232436907
           1        2                 14.1326137532                 14.1384481100
           1        3                 25.3627025200                 25.3628451197
           2        4               -270.6067544938               -270.6067222788
           2        5                -10.5634280949                -10.5635685736
           2        6                 16.2089822398                 16.2052121796
           2        7                 -5.3613872565                 -5.3627872378
           2        8                  8.5292058327                  8.5051734780
           2        9                 27.4884461005                 27.4884542459

  Preparing densities etc. for the partition functions (integrals / Hartree potential).

  Preparations completed.
  max(cpu_time)          :      0.084 s.
  Wall clock time (cpu1) :      0.072 s.
------------------------------------------------------------

  Initializing index lists of integration centers etc. from given atomic structure:
  Mapping all atomic coordinates to central unit cell.

  Initializing the k-points
  Using symmetry for reducing the k-points
  | k-points reduced from:        2 to        2
  | Number of k-points                             :         2
  | Consuming          0 KiB for k_phase_exx.
  The eigenvectors in the calculations are REAL.
  | Number of basis functions in the Hamiltonian integrals :      8042
  | Number of basis functions in a single unit cell        :      1440
  | Number of centers in hartree potential         :      3311
  | Number of centers in hartree multipole         :      2537
  | Number of centers in electron density summation:      1983
  | Number of centers in basis integrals           :      2126
  | Number of centers in integrals                 :       975
  | Number of centers in hamiltonian               :      1990
  | Consuming          1 KiB for k_phase.
  | Number of super-cells (origin) [n_cells]                     :         175
  | Number of super-cells (after PM_index) [n_cells]             :          36
  | Number of super-cells in hamiltonian [n_cells_in_hamiltonian]:          36
  | Size of matrix packed + index [n_hamiltonian_matrix_size] :     1931962
  | Size of matrix packed + index (no_symmetry):     3861107

------------------------------------------------------------
          Begin self-consistency loop: Initialization.

          Date     :  20230119, Time     :  163953.528
------------------------------------------------------------
  | Estimated reciprocal-space cutoff momentum G_max:         3.24344278 bohr^-1 .
  | Reciprocal lattice points for long-range Hartree potential:    5310
  Using simple linear distribution as default method for k-point parallelism.
  * Using 18 tasks for Scalapack Eigenvalue solver.
  Detailed listing of tasks and assigned k-points:
   Task     0 k-point     1 on adag012
   Task     1 k-point     1 on adag012
   Task     2 k-point     1 on adag012
   Task     3 k-point     1 on adag012
   Task     4 k-point     1 on adag012
   Task     5 k-point     1 on adag012
   Task     6 k-point     1 on adag012
   Task     7 k-point     1 on adag012
   Task     8 k-point     1 on adag012
   Task     9 k-point     2 on adag012
   Task    10 k-point     2 on adag012
   Task    11 k-point     2 on adag012
   Task    12 k-point     2 on adag012
   Task    13 k-point     2 on adag012
   Task    14 k-point     2 on adag012
   Task    15 k-point     2 on adag012
   Task    16 k-point     2 on adag012
   Task    17 k-point     2 on adag012
  K-point:     1 Tasks:     9 split into      3 X      3 BLACS grid
  Calculating block size based on n_basis =         1440  max_nprow =            3  max_npcol =            3
  ScaLAPACK block size set to:           16
  Allocating        1.758 MB for ovlp
  Allocating        1.758 MB for ham
  Allocating        1.758 MB for eigenvec
  Required Scalapack workspace - INTEGER:            1  REAL:             1
  Partitioning the integration grid into batches with parallel hashing+maxmin method.
  | Number of batches:     5514
  | Maximal batch size:     200
  | Minimal batch size:      99
  | Average batch size:     138.527
  | Standard deviation of batch sizes:      31.213

  Integration load balanced across    18 MPI tasks.
  Work distribution over tasks is as follows:
  Task     0 has      42424 integration points.
  Task     1 has      42456 integration points.
  Task     2 has      42430 integration points.
  Task     3 has      42448 integration points.
  Task     4 has      42444 integration points.
  Task     5 has      42401 integration points.
  Task     6 has      42444 integration points.
  Task     7 has      42457 integration points.
  Task     8 has      42404 integration points.
  Task     9 has      42438 integration points.
  Task    10 has      42452 integration points.
  Task    11 has      42440 integration points.
  Task    12 has      42431 integration points.
  Task    13 has      42452 integration points.
  Task    14 has      42437 integration points.
  Task    15 has      42378 integration points.
  Task    16 has      42484 integration points.
  Task    17 has      42420 integration points.
  Initializing partition tables, free-atom densities, potentials, etc. across the integration grid (initialize_grid_storage).
  | initialize_grid_storage: Actual outermost partition radius vs. multipole_radius_free
  | (-- VB: in principle, multipole_radius_free should be larger, hence this output)
  | Species        1: Confinement radius =              4.999999999999999 AA, multipole_radius_free =              5.054417573612229 AA.
  | Species        1: outer_partition_radius set to              5.054417573612229 AA .
  | Species        2: Confinement radius =              4.999999999999999 AA, multipole_radius_free =              5.019602836301480 AA.
  | Species        2: outer_partition_radius set to              5.019602836301480 AA .
  | The sparse table of interatomic distances needs       7654.28 kbyte instead of     36159.01 kbyte of memory.
  | Net number of integration points:   763840
  | of which are non-zero points    :   605309
  | Numerical average free-atom electrostatic potential    :     -8.61474555 eV
  Renormalizing the initial density to the exact electron count on the 3D integration grid.
  | Initial density: Formal number of electrons (from input files) :     544.0000000000
  | Integrated number of electrons on 3D grid     :     544.0014623113
  | Charge integration error                      :       0.0014623113
  | Normalization factor for density and gradient :       0.9999973119
  Renormalizing the free-atom superposition density to the exact electron count on the 3D integration grid.
  | Formal number of electrons (from input files) :     544.0000000000
  | Integrated number of electrons on 3D grid     :     544.0014623113
  | Charge integration error                      :       0.0014623113
  | Normalization factor for density and gradient :       0.9999973119
  Obtaining max. number of non-zero basis functions in each batch (get_n_compute_maxes).
  | Maximal number of non-zero basis functions:      545 in task     0
  | Maximal number of non-zero basis functions:      539 in task     1
  | Maximal number of non-zero basis functions:      548 in task     2
  | Maximal number of non-zero basis functions:      544 in task     3
  | Maximal number of non-zero basis functions:      552 in task     4
  | Maximal number of non-zero basis functions:      560 in task     5
  | Maximal number of non-zero basis functions:      557 in task     6
  | Maximal number of non-zero basis functions:      554 in task     7
  | Maximal number of non-zero basis functions:      542 in task     8
  | Maximal number of non-zero basis functions:      533 in task     9
  | Maximal number of non-zero basis functions:      546 in task    10
  | Maximal number of non-zero basis functions:      559 in task    11
  | Maximal number of non-zero basis functions:      535 in task    12
  | Maximal number of non-zero basis functions:      542 in task    13
  | Maximal number of non-zero basis functions:      540 in task    14
  | Maximal number of non-zero basis functions:      536 in task    15
  | Maximal number of non-zero basis functions:      551 in task    16
  | Maximal number of non-zero basis functions:      539 in task    17
  Integrating Hamiltonian matrix: batch-based integration.
  GPU acceleration will be used when integrating the Hamiltonian matrix.
  Reporting GPU memory usage by myid 0.  Note that it is likely not the only MPI task binding to its GPU!
  Allocating        2.376 MB on GPU for hamiltonian_shell
  Allocating        0.872 MB on GPU for wave
  Allocating        0.002 MB on GPU for partition
  Allocating        0.872 MB on GPU for h_times_psi
  Time summed over all CPUs for integration: real work       35.138 s, elapsed       35.709 s
  Deallocating memory used on GPU for Hamiltonian integration.
  Integrating overlap matrix.
  Time summed over all CPUs for integration: real work       26.905 s, elapsed       27.463 s
  Deallocating overlap matrix.

  Updating Kohn-Sham eigenvalues and eigenvectors using ELSI and the ELPA eigensolver.
  Singularity check in k-point 1 (analysis for other k-points may follow below):
  Overlap matrix is not singular
  | Lowest and highest eigenvalues :  0.7925E-03,  0.8279E+01
  Finished singularity check of overlap matrix
  | Time :     0.104 s
  Starting ELPA eigensolver
  Finished Cholesky decomposition
  | Time :     0.016 s
  Finished transformation to standard eigenproblem
  | Time :     0.024 s
  Finished solving standard eigenproblem
  | Time :     0.218 s
  Finished back-transformation of eigenvectors
  | Time :     0.016 s

  Obtaining occupation numbers and electronic chemical potential using ELSI.
  | Note that, for insulating systems, the printed 'chemical potential' value is not uniquely defined.
  | It can be anywhere in the energy gap, as long as it correctly separates occupied and unoccupied states.
  | In systems with a gap, the physically relevant chemical potential is the VBM or HOMO.

  | Chemical potential (Fermi level):    -9.03639439 eV
  Writing Kohn-Sham eigenvalues.
  K-point:       1 at    0.000000    0.000000    0.000000 (in units of recip. lattice)

  State    Occupation    Eigenvalue [Ha]    Eigenvalue [eV]
      1       2.00000         -10.070689         -274.03738
      2       2.00000         -10.069190         -273.99660
      3       2.00000         -10.068237         -273.97067
      4       2.00000         -10.067671         -273.95527
      5       2.00000         -10.067665         -273.95512
      6       2.00000         -10.067538         -273.95164
      7       2.00000         -10.067372         -273.94714
      8       2.00000         -10.067294         -273.94500
      9       2.00000         -10.067213         -273.94281
     10       2.00000         -10.066943         -273.93547
     11       2.00000         -10.066936         -273.93527
     12       2.00000         -10.066250         -273.91661
     13       2.00000         -10.066247         -273.91652
     14       2.00000         -10.066191         -273.91498
     15       2.00000         -10.066177         -273.91462
     16       2.00000         -10.065980         -273.90926
     17       2.00000         -10.065799         -273.90432
     18       2.00000         -10.065719         -273.90216
     19       2.00000         -10.065280         -273.89021
     20       2.00000         -10.065182         -273.88754
     21       2.00000         -10.064985         -273.88218
     22       2.00000         -10.064968         -273.88170
     23       2.00000         -10.064727         -273.87516
     24       2.00000         -10.064581         -273.87118
     25       2.00000         -10.064515         -273.86938
     26       2.00000         -10.064172         -273.86005
     27       2.00000         -10.064156         -273.85962
     28       2.00000         -10.064125         -273.85877
     29       2.00000         -10.063956         -273.85417
     30       2.00000         -10.063760         -273.84883
     31       2.00000         -10.063556         -273.84329
     32       2.00000         -10.063280         -273.83579
     33       2.00000         -10.063064         -273.82990
     34       2.00000         -10.062857         -273.82428
     35       2.00000         -10.062784         -273.82228
     36       2.00000         -10.062693         -273.81982
     37       2.00000         -10.062671         -273.81921
     38       2.00000         -10.062608         -273.81751
     39       2.00000         -10.062332         -273.80999
     40       2.00000         -10.062149         -273.80502
     41       2.00000         -10.062116         -273.80410
     42       2.00000         -10.062034         -273.80188
     43       2.00000         -10.061802         -273.79555
     44       2.00000         -10.061755         -273.79429
     45       2.00000         -10.061599         -273.79005
     46       2.00000         -10.061589         -273.78978
     47       2.00000         -10.061517         -273.78782
     48       2.00000         -10.061439         -273.78569
     49       2.00000         -10.061381         -273.78410
     50       2.00000         -10.061356         -273.78343
     51       2.00000         -10.060863         -273.77002
     52       2.00000         -10.060320         -273.75524
     53       2.00000         -10.060208         -273.75218
     54       2.00000         -10.060166         -273.75104
     55       2.00000         -10.059914         -273.74418
     56       2.00000         -10.059820         -273.74163
     57       2.00000         -10.059747         -273.73966
     58       2.00000         -10.059617         -273.73610
     59       2.00000         -10.059442         -273.73136
     60       2.00000         -10.059440         -273.73128
     61       2.00000         -10.059244         -273.72595
     62       2.00000         -10.059128         -273.72280
     63       2.00000         -10.058946         -273.71785
     64       2.00000         -10.058826         -273.71459
     65       2.00000         -10.058215         -273.69796
     66       2.00000         -10.058209         -273.69780
     67       2.00000         -10.057968         -273.69125
     68       2.00000         -10.057826         -273.68736
     69       2.00000         -10.057654         -273.68269
     70       2.00000         -10.057169         -273.66948
     71       2.00000         -10.057046         -273.66614
     72       2.00000         -10.057000         -273.66490
     73       2.00000         -10.056992         -273.66466
[...]
  |    H      2     3.678162 A  1.011968E+04 A            0.556529 a.u.
  |    H      1     3.958095 A  1.721251E+06 A            0.841931 a.u.
  |    H      0     4.527807 A  3.866455E+12 A            0.581436 a.u.
  |    C      0     2.562483 A      2.562483 A        6.563029E-17 a.u.
  |    C      0     2.967371 A      2.967371 A        1.352164E-16 a.u.
  |    C      0     3.003870 A      3.003870 A        2.312640E-17 a.u.
  |    C      1     3.272245 A      3.272245 A       -3.835259E-17 a.u.
  |    C      0     3.312494 A      3.312494 A       -2.710381E-16 a.u.
  |    C      3     4.077671 A      4.077671 A       -1.683752E-15 a.u.
  |    C      3     4.077671 A      4.077671 A        1.412852E-15 a.u.
  |    C      1     4.496620 A      4.496620 A       -3.011059E-16 a.u.
  |    C      0     4.496620 A      4.551928 A        2.873903E-17 a.u.
  |    C      2     4.551928 A      4.551928 A       -4.610785E-16 a.u.
  |    C      2     4.551928 A      4.551928 A        7.440584E-16 a.u.
  |    C      2     4.551928 A      4.551928 A       -7.110458E-16 a.u.
  |    C      2     4.551928 A      4.551928 A       -1.935424E-16 a.u.
  |    C      0     4.551928 A      4.607917 A        2.067142E-16 a.u.
  |    C      0     4.551928 A      4.607917 A       -1.109786E-16 a.u.
  |    C      1     4.551928 A      4.607917 A       -9.951742E-17 a.u.
  |    C      1     4.551928 A      4.607917 A        1.937809E-16 a.u.
  |    C      1     4.607917 A      4.607917 A       -2.813308E-16 a.u.
  |    C      1     4.607917 A      4.607917 A       -7.330363E-17 a.u.
  |    C      2     4.607917 A      4.607917 A        1.318462E-15 a.u.
  |    C      2     4.607917 A      4.607917 A       -1.318397E-15 a.u.
  |    C      0     4.607917 A      4.664595 A        3.157826E-16 a.u.
  |    C      1     4.607917 A      4.664595 A        7.356967E-16 a.u.
  |    C      4     3.835889 A  2.962973E+02 A            4.379483 a.u.
  |    C      3     4.127827 A  1.725964E+03 A            9.005588 a.u.
  |    C      2     4.607917 A  2.608475E+04 A            9.531178 a.u.
  |    C      1     4.607917 A  2.736013E+06 A            2.127278 a.u.
  |    C      0     4.607917 A  4.399765E+12 A            0.661635 a.u.

  | Shrink_full_auxil_basis : there are       36  radial auxiliary wave functions
                            accepted and       7 rejected.
  | Shrink_full_auxil_basis : there are totally                8992 partial auxiliary wave functions.
 
  | Maximal number of product basis functions per thread :   512   512
 
  | Minimal total memory requirement for three-center overlap :      72.476 Gbs
  | Number of local auxiliary basis functions on task:      0   512
  | Number of local auxiliary basis functions on task:      1   512
  | Number of local auxiliary basis functions on task:      2   512
  | Number of local auxiliary basis functions on task:      3   512
  | Number of local auxiliary basis functions on task:      4   496
  | Number of local auxiliary basis functions on task:      5   496
  | Number of local auxiliary basis functions on task:      6   496
  | Number of local auxiliary basis functions on task:      7   496
  | Number of local auxiliary basis functions on task:      8   496
  | Number of local auxiliary basis functions on task:      9   496
  | Number of local auxiliary basis functions on task:     10   496
  | Number of local auxiliary basis functions on task:     11   496
  | Number of local auxiliary basis functions on task:     12   496
  | Number of local auxiliary basis functions on task:     13   496
  | Number of local auxiliary basis functions on task:     14   496
  | Number of local auxiliary basis functions on task:     15   496
  | Number of local auxiliary basis functions on task:     16   496
  | Number of local auxiliary basis functions on task:     17   496
  | 2D aux task distribution:      3 X      6
  | 2D block size (nb_aux_2d):     64
 
  Basis pair condensation :   1037520  -->     549347
 
 --------------------------------------------
  Constructing auxiliary basis (full product) ...
 
  Product basis:
  | charge radius: extent of product basis function
  | field radius: extent of its Coulomb potential
  | Species   l  charge radius    field radius  multipol momen
  |    H      1     3.910002 A      3.910002 A       -2.487223E-16 a.u.
  |    H      1     3.958095 A      3.958095 A       -2.441841E-16 a.u.
  |    H      0     4.527807 A      4.527807 A        1.268855E-16 a.u.
  |    H      0     4.527807 A      4.583499 A       -4.900954E-17 a.u.
  |    H      0     4.527807 A      4.583499 A        4.713786E-16 a.u.
  |    H      2     3.678162 A  1.011968E+04 A            0.556529 a.u.
  |    H      1     3.958095 A  1.721251E+06 A            0.841931 a.u.
  |    H      0     4.527807 A  3.866455E+12 A            0.581436 a.u.
  |    C      0     2.562483 A      2.562483 A        6.563029E-17 a.u.
  |    C      0     2.967371 A      2.967371 A        1.352164E-16 a.u.
  |    C      0     3.003870 A      3.003870 A        2.312640E-17 a.u.
  |    C      1     3.272245 A      3.272245 A       -3.835259E-17 a.u.
  |    C      0     3.312494 A      3.312494 A       -2.710381E-16 a.u.
  |    C      3     4.077671 A      4.077671 A       -1.683752E-15 a.u.
  |    C      3     4.077671 A      4.077671 A        1.412852E-15 a.u.
  |    C      1     4.496620 A      4.496620 A       -3.011059E-16 a.u.
  |    C      0     4.496620 A      4.551928 A        2.873903E-17 a.u.
  |    C      2     4.551928 A      4.551928 A       -4.610785E-16 a.u.
  |    C      2     4.551928 A      4.551928 A        7.440584E-16 a.u.
  |    C      2     4.551928 A      4.551928 A       -7.110458E-16 a.u.
  |    C      2     4.551928 A      4.551928 A       -1.935424E-16 a.u.
  |    C      0     4.551928 A      4.607917 A        2.067142E-16 a.u.
  |    C      0     4.551928 A      4.607917 A       -1.109786E-16 a.u.
  |    C      1     4.551928 A      4.607917 A       -9.951742E-17 a.u.
  |    C      1     4.551928 A      4.607917 A        1.937809E-16 a.u.
  |    C      1     4.607917 A      4.607917 A       -2.813308E-16 a.u.
  |    C      1     4.607917 A      4.607917 A       -7.330363E-17 a.u.
  |    C      2     4.607917 A      4.607917 A        1.318462E-15 a.u.
  |    C      2     4.607917 A      4.607917 A       -1.318397E-15 a.u.
  |    C      0     4.607917 A      4.664595 A        3.157826E-16 a.u.
  |    C      1     4.607917 A      4.664595 A        7.356967E-16 a.u.
  |    C      4     3.835889 A  2.962973E+02 A            4.379483 a.u.
  |    C      3     4.127827 A  1.725964E+03 A            9.005588 a.u.
  |    C      2     4.607917 A  2.608475E+04 A            9.531178 a.u.
  |    C      1     4.607917 A  2.736013E+06 A            2.127278 a.u.
  |    C      0     4.607917 A  4.399765E+12 A            0.661635 a.u.

  | Shrink_full_auxil_basis : there are       36  radial auxiliary wave functions
                            accepted and       7 rejected.
  | Shrink_full_auxil_basis : there are totally                8992 partial auxiliary wave functions.
 
  | Maximal number of product basis functions per thread :   512   512
 
  | Minimal total memory requirement for three-center overlap :      72.476 Gbs
  | Number of local auxiliary basis functions on task:      0   512
  | Number of local auxiliary basis functions on task:      1   512
  | Number of local auxiliary basis functions on task:      2   512
  | Number of local auxiliary basis functions on task:      3   512
  | Number of local auxiliary basis functions on task:      4   496
  | Number of local auxiliary basis functions on task:      5   496
  | Number of local auxiliary basis functions on task:      6   496
  | Number of local auxiliary basis functions on task:      7   496
  | Number of local auxiliary basis functions on task:      8   496
  | Number of local auxiliary basis functions on task:      9   496
  | Number of local auxiliary basis functions on task:     10   496
  | Number of local auxiliary basis functions on task:     11   496
  | Number of local auxiliary basis functions on task:     12   496
  | Number of local auxiliary basis functions on task:     13   496
  | Number of local auxiliary basis functions on task:     14   496
  | Number of local auxiliary basis functions on task:     15   496
  | Number of local auxiliary basis functions on task:     16   496
  | Number of local auxiliary basis functions on task:     17   496
  | 2D aux task distribution:      3 X      6
  | 2D block size (nb_aux_2d):     64
 
  Basis pair condensation :   1037520  -->     549347
  Allocating        0.069 MB for t_coeff
  Allocating        0.034 MB for basbas_idx
  Allocating        0.069 MB for wave
  Allocating        0.069 MB for total_wave
  Allocating        0.206 MB for wave_gradient
  Allocating        0.206 MB for total_wave_grad
 HERE1
 HERE2
  Deallocating        0.069 MB for t_coeff
  Deallocating        0.034 MB for basbas_idx
  Deallocating        0.069 MB for wave
  Deallocating        0.206 MB for wave_gradient
  Deallocating        0.206 MB for total_wave_grad
dP_dE (Bohr^3) at every cycle:--->
 (976.293194169109,0.000000000000000E+000) (-17.3085601513878,0.000000000000000E+000) (-443.332673334170,0.000000000000000E+000)
 (-17.3865833734198,0.000000000000000E+000) (1365.55558958057,0.000000000000000E+000) (-2.85751670337798,0.000000000000000E+000)
 (-443.498757108058,0.000000000000000E+000) (-2.83201226857772,0.000000000000000E+000) (1720.61143857056,0.000000000000000E+000)
DFPT polarizability (Bohr^3)        xx        yy        zz        xy        xz        yz
  | Polarizability:--->                       976.293194169                 1365.555589581                 1720.611438571                  -17.308560151                 -443.332673334                   -2.857516703

DFPT for dielectric_constant:--->  # PARSE DFPT_dielectric_tensor
               2.324809039730319            -0.023487346926340            -0.601592981236313
              -0.023593222774368             2.853029807167987            -0.003877589214414
              -0.601818353374841            -0.003842980240410             3.334833020752194

                                               :  max(cpu_time)    wall_clock(cpu1)
  | Time for  dielectric calculation            :        0.000 s           0.000 s
===========================================================================

------------------------------------------------------------------------------
  Final output of selected total energy values:

  The following output summarizes some interesting total energy values
  at the end of a run (AFTER all relaxation, molecular dynamics, etc.).

  | Total energy of the DFT / Hartree-Fock s.c.f. calculation      :         -83267.457286397 eV
  | Final zero-broadening corrected energy (caution - metals only) :         -83267.457286397 eV
  | For reference only, the value of 1 Hartree used in FHI-aims is :             27.211384500 eV
  | For reference only, the overall average (free atom contribution
  | + realspace contribution) of the electrostatic potential after
  | s.c.f. convergence is                                          :             -7.697483115 eV

  Before relying on these values, please be sure to understand exactly which
  total energy value is referred to by a given number. Different objects may
  all carry the same name 'total energy'. Definitions:

  Total energy of the DFT / Hartree-Fock s.c.f. calculation:
  | Note that this energy does not include ANY quantities calculated after the
  | s.c.f. cycle, in particular not ANY RPA, MP2, etc. many-body perturbation terms.

  Final zero-broadening corrected energy:
  | For metallic systems only, a broadening of the occupation numbers at the Fermi
  | level can be extrapolated back to zero broadening by an electron-gas inspired
  | formula. For all systems that are not real metals, this value can be
  | meaningless and should be avoided.

------------------------------------------------------------------------------
  Methods described in the following list of references were used in this FHI-aims run.
  If you publish the results, please make sure to cite these reference if they apply.
  FHI-aims is an academic code, and for our developers (often, Ph.D. students
  and postdocs), scientific credit in the community is essential.
  Thank you for helping us!

  For any use of FHI-aims, please cite:

    Volker Blum, Ralf Gehrke, Felix Hanke, Paula Havu, Ville Havu,
    Xinguo Ren, Karsten Reuter, and Matthias Scheffler
    'Ab initio molecular simulations with numeric atom-centered orbitals'
    Computer Physics Communications 180, 2175-2196 (2009)
    http://doi.org/10.1016/j.cpc.2009.06.022


  For Hartree-Fock, hybrid functionals, or many-body perturbation theory used in your run, please cite:

    Xinguo Ren, Patrick Rinke, Volker Blum, Juergen Wieferink, Alex Tkatchenko,
    Andrea Sanfilippo, Karsten Reuter, and Matthias Scheffler,
    'Resolution-of-identity approach to Hartree-Fock, hybrid density functionals,
    RPA, MP2, and GW with numeric atom-centered orbital basis functions'
    New Journal of Physics 14, 053020 (2012).
    http://doi.org/10.1088/1367-2630/14/5/053020


  The provided symmetry information was generated with SPGlib:

    Atsushi Togo, Yusuke Seto, Dimitar Pashov
    SPGlib 1.7.3 obtained from http://spglib.sourceforge.net
    Copyright (C) 2008 Atsushi Togo


  The DFPT (perturbation by an electric field) part of the code was used.
  Here is the corresponding reference:

    Honghui Shang, Nathaniel Raimbault, Mariana Rossi,
    Christian Carbogno, Patrick Rinke and Matthias Scheffler,
    'All-Electron, Real-Space Perturbation Theory for Homogeneous
    Electric Fields: Theory, Implementation, and Application within dft'
    New Journal of Physics, 20(7):073040, 2018


  The ELSI infrastructure was used in your run to solve the Kohn-Sham electronic structure.
  Please check out http://elsi-interchange.org to learn more.
  If scalability is important for your project, please acknowledge ELSI by citing:

    V. W-z. Yu, F. Corsetti, A. Garcia, W. P. Huhn, M. Jacquelin, W. Jia,
    B. Lange, L. Lin, J. Lu, W. Mi, A. Seifitokaldani, A. Vazquez-Mayagoitia,
    C. Yang, H. Yang, and V. Blum
    'ELSI: A unified software interface for Kohn-Sham electronic structure solvers'
    Computer Physics Communications 222, 267-285 (2018).
    http://doi.org/10.1016/j.cpc.2017.09.007


  For the real-space grid partitioning and parallelization used in this calculation, please cite:

    Ville Havu, Volker Blum, Paula Havu, and Matthias Scheffler,
    'Efficient O(N) integration for all-electron electronic structure calculation'
    'using numerically tabulated basis functions'
    Journal of Computational Physics 228, 8367-8379 (2009).
    http://doi.org/10.1016/j.jcp.2009.08.008


  The high-level electronic structure method used in your calculation
  employed our efficient localized resolution of identity for the Coulomb operator.
  Some calculations, especially large-scale hybrid density functional theory,
  are only possible thanks to this development. For this feature, please cite:

    Arvid Ihrig, Juergen Wieferink, Igor Ying Zhang, Matti Ropo, Xinguo Ren,
    Patrick Rinke, Matthias Scheffler, and Volker Blum,
    'Accurate localized resolution of identity approach for linear-scaling
    hybrid density functionals and for many-body perturbation theory'
    New Journal of Physics 117, 093020 (2015).
    http://doi.org/10.1088/1367-2630/17/9/093020

  Of course, there are many other important community references, e.g., those cited in the
  above references. Our list is limited to references that describe implementations in the
  FHI-aims code. The reason is purely practical (length of this list) - please credit others as well.

------------------------------------------------------------
          Leaving FHI-aims.
          Date     :  20230119, Time     :  170642.517

          Computational steps:
          | Number of self-consistency cycles          :           48
          | Number of SCF (re)initializations          :            1
          | Number of coupled perturbed self-consistency cycles          :            0
          | Number of CPSCF (re)initializations          :            0

          Detailed time accounting                     :  max(cpu_time)    wall_clock(cpu1)
          | Total time                                  :     1612.157 s        1644.950 s
          | GPU initialization                          :        3.372 s          34.727 s
          | Preparation time                            :        0.084 s           0.072 s
          | Boundary condition initalization            :        0.962 s           0.962 s
          | Grid partitioning                           :        1.257 s           1.257 s
          | Preloading free-atom quantities on grid     :        3.940 s           3.942 s
          | Free-atom superposition energy              :        0.504 s           0.504 s
          | Total time for integrations                 :       27.414 s          27.587 s
          | Product basis setup: Total time             :        0.000 s           0.000 s
          | Product basis: | 2-center integrations     :(       0.000 s)  (       0.000 s)
          | Product basis: | LVL 3-center & coefficient:(       0.000 s)  (       0.000 s)
          | Total time for solution of K.-S. equations  :        4.417 s           4.417 s
          | Total time for density update               :       20.960 s          21.205 s
          | Total time for mixing & preconditioning     :       14.146 s          14.152 s
          | Total time for Hartree multipole update     :        0.097 s           0.097 s
          | Total time for Hartree multipole sum        :       49.489 s          49.503 s
          | Total time for total energy evaluation      :        0.007 s           0.007 s
          | Total time first_order_DM                   :        1.856 s           1.856 s
          | Total time first_order_density              :      308.379 s         308.408 s
          | Total time first_order_potential            :      121.489 s         121.525 s
          | Total time first_order_H                    :      585.994 s         586.139 s
          | Total time solving of Sternheimer equations :        1.838 s           1.836 s
          | Total time for dielectric constant          :        0.000 s           0.000 s
          | Total time momentum matrix                  :        0.000 s           0.000 s

          GPU acceleration has been used for charge density update.
          GPU acceleration has been used for real-space Hamiltonian integration.
          Due to GPU usage, wall_clock(cpu1) will give a more reliable estimate for timings.

          Partial memory accounting:
          | Residual value for overall tracked memory usage across tasks:     1.234863 MB (should be 0.000000 MB)
          |
          | Largest tracked array allocation:
          |   Minimum:      103.178 MB (DFPT_pulay_mixing::initialize_pulay_mixing::X_in_diffs on task  0)
          |   Maximum:      103.178 MB (DFPT_pulay_mixing::initialize_pulay_mixing::X_in_diffs on task  0)
          |   Average:      103.178 MB
          |
          | Because the residual tracked memory usage was not zero, the peak value for overall
          | tracked memory usage was not output, as it is probably incorrect.  This is likely due
          | to a missing aims_deallocate statement in the source code, which should be otherwise
          | harmless.
          |
          Note:  These values currently only include a subset of arrays which are explicitly tracked.
          The "true" memory usage will be greater.

          Have a nice day.
------------------------------------------------------------
