------------------------------------------------------------
          Invoking FHI-aims ...

          When using FHI-aims, please cite the following reference:

            Volker Blum, Ralf Gehrke, Felix Hanke, Paula Havu,
            Ville Havu, Xinguo Ren, Karsten Reuter, and Matthias Scheffler,
            'Ab Initio Molecular Simulations with Numeric Atom-Centered Orbitals',
            Computer Physics Communications 180, 2175-2196 (2009)

          In addition, many other developments in FHI-aims are likely important for
          your particular application. A partial list of references is given at the end of
          this file. Thank you for giving credit to the authors of these developments.

          For any questions about FHI-aims, please visit our slack channel at

            https://fhi-aims.slack.com

          and our main development and support site at

            https://aims-git.rz-berlin.mpg.de .

          The latter site, in particular, has a wiki to collect information, as well
          as an issue tracker to log discussions, suggest improvements, and report issues
          or bugs. https://aims-git.rz-berlin.mpg.de is also the main development site
          of the project and all new and updated code versions can be obtained there.
          Please send an email to aims-coordinators@fhi-berlin.mpg.de and we will add
          you to these sites. They are for you and everyone is welcome there.

------------------------------------------------------------



  Date     :  20230120, Time     :  120428.042
  Time zero on CPU 1             :   0.609532000000000E+00  s.
  Internal wall clock time zero  :           443448268.042  s.

  FHI-aims created a unique identifier for this run for later identification
  aims_uuid : 7710ADFD-F0AC-4BF7-A42B-D8AA9E5FEF27

  Build configuration of the current instance of FHI-aims
  -------------------------------------------------------
  FHI-aims version      : 220829
  Commit number         : 9895fc21d
  CMake host system     : Linux-5.3.18-150300.59.68-default
  CMake version         : 3.17.0
  Fortran compiler      : /mpcdf/soft/SLE_15/packages/x86_64/intel_oneapi/2021.3/mpi/2021.3.0/bin/mpiifort (Intel) version 20.2.3.20210609
  Fortran compiler flags: -O3 -ip -fp-model precise
  C compiler            : /mpcdf/soft/SLE_15/packages/x86_64/intel/2021.3.0/bin/icc (Intel) version 20.2.3.20210609
  C compiler flags      : -O3 -ip -fp-model precise -std=gnu99
  CUDA compiler         : /mpcdf/soft/SLE_15/packages/x86_64/cuda/11.6.2/bin/nvcc
  CUDA compiler flags   : -O3 -DAdd_ -lcublas
  ELPA2 kernel          : AVX512
  Using MPI
  Using ScaLAPACK
  Using LibXC
  Using CUDA
  Using i-PI
  Using RLSY
  Linking against: /mpcdf/soft/SLE_15/packages/x86_64/cuda/11.6.2/lib64/libcublas.so
                   /mpcdf/soft/SLE_15/packages/x86_64/cuda/11.6.2/lib64/libcudart.so
                   /mpcdf/soft/SLE_15/packages/x86_64/intel_oneapi/2021.3/mkl/latest/lib/intel64/libmkl_intel_lp64.so
                   /mpcdf/soft/SLE_15/packages/x86_64/intel_oneapi/2021.3/mkl/latest/lib/intel64/libmkl_sequential.so
                   /mpcdf/soft/SLE_15/packages/x86_64/intel_oneapi/2021.3/mkl/latest/lib/intel64/libmkl_core.so
                   /mpcdf/soft/SLE_15/packages/x86_64/intel_oneapi/2021.3/mkl/latest/lib/intel64/libmkl_blacs_intelmpi_lp64.so
                   /mpcdf/soft/SLE_15/packages/x86_64/intel_oneapi/2021.3/mkl/latest/lib/intel64/libmkl_scalapack_lp64.so

  Using       18 parallel tasks.
  Task        0 on host adag006 reporting.
  Task        1 on host adag006 reporting.
  Task        2 on host adag006 reporting.
  Task        3 on host adag006 reporting.
  Task        4 on host adag006 reporting.
  Task        5 on host adag006 reporting.
  Task        6 on host adag006 reporting.
  Task        7 on host adag006 reporting.
  Task        8 on host adag006 reporting.
  Task        9 on host adag006 reporting.
  Task       10 on host adag006 reporting.
  Task       11 on host adag006 reporting.
  Task       12 on host adag006 reporting.
  Task       13 on host adag006 reporting.
  Task       14 on host adag006 reporting.
  Task       15 on host adag006 reporting.
  Task       16 on host adag006 reporting.
  Task       17 on host adag006 reporting.

  Performing system and environment tests:
  | Environment variable OMP_NUM_THREADS correctly set to 1.
  | Checking for ScaLAPACK...
  | Testing pdtran()...
  | All pdtran() tests passed.

  Obtaining array dimensions for all initial allocations:
  
  -----------------------------------------------------------------------
  Parsing control.in (first pass over file, find array dimensions only).
  The contents of control.in will be repeated verbatim below
  unless switched off by setting 'verbatim_writeout .false.' .
  in the first line of control.in .
  -----------------------------------------------------------------------
  
  #
  # Input for polarizability replays on generic oligoacene molecular crystals (light settings,  LDA+MBD).
  #
  #########################################################################################
  #
  #  Physical model
  #
    xc                 pw-lda
    spin               none
    relativistic       none
    charge             0.0
    k_grid 	     2 1 1
    DFPT dielectric
  #
  #  GPU acceleration
  #
  # Turns on GPU acceleration everywhere
    use_gpu
  
  # Turns OFF GPU acceleration of ELPA - may be necessary if GPU ELPA is slow
    elsi_elpa_gpu 0
  #
  #  Relaxation
  #
  #  relax_geometry trm 1E-3
  #  relax_unit_cell fixed_angles
  #
  #  SCF convergence        #
    charge_mix_param   0.75
    #sc_accuracy_rho 1E-4
  #
  # i-PI communication
  #
  compute_forces .false.
  # use_pimd_wrapper 130.183.223.27 26118
  #communicate_pimd_wrapper polarizability
  #output_level MD_light
  #
  # Output SALTED info
    ri_density_restart write
    ri_rho1 write
    ri_full_output .true.
  #  sc_accuracy_rho    1d-6
    default_prodbas_acc 1e-6
    default_max_l_prodbas 6
  #
  #
  ################################################################################
  #
  #  FHI-aims code project
  #  VB, Fritz-Haber Institut, 2009
  #
  #  Suggested "light" defaults for H atom (to be pasted into control.in file)
  #  Be sure to double-check any results obtained with these settings for post-processing,
  #  e.g., with the "tight" defaults and larger basis sets.
  #
  ################################################################################
    species        H
  #     global species definitions
      nucleus             1
      mass                1.00794
  #
      l_hartree           4
  #
      cut_pot             3.5  1.5  1.0
      basis_dep_cutoff    1e-4
  #
      radial_base         24 5.0
      radial_multiplier   1
      angular_grids       specified
        division   0.2421   50
        division   0.3822  110
        division   0.4799  194
        division   0.5341  302
  #      division   0.5626  434
  #      division   0.5922  590
  #      division   0.6542  770
  #      division   0.6868 1202
  #      outer_grid  770
        outer_grid  302
  ################################################################################
  #
  #  Definition of "minimal" basis
  #
  ################################################################################
  #     valence basis states
      valence      1  s   1.
  #     ion occupancy
      ion_occ      1  s   0.5
  ################################################################################
  #
  #  Suggested additional basis functions. For production calculations,
  #  uncomment them one after another (the most important basis functions are
  #  listed first).
  #
  #  Basis constructed for dimers: 0.5 A, 0.7 A, 1.0 A, 1.5 A, 2.5 A
  #
  ################################################################################
  #  "First tier" - improvements: -1014.90 meV to -62.69 meV
       hydro 2 s 2.1
       hydro 2 p 3.5
  #  "Second tier" - improvements: -12.89 meV to -1.83 meV
  #     hydro 1 s 0.85
  #     hydro 2 p 3.7
  #     hydro 2 s 1.2
  #     hydro 3 d 7
  #  "Third tier" - improvements: -0.25 meV to -0.12 meV
  #     hydro 4 f 11.2
  #     hydro 3 p 4.8
  #     hydro 4 d 9
  #     hydro 3 s 3.2
  ################################################################################
  ################################################################################
  #
  #  FHI-aims code project
  #  VB, Fritz-Haber Institut, 2009
  #
  #  Suggested "light" defaults for C atom (to be pasted into control.in file)
  #  Be sure to double-check any results obtained with these settings for post-processing,
  #  e.g., with the "tight" defaults and larger basis sets.
  #
  ################################################################################
    species        C
  #     global species definitions
      nucleus             6
      mass                12.0107
  #
      l_hartree           4
  #
      cut_pot             3.5  1.5  1.0
      basis_dep_cutoff    1e-4
  #
      radial_base         34 5.0
      radial_multiplier   1
      angular_grids specified
        division   0.3326   50
        division   0.5710  110
        division   0.7727  194
        division   0.8772  302
  #      division   0.9334  434
  #      division   0.9625  590
  #      division   0.9924  770
  #      division   1.0230  974
  #      division   1.4589 1202
  #     outer_grid  974
       outer_grid 302
  ################################################################################
  #
  #  Definition of "minimal" basis
  #
  ################################################################################
  #     valence basis states
      valence      2  s   2.
      valence      2  p   2.
  #     ion occupancy
      ion_occ      2  s   1.
      ion_occ      2  p   1.
  ################################################################################
  #
  #  Suggested additional basis functions. For production calculations,
  #  uncomment them one after another (the most important basis functions are
  #  listed first).
  #
  #  Constructed for dimers: 1.0 A, 1.25 A, 1.5 A, 2.0 A, 3.0 A
  #
  ################################################################################
  #  "First tier" - improvements: -1214.57 meV to -155.61 meV
       hydro 2 p 1.7
       hydro 3 d 6
       hydro 2 s 4.9
  #  "Second tier" - improvements: -67.75 meV to -5.23 meV
  #     hydro 4 f 9.8
  #     hydro 3 p 5.2
  #     hydro 3 s 4.3
  #     hydro 5 g 14.4
  #     hydro 3 d 6.2
  #  "Third tier" - improvements: -2.43 meV to -0.60 meV
  #     hydro 2 p 5.6
  #     hydro 2 s 1.4
  #     hydro 3 d 4.9
  #     hydro 4 f 11.2
  #  "Fourth tier" - improvements: -0.39 meV to -0.18 meV
  #     hydro 2 p 2.1
  #     hydro 5 g 16.4
  #     hydro 4 d 13.2
  #     hydro 3 s 13.6
  #     hydro 4 f 17.6
  #  Further basis functions - improvements: -0.08 meV and below
  #     hydro 3 s 2
  #     hydro 3 p 6
  #     hydro 4 d 20
  
  -----------------------------------------------------------------------
  Completed first pass over input file control.in .
  -----------------------------------------------------------------------
  
  
  -----------------------------------------------------------------------
  Parsing geometry.in (first pass over file, find array dimensions only).
  The contents of geometry.in will be repeated verbatim below
  unless switched off by setting 'verbatim_writeout .false.' .
  in the first line of geometry.in .
  -----------------------------------------------------------------------
  
  #=======================================================
  # FHI-aims file: /ada/ptmp/mpsd/alewis/naphthalene/qmdata/data/geoms/265.in
  # Created using the Atomic Simulation Environment (ASE)
  # Thu Jan 19 15:19:17 2023
  #=======================================================
  lattice_vector 8.1020000000000003 0.0000000000000000 0.0000000000000000
  lattice_vector 0.0000000000000000 11.8800000000000008 0.0000000000000000
  lattice_vector -9.7850918486534706 0.0000000000000000 14.2571119625755713
  atom -0.8132190000000000 -0.0704368000000000 2.4205899999999998 C
  atom 0.1115040000000000 3.2387800000000002 4.8107499999999996 C
  atom 4.1750900000000000 5.9239400000000000 4.8434600000000003 C
  atom 3.2304800000000000 2.8434800000000000 2.3688799999999999 C
  atom -0.0480942000000000 0.8135370000000000 1.7092099999999999 C
  atom -0.6034980000000000 4.0874699999999997 5.6198199999999998 C
  atom 3.4134000000000002 5.0793999999999997 5.6144499999999997 C
  atom 4.0814700000000004 2.0031500000000002 1.6494400000000000 C
  atom 0.2627880000000000 0.5276220000000000 0.3421360000000000 C
  atom -0.9155890000000000 3.6848500000000000 6.9386000000000001 C
  atom 3.0855399999999999 5.4105699999999999 6.8994200000000001 C
  atom 4.4178800000000003 2.3126199999999999 0.3276790000000000 C
  atom -3.8421500000000002 1.5527100000000000 6.8190200000000001 C
  atom 3.1863700000000001 4.4164399999999997 0.5353590000000000 C
  atom 7.2078800000000003 4.4705399999999997 0.6081720000000000 C
  atom 0.1928680000000000 1.5275000000000001 6.5142499999999997 C
  atom -3.5065499999999998 1.2785700000000000 5.4839000000000002 C
  atom 2.7960199999999999 4.0709000000000000 1.8091100000000000 C
  atom 6.8084800000000003 4.8340199999999998 1.8881399999999999 C
  atom 0.5096660000000000 1.9729399999999999 5.2430099999999999 C
  atom -1.0649700000000000 0.2254500000000000 3.4438900000000001 H
  atom 0.3852170000000000 3.5268999999999999 3.7980399999999999 H
  atom 4.4920900000000001 5.5998299999999999 3.8585199999999999 H
  atom 2.8880200000000000 2.5381100000000001 3.3547699999999998 H
  atom 0.3172180000000000 1.7329600000000001 2.1648499999999999 H
  atom -0.8461800000000000 5.1138000000000003 5.3146100000000001 H
  atom 3.0862300000000000 4.1155499999999998 5.1835100000000001 H
  atom 4.4048499999999997 1.0396500000000000 2.0447500000000001 H
  atom -3.5338400000000001 2.5259299999999998 7.2659000000000002 H
  atom 2.7715600000000000 5.3169100000000000 0.1049670000000000 H
  atom 6.9019599999999999 3.5314299999999998 0.1482510000000000 H
  atom 0.5270490000000000 0.5513169999999999 6.8937200000000001 H
  atom -2.8873500000000001 2.0011100000000002 4.9137500000000003 H
  atom 2.0731199999999999 4.7313099999999997 2.2961100000000001 H
  atom 6.1814799999999996 4.1435199999999996 2.4743100000000000 H
  atom 0.9427630000000000 1.2623100000000000 4.5276199999999998 H
  atom -5.7989300000000004 -0.0063659000000000 9.5516400000000008 C
  atom -4.6044299999999998 2.9822099999999998 11.9953000000000003 C
  atom -0.7334780000000000 5.8133999999999997 11.9093999999999998 C
  atom -1.4884999999999999 2.8496899999999998 9.5802800000000001 C
  atom -5.0227800000000000 0.8878910000000000 8.8868500000000008 C
  atom -5.4019500000000003 3.8315299999999999 12.7106999999999992 C
  atom -1.4905299999999999 4.9563400000000000 12.6976999999999993 C
  atom -0.7679980000000000 2.0127899999999999 8.7321500000000007 C
  atom -4.5908100000000003 0.6212450000000000 7.5634300000000003 C
  atom -5.7941200000000004 3.5464699999999998 14.0309000000000008 C
  atom -1.7698600000000000 5.3355600000000001 14.0615000000000006 C
  atom -0.4715110000000000 2.3943900000000000 7.3958100000000000 C
  atom -8.7414100000000001 1.4345399999999999 13.8087999999999997 C
  atom -1.6810900000000000 4.5214699999999999 7.8287899999999997 C
  atom 2.3891300000000002 4.4567899999999998 7.7512999999999996 C
  atom -4.5605599999999997 1.4386900000000000 13.8211999999999993 C
  atom -8.3378300000000003 1.1257699999999999 12.5299999999999994 C
  atom -1.9753400000000001 4.1008599999999999 9.1121200000000009 C
  atom 2.0547300000000002 4.8605499999999999 9.0103399999999993 C
  atom -4.1328300000000002 1.7873399999999999 12.5536999999999992 C
  atom -6.1147700000000000 0.2433380000000000 10.5732999999999997 H
  atom -4.3256500000000004 3.2528100000000002 10.9954999999999998 H
  atom -0.4658700000000000 5.6037499999999998 10.8881999999999994 H
  atom -1.7203299999999999 2.4968200000000000 10.5999999999999996 H
  atom -4.7390800000000004 1.8621200000000000 9.3168600000000001 H
  atom -5.7105399999999999 4.7595099999999997 12.2400000000000002 H
  atom -1.9101500000000000 4.0002199999999997 12.3490000000000002 H
  atom -0.4042260000000000 1.0388100000000000 9.1123499999999993 H
  atom -8.4379000000000008 2.4165000000000001 14.2126999999999999 H
  atom -1.9613300000000000 5.4838100000000001 7.3802899999999996 H
  atom 2.1052000000000000 3.4999899999999999 7.3678800000000004 H
  atom -4.1893200000000004 0.5024220000000000 14.2199000000000009 H
  atom -7.7008799999999997 1.8545900000000000 12.0457000000000001 H
  atom -2.5467700000000000 4.7102000000000004 9.8137299999999996 H
  atom 1.5330200000000000 4.1742100000000004 9.6995400000000007 H
  atom -3.4140799999999998 1.1907799999999999 11.9713999999999992 H
  atom -0.9017250000000000 6.1175300000000004 2.4032900000000001 C
  atom 0.0311895000000000 9.0370699999999999 4.8210499999999996 C
  atom 4.2118099999999998 11.9335000000000004 4.8776099999999998 C
  atom 3.2271200000000002 8.9032300000000006 2.3309600000000001 C
  atom -0.0340974000000000 6.9097200000000001 1.6752400000000001 C
  atom -0.7235300000000000 9.8585600000000007 5.6259699999999997 C
  atom 3.4589400000000001 11.0409000000000006 5.5758299999999998 C
  atom 3.9950000000000001 8.0042500000000008 1.6338100000000000 C
  atom 0.3557890000000000 6.5736200000000000 0.3564780000000000 C
  atom -1.0347599999999999 9.5267599999999995 6.9572300000000000 C
  atom 3.0956999999999999 11.2745999999999995 6.9331600000000000 C
  atom 4.3740500000000004 8.2342300000000002 0.2967600000000000 C
  atom -3.8403000000000000 7.5484999999999998 6.5955500000000002 C
  atom 3.1446000000000001 10.4022000000000006 0.4374420000000000 C
  atom 7.2464700000000004 10.2439000000000000 0.5476340000000000 C
  atom 0.2319440000000000 7.4035799999999998 6.6286899999999997 C
  atom -3.5197600000000002 7.1793800000000001 5.3140599999999996 C
  atom 2.8148000000000000 10.1224000000000007 1.7311700000000001 C
  atom 6.9040600000000003 10.5837000000000003 1.8378800000000000 C
  atom 0.5222970000000000 7.7848400000000000 5.3254400000000004 C
  atom -1.2912800000000000 6.4177799999999996 3.3728199999999999 H
  atom 0.2069840000000000 9.3181700000000003 3.7747600000000001 H
  atom 4.4765100000000002 11.6992999999999991 3.8622299999999998 H
  atom 2.9657399999999998 8.6793600000000009 3.3718800000000000 H
  atom 0.2877950000000000 7.8406399999999996 2.0799099999999999 H
  atom -1.0305700000000000 10.8520000000000003 5.2587200000000003 H
  atom 3.1016300000000001 10.0957000000000008 5.1139700000000001 H
  atom 4.3546399999999998 7.1133300000000004 2.1202200000000002 H
  atom -3.4758300000000002 8.4925700000000006 6.9535200000000001 H
  atom 2.7925599999999999 11.2824000000000009 -0.0981560000000000 H
  atom 6.9432900000000002 9.3151799999999998 0.1117550000000000 H
  atom 0.6131910000000000 6.4411399999999999 7.0270200000000003 H
  atom -2.8610799999999998 7.7856199999999998 4.6762400000000000 H
  atom 2.2285200000000001 10.8765000000000001 2.3250799999999998 H
  atom 6.3000299999999996 9.8797899999999998 2.4466899999999998 H
  atom 1.0677900000000000 7.1262699999999999 4.6816399999999998 H
  atom -5.6782100000000000 6.1320699999999997 9.5335999999999999 C
  atom -4.6832000000000003 8.8799399999999995 11.9204000000000008 C
  atom -0.6802890000000000 11.7882999999999996 11.9372000000000007 C
  atom -1.6839299999999999 8.7689299999999992 9.6123999999999992 C
  atom -4.9485500000000000 7.0162500000000003 8.7852800000000002 C
  atom -5.5045000000000002 9.7397799999999997 12.5914000000000001 C
  atom -1.4492200000000000 10.8819999999999997 12.6329999999999991 C
  atom -0.8697030000000000 7.9568199999999996 8.8358699999999999 C
  atom -4.6285699999999999 6.7109699999999997 7.4394900000000002 C
  atom -5.8652400000000000 9.4638299999999997 13.9488000000000003 C
  atom -1.8204100000000001 11.1511999999999993 13.9970999999999997 C
  atom -0.5406840000000001 8.2801799999999997 7.4846800000000000 C
  atom -8.6573399999999996 7.4077200000000003 13.8079000000000001 C
  atom -1.7741700000000000 10.3840000000000003 7.8166200000000003 C
  atom 2.2779099999999999 10.3546999999999993 7.6588000000000003 C
  atom -4.5277799999999999 7.3692799999999998 13.8054000000000006 C
  atom -8.3637400000000000 7.0268600000000001 12.4923000000000002 C
  atom -2.1513599999999999 10.0030999999999999 9.1018200000000000 C
  atom 1.8523499999999999 10.6518999999999995 8.9462399999999995 C
  atom -4.1898000000000000 7.6809900000000004 12.5291999999999994 C
  atom -5.9169299999999998 6.3917799999999998 10.5554000000000006 H
  atom -4.4105800000000004 9.1003799999999995 10.8851999999999993 H
  atom -0.3845840000000000 11.4417000000000009 10.9108999999999998 H
  atom -1.9286900000000000 8.4841499999999996 10.6420999999999992 H
  atom -4.6367200000000004 7.9768499999999998 9.2040299999999995 H
  atom -5.9514399999999998 10.6463000000000001 12.1137999999999995 H
  atom -1.8206199999999999 9.9453600000000009 12.1902000000000008 H
  atom -0.5289030000000000 7.0068000000000001 9.1686700000000005 H
  atom -8.3399999999999999 8.3675499999999996 14.2095000000000002 H
  atom -1.9940400000000000 11.3854000000000006 7.4465800000000000 H
  atom 2.0284300000000002 9.4093800000000005 7.1591699999999996 H
  atom -4.2038799999999998 6.4518000000000004 14.3209000000000000 H
  atom -7.8041400000000003 7.7218499999999999 11.9042999999999992 H
  atom -2.7662900000000001 10.6648999999999994 9.7209699999999994 H
  atom 1.3072900000000001 9.9045699999999997 9.5232299999999999 H
  atom -3.5409099999999998 7.0525799999999998 11.8861000000000008 H
  
  -----------------------------------------------------------------------
  Completed first pass over input file geometry.in .
  -----------------------------------------------------------------------
  

  Basic array size parameters:
  | Number of species                 :        2
  | Number of atoms                   :      144
  | Number of lattice vectors         :        3
  | Max. basis fn. angular momentum   :        2
  | Max. atomic/ionic basis occupied n:        2
  | Max. number of basis fn. types    :        2
  | Max. radial fns per species/type  :        3
  | Max. logarithmic grid size        :     1277
  | Max. radial integration grid size :       34
  | Max. angular integration grid size:      302
  | Max. angular grid division number :        8
  | Radial grid for Hartree potential :     1277
  | Number of spin channels           :        1

------------------------------------------------------------
          Reading file control.in.
------------------------------------------------------------
  XC: Using Perdew-Wang parametrisation of Ceperley-Alder LDA.
  Spin treatment: No spin polarisation.
  Non-relativistic treatment of kinetic energy.
  Charge =   0.000000E+00: Neutral system requested explicitly.
  Found k-point grid:         2         1         1
  DFPT calculation will begin after the DFT/HF calculation.
  Charge density mixing - mixing parameter:     0.7500
  Forces will not be computed.
 
  Reading configuration options for species H                   .
  | Found nuclear charge :   1.0000
  | Found atomic mass :    1.00794000000000      amu
  | Found l_max for Hartree potential  :   4
  | Found cutoff potl. onset [A], width [A], scale factor :    3.50000    1.50000    1.00000
  | Threshold for basis-dependent cutoff potential is   0.100000E-03
  | Found data for basic radial integration grid :    24 points, outermost radius =    5.000 A
  | Found multiplier for basic radial grid :   1
  | Found angular grid specification: user-specified.
  | Specified grid contains     5 separate shells.
  | Check grid settings after all constraints further below.
  | Found free-atom valence shell :  1 s   1.000
  | No ionic wave fns used. Skipping ion_occ.
  | Found hydrogenic basis function :  2 s   2.100
  | Found hydrogenic basis function :  2 p   3.500
  Species H                   : Missing cutoff potential type.
  Defaulting to exp(1/x)/(1-x)^2 type cutoff potential.
  Species H : No 'logarithmic' tag. Using default grid for free atom:
  | Default logarithmic grid data [bohr] : 0.1000E-03 0.1000E+03 0.1012E+01
  Species H : On-site basis accuracy parameter (for Gram-Schmidt orthonormalisation) not specified.
  Using default value basis_acc =  0.1000000E-03.
  Species H                   : Using default innermost maximum threshold i_radial=  2 for radial functions.
  Species H                   : Default cutoff onset for free atom density etc. : 0.35000000E+01 AA.
  Species H                   : Basic radial grid will be enhanced according to radial_multiplier =   1, to contain    24 grid points.
 
  Reading configuration options for species C                   .
  | Found nuclear charge :   6.0000
  | Found atomic mass :    12.0107000000000      amu
  | Found l_max for Hartree potential  :   4
  | Found cutoff potl. onset [A], width [A], scale factor :    3.50000    1.50000    1.00000
  | Threshold for basis-dependent cutoff potential is   0.100000E-03
  | Found data for basic radial integration grid :    34 points, outermost radius =    5.000 A
  | Found multiplier for basic radial grid :   1
  | Found angular grid specification: user-specified.
  | Specified grid contains     5 separate shells.
  | Check grid settings after all constraints further below.
  | Found free-atom valence shell :  2 s   2.000
  | Found free-atom valence shell :  2 p   2.000
  | No ionic wave fns used. Skipping ion_occ.
  | No ionic wave fns used. Skipping ion_occ.
  | Found hydrogenic basis function :  2 p   1.700
  | Found hydrogenic basis function :  3 d   6.000
  | Found hydrogenic basis function :  2 s   4.900
  Species C                   : Missing cutoff potential type.
  Defaulting to exp(1/x)/(1-x)^2 type cutoff potential.
  Species C : No 'logarithmic' tag. Using default grid for free atom:
  | Default logarithmic grid data [bohr] : 0.1000E-03 0.1000E+03 0.1012E+01
  Species C : On-site basis accuracy parameter (for Gram-Schmidt orthonormalisation) not specified.
  Using default value basis_acc =  0.1000000E-03.
  Species C                   : Using default innermost maximum threshold i_radial=  2 for radial functions.
  Species C                   : Default cutoff onset for free atom density etc. : 0.35000000E+01 AA.
  Species C                   : Basic radial grid will be enhanced according to radial_multiplier =   1, to contain    34 grid points.
 
  Finished reading input file 'control.in'.
 
------------------------------------------------------------


------------------------------------------------------------
          Reading geometry description geometry.in.
------------------------------------------------------------
  | The smallest distance between any two atoms is         1.06275043 AA.
  | The first atom of this pair is atom number                    116 .
  | The second atom of this pair is atom number                   136 .
  | Wigner-Seitz cell of the first atom image           0     0     0 .
  | (The Wigner-Seitz cell of the second atom is 0 0 0  by definition.)

  Symmetry information by spglib:
  | Precision set to  0.1E-04
  | Number of Operations  : 1
  | Space group           : 1
  | International         : P1 0
  | Schoenflies           : C1^1
  Input structure read successfully.
  The structure contains      144 atoms,  and a total of        544.000 electrons.

  Input geometry:
  | Unit cell:
  |        8.10200000        0.00000000        0.00000000
  |        0.00000000       11.88000000        0.00000000
  |       -9.78509185        0.00000000       14.25711196
  | Atomic structure:
  |       Atom                x [A]            y [A]            z [A]
  |    1: Species C            -0.81321900       -0.07043680        2.42059000
  |    2: Species C             0.11150400        3.23878000        4.81075000
  |    3: Species C             4.17509000        5.92394000        4.84346000
  |    4: Species C             3.23048000        2.84348000        2.36888000
  |    5: Species C            -0.04809420        0.81353700        1.70921000
  |    6: Species C            -0.60349800        4.08747000        5.61982000
  |    7: Species C             3.41340000        5.07940000        5.61445000
  |    8: Species C             4.08147000        2.00315000        1.64944000
  |    9: Species C             0.26278800        0.52762200        0.34213600
  |   10: Species C            -0.91558900        3.68485000        6.93860000
  |   11: Species C             3.08554000        5.41057000        6.89942000
  |   12: Species C             4.41788000        2.31262000        0.32767900
  |   13: Species C            -3.84215000        1.55271000        6.81902000
  |   14: Species C             3.18637000        4.41644000        0.53535900
  |   15: Species C             7.20788000        4.47054000        0.60817200
  |   16: Species C             0.19286800        1.52750000        6.51425000
  |   17: Species C            -3.50655000        1.27857000        5.48390000
  |   18: Species C             2.79602000        4.07090000        1.80911000
  |   19: Species C             6.80848000        4.83402000        1.88814000
  |   20: Species C             0.50966600        1.97294000        5.24301000
  |   21: Species H            -1.06497000        0.22545000        3.44389000
  |   22: Species H             0.38521700        3.52690000        3.79804000
  |   23: Species H             4.49209000        5.59983000        3.85852000
  |   24: Species H             2.88802000        2.53811000        3.35477000
  |   25: Species H             0.31721800        1.73296000        2.16485000
  |   26: Species H            -0.84618000        5.11380000        5.31461000
  |   27: Species H             3.08623000        4.11555000        5.18351000
  |   28: Species H             4.40485000        1.03965000        2.04475000
  |   29: Species H            -3.53384000        2.52593000        7.26590000
  |   30: Species H             2.77156000        5.31691000        0.10496700
  |   31: Species H             6.90196000        3.53143000        0.14825100
  |   32: Species H             0.52704900        0.55131700        6.89372000
  |   33: Species H            -2.88735000        2.00111000        4.91375000
  |   34: Species H             2.07312000        4.73131000        2.29611000
  |   35: Species H             6.18148000        4.14352000        2.47431000
  |   36: Species H             0.94276300        1.26231000        4.52762000
  |   37: Species C            -5.79893000       -0.00636590        9.55164000
  |   38: Species C            -4.60443000        2.98221000       11.99530000
  |   39: Species C            -0.73347800        5.81340000       11.90940000
  |   40: Species C            -1.48850000        2.84969000        9.58028000
  |   41: Species C            -5.02278000        0.88789100        8.88685000
  |   42: Species C            -5.40195000        3.83153000       12.71070000
  |   43: Species C            -1.49053000        4.95634000       12.69770000
  |   44: Species C            -0.76799800        2.01279000        8.73215000
  |   45: Species C            -4.59081000        0.62124500        7.56343000
  |   46: Species C            -5.79412000        3.54647000       14.03090000
  |   47: Species C            -1.76986000        5.33556000       14.06150000
  |   48: Species C            -0.47151100        2.39439000        7.39581000
  |   49: Species C            -8.74141000        1.43454000       13.80880000
  |   50: Species C            -1.68109000        4.52147000        7.82879000
  |   51: Species C             2.38913000        4.45679000        7.75130000
  |   52: Species C            -4.56056000        1.43869000       13.82120000
  |   53: Species C            -8.33783000        1.12577000       12.53000000
  |   54: Species C            -1.97534000        4.10086000        9.11212000
  |   55: Species C             2.05473000        4.86055000        9.01034000
  |   56: Species C            -4.13283000        1.78734000       12.55370000
  |   57: Species H            -6.11477000        0.24333800       10.57330000
  |   58: Species H            -4.32565000        3.25281000       10.99550000
  |   59: Species H            -0.46587000        5.60375000       10.88820000
  |   60: Species H            -1.72033000        2.49682000       10.60000000
  |   61: Species H            -4.73908000        1.86212000        9.31686000
  |   62: Species H            -5.71054000        4.75951000       12.24000000
  |   63: Species H            -1.91015000        4.00022000       12.34900000
  |   64: Species H            -0.40422600        1.03881000        9.11235000
  |   65: Species H            -8.43790000        2.41650000       14.21270000
  |   66: Species H            -1.96133000        5.48381000        7.38029000
  |   67: Species H             2.10520000        3.49999000        7.36788000
  |   68: Species H            -4.18932000        0.50242200       14.21990000
  |   69: Species H            -7.70088000        1.85459000       12.04570000
  |   70: Species H            -2.54677000        4.71020000        9.81373000
  |   71: Species H             1.53302000        4.17421000        9.69954000
  |   72: Species H            -3.41408000        1.19078000       11.97140000
  |   73: Species C            -0.90172500        6.11753000        2.40329000
  |   74: Species C             0.03118950        9.03707000        4.82105000
  |   75: Species C             4.21181000       11.93350000        4.87761000
  |   76: Species C             3.22712000        8.90323000        2.33096000
  |   77: Species C            -0.03409740        6.90972000        1.67524000
  |   78: Species C            -0.72353000        9.85856000        5.62597000
  |   79: Species C             3.45894000       11.04090000        5.57583000
  |   80: Species C             3.99500000        8.00425000        1.63381000
  |   81: Species C             0.35578900        6.57362000        0.35647800
  |   82: Species C            -1.03476000        9.52676000        6.95723000
  |   83: Species C             3.09570000       11.27460000        6.93316000
  |   84: Species C             4.37405000        8.23423000        0.29676000
  |   85: Species C            -3.84030000        7.54850000        6.59555000
  |   86: Species C             3.14460000       10.40220000        0.43744200
  |   87: Species C             7.24647000       10.24390000        0.54763400
  |   88: Species C             0.23194400        7.40358000        6.62869000
  |   89: Species C            -3.51976000        7.17938000        5.31406000
  |   90: Species C             2.81480000       10.12240000        1.73117000
  |   91: Species C             6.90406000       10.58370000        1.83788000
  |   92: Species C             0.52229700        7.78484000        5.32544000
  |   93: Species H            -1.29128000        6.41778000        3.37282000
  |   94: Species H             0.20698400        9.31817000        3.77476000
  |   95: Species H             4.47651000       11.69930000        3.86223000
  |   96: Species H             2.96574000        8.67936000        3.37188000
  |   97: Species H             0.28779500        7.84064000        2.07991000
  |   98: Species H            -1.03057000       10.85200000        5.25872000
  |   99: Species H             3.10163000       10.09570000        5.11397000
  |  100: Species H             4.35464000        7.11333000        2.12022000
  |  101: Species H            -3.47583000        8.49257000        6.95352000
  |  102: Species H             2.79256000       11.28240000       -0.09815600
  |  103: Species H             6.94329000        9.31518000        0.11175500
  |  104: Species H             0.61319100        6.44114000        7.02702000
  |  105: Species H            -2.86108000        7.78562000        4.67624000
  |  106: Species H             2.22852000       10.87650000        2.32508000
  |  107: Species H             6.30003000        9.87979000        2.44669000
  |  108: Species H             1.06779000        7.12627000        4.68164000
  |  109: Species C            -5.67821000        6.13207000        9.53360000
  |  110: Species C            -4.68320000        8.87994000       11.92040000
  |  111: Species C            -0.68028900       11.78830000       11.93720000
  |  112: Species C            -1.68393000        8.76893000        9.61240000
  |  113: Species C            -4.94855000        7.01625000        8.78528000
  |  114: Species C            -5.50450000        9.73978000       12.59140000
  |  115: Species C            -1.44922000       10.88200000       12.63300000
  |  116: Species C            -0.86970300        7.95682000        8.83587000
  |  117: Species C            -4.62857000        6.71097000        7.43949000
  |  118: Species C            -5.86524000        9.46383000       13.94880000
  |  119: Species C            -1.82041000       11.15120000       13.99710000
  |  120: Species C            -0.54068400        8.28018000        7.48468000
  |  121: Species C            -8.65734000        7.40772000       13.80790000
  |  122: Species C            -1.77417000       10.38400000        7.81662000
  |  123: Species C             2.27791000       10.35470000        7.65880000
  |  124: Species C            -4.52778000        7.36928000       13.80540000
  |  125: Species C            -8.36374000        7.02686000       12.49230000
  |  126: Species C            -2.15136000       10.00310000        9.10182000
  |  127: Species C             1.85235000       10.65190000        8.94624000
  |  128: Species C            -4.18980000        7.68099000       12.52920000
  |  129: Species H            -5.91693000        6.39178000       10.55540000
  |  130: Species H            -4.41058000        9.10038000       10.88520000
  |  131: Species H            -0.38458400       11.44170000       10.91090000
  |  132: Species H            -1.92869000        8.48415000       10.64210000
  |  133: Species H            -4.63672000        7.97685000        9.20403000
  |  134: Species H            -5.95144000       10.64630000       12.11380000
  |  135: Species H            -1.82062000        9.94536000       12.19020000
  |  136: Species H            -0.52890300        7.00680000        9.16867000
  |  137: Species H            -8.34000000        8.36755000       14.20950000
  |  138: Species H            -1.99404000       11.38540000        7.44658000
  |  139: Species H             2.02843000        9.40938000        7.15917000
  |  140: Species H            -4.20388000        6.45180000       14.32090000
  |  141: Species H            -7.80414000        7.72185000       11.90430000
  |  142: Species H            -2.76629000       10.66490000        9.72097000
  |  143: Species H             1.30729000        9.90457000        9.52323000
  |  144: Species H            -3.54091000        7.05258000       11.88610000

  Lattice parameters for 3D lattice (in Angstroms) :     8.102000   11.880000   17.292000
  Angle(s) between unit vectors (in degrees)       :    90.000000  124.463000   90.000000


  Quantities derived from the lattice vectors (in Angstrom^-1):
  | Reciprocal lattice vector 1:  0.775510  0.000000  0.532257
  | Reciprocal lattice vector 2:  0.000000  0.528888  0.000000
  | Reciprocal lattice vector 3: -0.000000  0.000000  0.440705
  | Unit cell volume                               :   0.137227E+04  Angstrom^3

  Fractional coordinates:
                         L1                L2                L3
       atom_frac         0.10467859       -0.00592902        0.16978123  C
       atom_frac         0.42128719        0.27262458        0.33742809  C
       atom_frac         0.92561154        0.49864815        0.33972238  C
       atom_frac         0.59939703        0.23935017        0.16615427  C
       atom_frac         0.13885323        0.06847955        0.11988473  C
       atom_frac         0.40157446        0.34406313        0.39417661  C
       atom_frac         0.89691048        0.42755892        0.39379995  C
       atom_frac         0.64348693        0.16861532        0.11569244  C
       atom_frac         0.06141772        0.04441263        0.02399757  C
       atom_frac         0.47476973        0.31017256        0.48667641  C
       atom_frac         0.96529535        0.45543519        0.48392830  C
       atom_frac         0.57304075        0.19466498        0.02298355  C
       atom_frac         0.10342532        0.13069949        0.47828901  C
       atom_frac         0.43863284        0.37175421        0.03755031  C
       atom_frac         0.94116108        0.37630808        0.04265745  C
       atom_frac         0.57563527        0.12857744        0.45691231  C
       atom_frac         0.03174750        0.10762374        0.38464312  C
       atom_frac         0.49835442        0.34266835        0.12689176  C
       atom_frac         1.00029230        0.40690404        0.13243496  C
       atom_frac         0.50704814        0.16607239        0.36774699  C
       atom_frac         0.16029092        0.01897727        0.24155593  H
       atom_frac         0.36928264        0.29687710        0.26639617  H
       atom_frac         0.88130218        0.47136616        0.27063826  H
       atom_frac         0.64064444        0.21364562        0.23530502  H
       atom_frac         0.22254021        0.14587205        0.15184352  H
       atom_frac         0.34576640        0.43045455        0.37276904  H
       atom_frac         0.82002362        0.34642677        0.36357363  H
       atom_frac         0.71688774        0.08751263        0.14341965  H
       atom_frac         0.17933465        0.21262037        0.50963337  H
       atom_frac         0.35097532        0.44755135        0.00736243  H
       atom_frac         0.86444201        0.29725842        0.01039839  H
       atom_frac         0.64902738        0.04640715        0.48352850  H
       atom_frac         0.05987495        0.16844360        0.34465255  H
       atom_frac         0.45038392        0.39825842        0.16105015  H
       atom_frac         0.97255920        0.34878114        0.17354917  H
       atom_frac         0.49990213        0.10625505        0.31756923  H
       atom_frac         0.09339084       -0.00053585        0.66995616  C
       atom_frac         0.44782907        0.25102778        0.84135553  C
       atom_frac         0.91832971        0.48934343        0.83533047  C
       atom_frac         0.62783746        0.23987290        0.67196498  C
       atom_frac         0.13287298        0.07473830        0.62332750  C
       atom_frac         0.40999655        0.32251936        0.89153400  C
       atom_frac         0.89166746        0.41720034        0.89062217  C
       atom_frac         0.64492021        0.16942677        0.61247678  C
       atom_frac         0.07408088        0.05229335        0.53050225  C
       atom_frac         0.47342825        0.29852441        0.98413340  C
       atom_frac         0.97271999        0.44912121        0.98627969  C
       atom_frac         0.56831147        0.20154798        0.51874531  C
       atom_frac         0.09084074        0.12075253        0.96855521  C
       atom_frac         0.45569587        0.38059512        0.54911472  C
       atom_frac         0.95150385        0.37515067        0.54367953  C
       atom_frac         0.60791806        0.12110185        0.96942495  C
       atom_frac         0.03232438        0.09476178        0.87885962  C
       atom_frac         0.52809017        0.34519024        0.63912804  C
       atom_frac         1.01688495        0.40913721        0.63198915  C
       atom_frac         0.55333969        0.15044949        0.88052195  C
       atom_frac         0.14095397        0.02048300        0.74161584  H
       atom_frac         0.39754355        0.27380556        0.77122913  H
       atom_frac         0.86485245        0.47169613        0.76370306  H
       atom_frac         0.68560529        0.21017003        0.74348859  H
       atom_frac         0.20431571        0.15674411        0.65348859  H
       atom_frac         0.33203484        0.40063215        0.85851889  H
       atom_frac         0.81033649        0.33671886        0.86616420  H
       atom_frac         0.72202646        0.08744192        0.63914417  H
       atom_frac         0.16251673        0.20340909        0.99688493  H
       atom_frac         0.38311388        0.46160017        0.51765673  H
       atom_frac         0.88397943        0.29461195        0.51678629  H
       atom_frac         0.68751322        0.04229141        0.99738994  H
       atom_frac         0.06991511        0.15611027        0.84489061  H
       atom_frac         0.51699493        0.39648148        0.68833927  H
       atom_frac         1.01087520        0.35136448        0.68032993  H
       atom_frac         0.59272499        0.10023401        0.83967917  H
       atom_frac         0.09228911        0.51494360        0.16856780  C
       atom_frac         0.41224679        0.76069613        0.33815053  C
       atom_frac         0.93303664        1.00450337        0.34211768  C
       atom_frac         0.59577007        0.74943013        0.16349454  C
       atom_frac         0.13770316        0.58162626        0.11750206  C
       atom_frac         0.38728033        0.82984512        0.39460797  C
       atom_frac         0.89925976        0.92936869        0.39109113  C
       atom_frac         0.63149022        0.67375842        0.11459614  C
       atom_frac         0.07411142        0.55333502        0.02500352  C
       atom_frac         0.46163906        0.80191582        0.48798312  C
       atom_frac         0.96940752        0.94904040        0.48629484  C
       atom_frac         0.56501178        0.69311700        0.02081487  C
       atom_frac         0.08472323        0.63539562        0.46261473  C
       atom_frac         0.42518265        0.87560606        0.03068237  C
       atom_frac         0.94079585        0.86228114        0.03841129  C
       atom_frac         0.59015263        0.62319697        0.46493918  C
       atom_frac         0.01572968        0.60432492        0.37273047  C
       atom_frac         0.49406997        0.85205387        0.12142501  C
       atom_frac         1.00783180        0.89088384        0.12890970  C
       atom_frac         0.51558989        0.65528956        0.37352867  C
       atom_frac         0.12633788        0.54021717        0.23657105  H
       atom_frac         0.34531192        0.78435774        0.26476330  H
       atom_frac         0.87969348        0.98478956        0.27089848  H
       atom_frac         0.65168654        0.73058586        0.23650512  H
       atom_frac         0.21171326        0.65998653        0.14588579  H
       atom_frac         0.31827331        0.91346801        0.36884890  H
       atom_frac         0.81603357        0.84980640        0.35869607  H
       atom_frac         0.71708366        0.59876515        0.14871315  H
       atom_frac         0.16003251        0.71486279        0.48772290  H
       atom_frac         0.33636047        0.94969697       -0.00688470  H
       atom_frac         0.86645160        0.78410606        0.00783854  H
       atom_frac         0.67095158        0.54218350        0.49287822  H
       atom_frac         0.04299759        0.65535522        0.32799350  H
       atom_frac         0.47201845        0.91553030        0.16308212  H
       atom_frac         0.98485166        0.83163215        0.17161189  H
       atom_frac         0.52838098        0.59985438        0.32837225  H
       atom_frac         0.10676267        0.51616751        0.66869083  C
       atom_frac         0.43176191        0.74746970        0.83610201  C
       atom_frac         0.92724961        0.99228114        0.83728037  C
       atom_frac         0.60643718        0.73812542        0.67421789  C
       atom_frac         0.13343079        0.59059343        0.61620334  C
       atom_frac         0.38723313        0.81984680        0.88316624  C
       atom_frac         0.89128538        0.91599327        0.88608408  C
       atom_frac         0.64115339        0.66976599        0.61975174  C
       atom_frac         0.05892119        0.56489646        0.52180905  C
       atom_frac         0.45769537        0.79661869        0.97837487  C
       atom_frac         0.96102539        0.93865320        0.98176265  C
       atom_frac         0.56730199        0.69698485        0.52497869  C
       atom_frac         0.10114095        0.62354545        0.96849208  C
       atom_frac         0.44317641        0.87407407        0.54826111  C
       atom_frac         0.92994058        0.87160774        0.53719154  C
       atom_frac         0.61062554        0.62030976        0.96831673  C
       atom_frac         0.02593279        0.59148653        0.87621533  C
       atom_frac         0.50549214        0.84201178        0.63840559  C
       atom_frac         0.98647594        0.89662458        0.62749314  C
       atom_frac         0.54423266        0.64654798        0.87880351  C
       atom_frac         0.16385630        0.53802862        0.74036032  H
       atom_frac         0.37771730        0.76602525        0.76349264  H
       atom_frac         0.87680823        0.96310606        0.76529525  H
       atom_frac         0.66345453        0.71415404        0.74644150  H
       atom_frac         0.20739166        0.67145202        0.64557465  H
       atom_frac         0.29161088        0.89615320        0.84966717  H
       atom_frac         0.80793470        0.83715152        0.85502590  H
       atom_frac         0.71140898        0.58979798        0.64309448  H
       atom_frac         0.17432909        0.70433923        0.99666048  H
       atom_frac         0.38469212        0.95836700        0.52230634  H
       atom_frac         0.85682390        0.79203535        0.50214728  H
       atom_frac         0.69427197        0.54308081        1.00447412  H
       atom_frac         0.04519194        0.64998737        0.83497275  H
       atom_frac         0.48204257        0.89771886        0.68183304  H
       atom_frac         0.96807874        0.83371801        0.66796347  H
       atom_frac         0.56984496        0.59365152        0.83369620  H

 
  Finished reading input file 'geometry.in'.
 

 
  Consistency checks for stacksize environment parameter are next.
 
  | Maximum stacksize for task 0: unlimited
  | Maximum stacksize for task 1: unlimited
  | Maximum stacksize for task 2: unlimited
  | Maximum stacksize for task 3: unlimited
  | Maximum stacksize for task 4: unlimited
  | Maximum stacksize for task 5: unlimited
  | Maximum stacksize for task 6: unlimited
  | Maximum stacksize for task 7: unlimited
  | Maximum stacksize for task 8: unlimited
  | Maximum stacksize for task 9: unlimited
  | Maximum stacksize for task 10: unlimited
  | Maximum stacksize for task 11: unlimited
  | Maximum stacksize for task 12: unlimited
  | Maximum stacksize for task 13: unlimited
  | Maximum stacksize for task 14: unlimited
  | Maximum stacksize for task 15: unlimited
  | Maximum stacksize for task 16: unlimited
  | Maximum stacksize for task 17: unlimited
  | Current stacksize for task 0: unlimited
  | Current stacksize for task 1: unlimited
  | Current stacksize for task 2: unlimited
  | Current stacksize for task 3: unlimited
  | Current stacksize for task 4: unlimited
  | Current stacksize for task 5: unlimited
  | Current stacksize for task 6: unlimited
  | Current stacksize for task 7: unlimited
  | Current stacksize for task 8: unlimited
  | Current stacksize for task 9: unlimited
  | Current stacksize for task 10: unlimited
  | Current stacksize for task 11: unlimited
  | Current stacksize for task 12: unlimited
  | Current stacksize for task 13: unlimited
  | Current stacksize for task 14: unlimited
  | Current stacksize for task 15: unlimited
  | Current stacksize for task 16: unlimited
  | Current stacksize for task 17: unlimited
 
  Consistency checks for the contents of control.in are next.
 
  MPI_IN_PLACE appears to work with this MPI implementation.
  | Keeping use_mpi_in_place .true. (see manual).
  Explicit treatment of the Coulomb operator is needed, but the RI method is not specified.
  Coulomb operator: Defaulting to 'LVL fast' resolution of identity - RI_type = LVL_fast
  Species H: Using default value for prodbas_acc =   1.000000E-06.
  Species H: Using default value max_l_prodbas =     6.
  Species C: Using default value for prodbas_acc =   1.000000E-06.
  Species C: Using default value max_l_prodbas =     6.
  Target number of points in a grid batch is not set.  Since GPU acceleration is enabled, defaulting to  200
  Method for grid partitioning is not set. Defaulting to parallel hash+maxmin partitioning.
  Batch size limit is not set. Defaulting to    200
  By default, will store active basis functions for each batch.
  If in need of memory, prune_basis_once .false. can be used to disable this option.
  communication_type for Hartree potential was not specified.
  Defaulting to calc_hartree .
  Defaulting to Pulay charge density mixer.
  Pulay mixer: Number of relevant iterations not set.
  Defaulting to    8 iterations.
  Pulay mixer: Number of initial linear mixing iterations not set.
  Defaulting to    0 iterations.
  Work space size for distributed Hartree potential not set.
  Defaulting to   0.200000E+03 MB.
  Algorithm-dependent basis array size parameters:
  | n_max_pulay                         :        8
  Maximum number of self-consistency iterations not provided.
  Presetting  1000 iterations.
  Presetting      1001 iterations before the initial mixing cycle
  is restarted anyway using the sc_init_iter criterion / keyword.
  Presetting a factor      1.000 between actual scf density residual
  and density convergence criterion sc_accuracy_rho below which sc_init_iter
  takes no effect.
 * No s.c.f. convergence criteria (sc_accuracy_*) were provided in control.in.
 * The run will proceed with a reasonable default guess, but please check whether.
 * the s.c.f. cycles seem to take too much or too little time.
  Geometry relaxation not requested: no relaxation will be performed.
 * Notice: The s.c.f. convergence criterion sc_accuracy_rho was not provided.
 * We used to stop in this case, and ask the user to provide reasonable
 * scf convergence criteria. However, this led some users to employ criteria
 * that led to extremely long run times, e.g., for simple relaxation.
 * We now preset a default value for sc_accuracy_rho if it is not set.
 * You may still wish to check if this setting is too tight or too loose for your needs.
 * Based on n_atoms and forces and force-correction status, FHI-aims chose sc_accuracy_rho =  0.391918E-04 .
  No accuracy limit for integral partition fn. given. Defaulting to  0.1000E-14.
  No threshold value for u(r) in integrations given. Defaulting to  0.1000E-05.
  No occupation type (smearing scheme) given. Defaulting to Gaussian broadening, width =  0.1000E-01 eV.
  The width will be adjusted in iteration number     2 of the first full s.c.f. cycle only.
  S.C.F. convergence parameters will be adjusted in iteration number     2 of the first full s.c.f. cycle only.
  No accuracy for occupation numbers given. Defaulting to  0.1000E-12.
  No threshold value for occupation numbers given. Defaulting to  0.0000E+00.
  No accuracy for fermi level given. Defaulting to  0.1000E-19.
  Maximum # of iterations to find E_F not set. Defaulting to  200.
  Preferred method for the eigenvalue solver ('KS_method') not specified in 'control.in'.
  Calling BLACS routine to test compilation state
  Since ScaLAPACK support is enabled, defaulting to ELPA (via ELSI).
  Will not use alltoall communication since running on < 1024 CPUs.
  Threshold for basis singularities not set.
  Default threshold for basis singularities:  0.1000E-04
  partition_type (choice of integration weights) for integrals was not specified.
  | Using a version of the partition function of Stratmann and coworkers ('stratmann_sparse').
  | At each grid point, the set of atoms used to build the partition table is smoothly restricted to
  | only those atoms whose free-atom density would be non-zero at that grid point.
  Partitioning for Hartree potential was not defined. Using partition_type for integrals.
  | Adjusted default value of keyword multip_moments_threshold to:       0.10000000E-11
  | This value may affect high angular momentum components of the Hartree potential in periodic systems.
  Angular momentum expansion for Kerker preconditioner not set explicitly.
  | Using default value of   0
  No explicit requirement for turning off preconditioner.
  | By default, it will be turned off when the charge convergence reaches
  | sc_accuracy_rho  =   0.391918E-04
  No special mixing parameter while Kerker preconditioner is on.
  Using default: charge_mix_param =     0.7500.
  Threshold for auxiliary basis singularities not set.
  Default threshold for auxiliary basis singularities:  0.1000E-04
  No q(lm)/r^(l+1) cutoff set for long-range Hartree potential.
  | Using default value of  0.100000E-09 .
  | Verify using the multipole_threshold keyword.
  Defaulting to new monopole extrapolation.
  Density update method: automatic selection selected.
  Using density matrix based charge density update.
  Using density matrix based charge density update.
  Using packed matrix style: index .
  Defaulting to use time-reversal symmetry for k-point grid.
  Charge integration errors on the 3D integration grid will be compensated
  by explicit normalization and distribution of residual charges.
  Use the "compensate_multipole_errors" flag to change this behaviour.
  Default to 1D ("use_logsbt") integrations for auxiliary 2-center integrals.
  Default onset of logarithmic r-grid for SBT is -38.000000000000
  Default onset of logarithmic k-grid for SBT is -25.000000000000
  Default range of logarithmic r- and k-grid for SBT is  45.000000000000
  Default number of logarithmic r- and k-grid for SBT is   4096
  Default of use_2d_corr is to use the efficient 2D distribution where possible
 
  Consistency checks for the contents of geometry.in are next.
 

  Range separation radius for Ewald summation (hartree_convergence_parameter):      2.91768261 bohr.
  Number of empty states per atom not set in control.in .
  | Since you are using a method that relies on the unoccupied spectrum
  | (MP2,GW,RPA et al.), will use the full Hamiltonian size (see below)
  | as the max. possible number of states (occupied plus empty).

  Structure-dependent array size parameters: 
  | Maximum number of distinct radial functions  :        9
  | Maximum number of basis functions            :     1440
  | Number of Kohn-Sham states (occupied + empty):     1440
------------------------------------------------------------
CUDA runtime version: 11060
CUDA driver version: 11060
  Initializing GPUs...

  Number of GPUs available to MPI task         0 :   1
  Number of GPUs available to MPI task         1 :   1
  Number of GPUs available to MPI task         2 :   1
  Number of GPUs available to MPI task         3 :   1
  Number of GPUs available to MPI task         4 :   1
  Number of GPUs available to MPI task         5 :   1
  Number of GPUs available to MPI task         6 :   1
  Number of GPUs available to MPI task         7 :   1
  Number of GPUs available to MPI task         8 :   1
  Number of GPUs available to MPI task         9 :   1
  Number of GPUs available to MPI task        10 :   1
  Number of GPUs available to MPI task        11 :   1
  Number of GPUs available to MPI task        12 :   1
  Number of GPUs available to MPI task        13 :   1
  Number of GPUs available to MPI task        14 :   1
  Number of GPUs available to MPI task        15 :   1
  Number of GPUs available to MPI task        16 :   1
  Number of GPUs available to MPI task        17 :   1

  | MPI task         0, GPU activated = T, Device Name = NVIDIA A100-SXM4-80GB
  | MPI task         1, GPU activated = T, Device Name = NVIDIA A100-SXM4-80GB
  | MPI task         2, GPU activated = T, Device Name = NVIDIA A100-SXM4-80GB
  | MPI task         3, GPU activated = T, Device Name = NVIDIA A100-SXM4-80GB
  | MPI task         4, GPU activated = T, Device Name = NVIDIA A100-SXM4-80GB
  | MPI task         5, GPU activated = T, Device Name = NVIDIA A100-SXM4-80GB
  | MPI task         6, GPU activated = T, Device Name = NVIDIA A100-SXM4-80GB
  | MPI task         7, GPU activated = T, Device Name = NVIDIA A100-SXM4-80GB
  | MPI task         8, GPU activated = T, Device Name = NVIDIA A100-SXM4-80GB
  | MPI task         9, GPU activated = T, Device Name = NVIDIA A100-SXM4-80GB
  | MPI task        10, GPU activated = T, Device Name = NVIDIA A100-SXM4-80GB
  | MPI task        11, GPU activated = T, Device Name = NVIDIA A100-SXM4-80GB
  | MPI task        12, GPU activated = T, Device Name = NVIDIA A100-SXM4-80GB
  | MPI task        13, GPU activated = T, Device Name = NVIDIA A100-SXM4-80GB
  | MPI task        14, GPU activated = T, Device Name = NVIDIA A100-SXM4-80GB
  | MPI task        15, GPU activated = T, Device Name = NVIDIA A100-SXM4-80GB
  | MPI task        16, GPU activated = T, Device Name = NVIDIA A100-SXM4-80GB
  | MPI task        17, GPU activated = T, Device Name = NVIDIA A100-SXM4-80GB

------------------------------------------------------------
          Preparing all fixed parts of the calculation.
------------------------------------------------------------
  Determining machine precision:
    2.225073858507201E-308
  Setting up grids for atomic and cluster calculations.

  Creating wave function, potential, and density for free atoms.
  Runtime choices for atomic solver:
  | atomic solver xc        : PW-LDA
  | compute density gradient: 0
  | compute kinetic density : F

  Species: H

  List of occupied orbitals and eigenvalues:
    n    l              occ      energy [Ha]    energy [eV]
    1    0           1.0000        -0.232375        -6.3233


  Species: C

  List of occupied orbitals and eigenvalues:
    n    l              occ      energy [Ha]    energy [eV]
    1    0           2.0000        -9.944615      -270.6068
    2    0           2.0000        -0.498807       -13.5732
    2    1           2.0000        -0.196968        -5.3598


  Adding cutoff potential to free-atom effective potential.
  Creating fixed part of basis set: Ionic, confined, hydrogenic.
 
  H                    hydrogenic:
 
  List of hydrogenic basis orbitals: 
    n    l      effective z      eigenvalue [eV]  inner max. [A]     outer max. [A]     outer radius [A]   
    2    0         2.100000       -14.9728           0.193243           1.317208           4.583499
    2    1         3.500000       -41.6669           0.602369           0.602369           3.723403
 
 
  C                    hydrogenic:
 
  List of hydrogenic basis orbitals: 
    n    l      effective z      eigenvalue [eV]  inner max. [A]     outer max. [A]     outer radius [A]   
    2    1         1.700000        -9.7616           1.230570           1.230570           4.607917
    3    2         6.000000       -54.4224           0.792453           0.792453           3.883070
    2    0         4.900000       -81.6679           0.082559           0.562749           3.078220
 
  Creating atomic-like basis functions for current effective potential.

  Species H                   :

  List of atomic basis orbitals and eigenvalues:
    n    l      energy [Ha]    energy [eV]    outer radius [A]
    1    0        -0.232375        -6.3233       4.527807


  Species C                   :

  List of atomic basis orbitals and eigenvalues:
    n    l      energy [Ha]    energy [eV]    outer radius [A]
    1    0        -9.944615      -270.6068       1.934409
    2    0        -0.498807       -13.5732       4.496620
    2    1        -0.196968        -5.3598       4.551928

  Assembling full basis from fixed parts.
  | Species H :   atomic orbital   1 s accepted.
  | Species H :    hydro orbital   2 s accepted.
  | Species H :    hydro orbital   2 p accepted.
  | Species C :   atomic orbital   1 s accepted.
  | Species C :    hydro orbital   2 s accepted.
  | Species C :   atomic orbital   2 s accepted.
  | Species C :   atomic orbital   2 p accepted.
  | Species C :    hydro orbital   2 p accepted.
  | Species C :    hydro orbital   3 d accepted.
 
  Basis size parameters after reduction:
  | Total number of radial functions:        9
  | Total number of basis functions :     1440
 
  Per-task memory consumption for arrays in subroutine allocate_ext:
  |           2.242384MB.
  Testing on-site integration grid accuracy.
  |  Species  Function  <phi|h_atom|phi> (log., in eV)  <phi|h_atom|phi> (rad., in eV)
           1        1                 -6.3245358373                 -6.3232436907
           1        2                 14.1326137532                 14.1384481100
           1        3                 25.3627025200                 25.3628451197
           2        4               -270.6067544938               -270.6067222788
           2        5                -10.5634280949                -10.5635685736
           2        6                 16.2089822398                 16.2052121796
           2        7                 -5.3613872565                 -5.3627872378
           2        8                  8.5292058327                  8.5051734780
           2        9                 27.4884461005                 27.4884542459

  Preparing densities etc. for the partition functions (integrals / Hartree potential).

  Preparations completed.
  max(cpu_time)          :      0.072 s.
  Wall clock time (cpu1) :      0.069 s.
------------------------------------------------------------

  Initializing index lists of integration centers etc. from given atomic structure:
  Mapping all atomic coordinates to central unit cell.

  Initializing the k-points
  Using symmetry for reducing the k-points
  | k-points reduced from:        2 to        2
  | Number of k-points                             :         2
  | Consuming          0 KiB for k_phase_exx.
  The eigenvectors in the calculations are REAL.
  | Number of basis functions in the Hamiltonian integrals :      8022
  | Number of basis functions in a single unit cell        :      1440
  | Number of centers in hartree potential         :      3331
  | Number of centers in hartree multipole         :      2559
  | Number of centers in electron density summation:      1992
  | Number of centers in basis integrals           :      2116
  | Number of centers in integrals                 :       973
  | Number of centers in hamiltonian               :      2001
  | Consuming          1 KiB for k_phase.
  | Number of super-cells (origin) [n_cells]                     :         175
  | Number of super-cells (after PM_index) [n_cells]             :          40
  | Number of super-cells in hamiltonian [n_cells_in_hamiltonian]:          40
  | Size of matrix packed + index [n_hamiltonian_matrix_size] :     1932005
  | Size of matrix packed + index (no_symmetry):     3861193

------------------------------------------------------------
          Begin self-consistency loop: Initialization.

          Date     :  20230120, Time     :  120453.071
------------------------------------------------------------
  | Estimated reciprocal-space cutoff momentum G_max:         3.24344278 bohr^-1 .
  | Reciprocal lattice points for long-range Hartree potential:    5310
  Using simple linear distribution as default method for k-point parallelism.
  * Using 18 tasks for Scalapack Eigenvalue solver.
  Detailed listing of tasks and assigned k-points:
   Task     0 k-point     1 on adag006
   Task     1 k-point     1 on adag006
   Task     2 k-point     1 on adag006
   Task     3 k-point     1 on adag006
   Task     4 k-point     1 on adag006
   Task     5 k-point     1 on adag006
   Task     6 k-point     1 on adag006
   Task     7 k-point     1 on adag006
   Task     8 k-point     1 on adag006
   Task     9 k-point     2 on adag006
   Task    10 k-point     2 on adag006
   Task    11 k-point     2 on adag006
   Task    12 k-point     2 on adag006
   Task    13 k-point     2 on adag006
   Task    14 k-point     2 on adag006
   Task    15 k-point     2 on adag006
   Task    16 k-point     2 on adag006
   Task    17 k-point     2 on adag006
  K-point:     1 Tasks:     9 split into      3 X      3 BLACS grid
  Calculating block size based on n_basis =         1440  max_nprow =            3  max_npcol =            3
  ScaLAPACK block size set to:           16
  Allocating        1.758 MB for ovlp
  Allocating        1.758 MB for ham
  Allocating        1.758 MB for eigenvec
  Required Scalapack workspace - INTEGER:            1  REAL:             1
  Partitioning the integration grid into batches with parallel hashing+maxmin method.
  | Number of batches:     5632
  | Maximal batch size:     195
  | Minimal batch size:     100
  | Average batch size:     135.625
  | Standard deviation of batch sizes:      31.585

  Integration load balanced across    18 MPI tasks.
  Work distribution over tasks is as follows:
  Task     0 has      42388 integration points.
  Task     1 has      42440 integration points.
  Task     2 has      42449 integration points.
  Task     3 has      42426 integration points.
  Task     4 has      42441 integration points.
  Task     5 has      42422 integration points.
  Task     6 has      42430 integration points.
  Task     7 has      42492 integration points.
  Task     8 has      42456 integration points.
  Task     9 has      42447 integration points.
  Task    10 has      42409 integration points.
  Task    11 has      42455 integration points.
  Task    12 has      42429 integration points.
  Task    13 has      42433 integration points.
  Task    14 has      42436 integration points.
  Task    15 has      42442 integration points.
  Task    16 has      42433 integration points.
  Task    17 has      42412 integration points.
  Initializing partition tables, free-atom densities, potentials, etc. across the integration grid (initialize_grid_storage).
  | initialize_grid_storage: Actual outermost partition radius vs. multipole_radius_free
  | (-- VB: in principle, multipole_radius_free should be larger, hence this output)
  | Species        1: Confinement radius =              4.999999999999999 AA, multipole_radius_free =              5.054417573612229 AA.
  | Species        1: outer_partition_radius set to              5.054417573612229 AA .
  | Species        2: Confinement radius =              4.999999999999999 AA, multipole_radius_free =              5.019602836301480 AA.
  | Species        2: outer_partition_radius set to              5.019602836301480 AA .
  | The sparse table of interatomic distances needs       7602.96 kbyte instead of     35819.65 kbyte of memory.
  | Net number of integration points:   763840
  | of which are non-zero points    :   605349
  | Numerical average free-atom electrostatic potential    :     -8.61466109 eV
  Renormalizing the initial density to the exact electron count on the 3D integration grid.
  | Initial density: Formal number of electrons (from input files) :     544.0000000000
  | Integrated number of electrons on 3D grid     :     543.9952483861
  | Charge integration error                      :      -0.0047516139
  | Normalization factor for density and gradient :       1.0000087347
  Renormalizing the free-atom superposition density to the exact electron count on the 3D integration grid.
  | Formal number of electrons (from input files) :     544.0000000000
  | Integrated number of electrons on 3D grid     :     543.9952483861
  | Charge integration error                      :      -0.0047516139
  | Normalization factor for density and gradient :       1.0000087347
  Obtaining max. number of non-zero basis functions in each batch (get_n_compute_maxes).
  | Maximal number of non-zero basis functions:      546 in task     0
  | Maximal number of non-zero basis functions:      542 in task     1
  | Maximal number of non-zero basis functions:      549 in task     2
  | Maximal number of non-zero basis functions:      539 in task     3
  | Maximal number of non-zero basis functions:      541 in task     4
  | Maximal number of non-zero basis functions:      543 in task     5
  | Maximal number of non-zero basis functions:      555 in task     6
  | Maximal number of non-zero basis functions:      543 in task     7
  | Maximal number of non-zero basis functions:      556 in task     8
  | Maximal number of non-zero basis functions:      538 in task     9
  | Maximal number of non-zero basis functions:      542 in task    10
  | Maximal number of non-zero basis functions:      545 in task    11
  | Maximal number of non-zero basis functions:      544 in task    12
  | Maximal number of non-zero basis functions:      537 in task    13
  | Maximal number of non-zero basis functions:      552 in task    14
  | Maximal number of non-zero basis functions:      544 in task    15
  | Maximal number of non-zero basis functions:      544 in task    16
  | Maximal number of non-zero basis functions:      542 in task    17
  Integrating Hamiltonian matrix: batch-based integration.
  GPU acceleration will be used when integrating the Hamiltonian matrix.
  Reporting GPU memory usage by myid 0.  Note that it is likely not the only MPI task binding to its GPU!
  Allocating        2.385 MB on GPU for hamiltonian_shell
  Allocating        0.852 MB on GPU for wave
  Allocating        0.002 MB on GPU for partition
  Allocating        0.852 MB on GPU for h_times_psi
  Time summed over all CPUs for integration: real work       34.483 s, elapsed       36.241 s
  Deallocating memory used on GPU for Hamiltonian integration.
  Integrating overlap matrix.
  Time summed over all CPUs for integration: real work       26.890 s, elapsed       27.544 s
  Deallocating overlap matrix.

  Updating Kohn-Sham eigenvalues and eigenvectors using ELSI and the ELPA eigensolver.
  Singularity check in k-point 1 (analysis for other k-points may follow below):
  Overlap matrix is not singular
  | Lowest and highest eigenvalues :  0.7981E-03,  0.8245E+01
  Finished singularity check of overlap matrix
  | Time :     0.113 s
  Starting ELPA eigensolver
  Finished Cholesky decomposition
  | Time :     0.018 s
  Finished transformation to standard eigenproblem
  | Time :     0.027 s
  Finished solving standard eigenproblem
  | Time :     0.250 s
  Finished back-transformation of eigenvectors
  | Time :     0.020 s

  Obtaining occupation numbers and electronic chemical potential using ELSI.
  | Note that, for insulating systems, the printed 'chemical potential' value is not uniquely defined.
  | It can be anywhere in the energy gap, as long as it correctly separates occupied and unoccupied states.
  | In systems with a gap, the physically relevant chemical potential is the VBM or HOMO.

  | Chemical potential (Fermi level):    -8.11643850 eV
  Writing Kohn-Sham eigenvalues.
  K-point:       1 at    0.000000    0.000000    0.000000 (in units of recip. lattice)

  State    Occupation    Eigenvalue [Ha]    Eigenvalue [eV]
      1       2.00000         -10.071758         -274.06647
      2       2.00000         -10.071213         -274.05165
      3       2.00000         -10.069178         -273.99626
      4       2.00000         -10.069045         -273.99265
      5       2.00000         -10.068946         -273.98997
      6       2.00000         -10.068848         -273.98730
      7       2.00000         -10.068590         -273.98027
      8       2.00000         -10.068357         -273.97393
      9       2.00000         -10.067737         -273.95705
     10       2.00000         -10.067680         -273.95552
     11       2.00000         -10.067215         -273.94287
     12       2.00000         -10.066701         -273.92887
     13       2.00000         -10.066701         -273.92886
     14       2.00000         -10.066594         -273.92596
     15       2.00000         -10.066475         -273.92273
     16       2.00000         -10.066181         -273.91471
     17       2.00000         -10.065779         -273.90378
     18       2.00000         -10.065745         -273.90286
     19       2.00000         -10.065607         -273.89909
     20       2.00000         -10.065406         -273.89365
     21       2.00000         -10.065151         -273.88669
     22       2.00000         -10.065148         -273.88662
     23       2.00000         -10.064975         -273.88190
     24       2.00000         -10.064856         -273.87867
     25       2.00000         -10.064846         -273.87838
     26       2.00000         -10.064837         -273.87816
     27       2.00000         -10.064684         -273.87398
     28       2.00000         -10.064633         -273.87260
     29       2.00000         -10.064543         -273.87016
     30       2.00000         -10.064519         -273.86949
     31       2.00000         -10.064504         -273.86910
     32       2.00000         -10.064476         -273.86834
     33       2.00000         -10.064450         -273.86762
     34       2.00000         -10.064324         -273.86419
     35       2.00000         -10.064024         -273.85604
     36       2.00000         -10.063856         -273.85146
     37       2.00000         -10.063566         -273.84356
     38       2.00000         -10.063386         -273.83868
     39       2.00000         -10.063324         -273.83698
     40       2.00000         -10.062999         -273.82813
     41       2.00000         -10.062995         -273.82801
     42       2.00000         -10.062983         -273.82770
     43       2.00000         -10.062921         -273.82600
     44       2.00000         -10.062859         -273.82432
     45       2.00000         -10.062760         -273.82163
     46       2.00000         -10.062672         -273.81925
     47       2.00000         -10.062215         -273.80681
     48       2.00000         -10.062167         -273.80550
     49       2.00000         -10.062099         -273.80364
     50       2.00000         -10.061699         -273.79277
     51       2.00000         -10.061674         -273.79208
     52       2.00000         -10.061426         -273.78534
     53       2.00000         -10.061311         -273.78220
     54       2.00000         -10.061225         -273.77986
     55       2.00000         -10.061024         -273.77439
     56       2.00000         -10.060576         -273.76219
     57       2.00000         -10.060483         -273.75967
     58       2.00000         -10.060110         -273.74952
     59       2.00000         -10.060085         -273.74884
     60       2.00000         -10.059546         -273.73417
     61       2.00000         -10.059519         -273.73343
     62       2.00000         -10.059405         -273.73033
     63       2.00000         -10.058916         -273.71703
     64       2.00000         -10.058616         -273.70887
     65       2.00000         -10.058601         -273.70847
     66       2.00000         -10.058280         -273.69972
     67       2.00000         -10.057977         -273.69147
     68       2.00000         -10.057899         -273.68937
     69       2.00000         -10.057846         -273.68790
     70       2.00000         -10.057606         -273.68138
     71       2.00000         -10.056318         -273.64633
     72       2.00000         -10.054693         -273.60211
[...]
  |    H      2     3.678162 A  1.011968E+04 A            0.556529 a.u.
  |    H      1     3.958095 A  1.721251E+06 A            0.841931 a.u.
  |    H      0     4.527807 A  3.866455E+12 A            0.581436 a.u.
  |    C      0     2.562483 A      2.562483 A        6.563029E-17 a.u.
  |    C      0     2.967371 A      2.967371 A        1.352164E-16 a.u.
  |    C      0     3.003870 A      3.003870 A        2.312640E-17 a.u.
  |    C      1     3.272245 A      3.272245 A       -3.835259E-17 a.u.
  |    C      0     3.312494 A      3.312494 A       -2.710381E-16 a.u.
  |    C      3     4.077671 A      4.077671 A       -1.683752E-15 a.u.
  |    C      3     4.077671 A      4.077671 A        1.412852E-15 a.u.
  |    C      1     4.496620 A      4.496620 A       -3.011059E-16 a.u.
  |    C      0     4.496620 A      4.551928 A        2.873903E-17 a.u.
  |    C      2     4.551928 A      4.551928 A       -4.610785E-16 a.u.
  |    C      2     4.551928 A      4.551928 A        7.440584E-16 a.u.
  |    C      2     4.551928 A      4.551928 A       -7.110458E-16 a.u.
  |    C      2     4.551928 A      4.551928 A       -1.935424E-16 a.u.
  |    C      0     4.551928 A      4.607917 A        2.067142E-16 a.u.
  |    C      0     4.551928 A      4.607917 A       -1.109786E-16 a.u.
  |    C      1     4.551928 A      4.607917 A       -9.951742E-17 a.u.
  |    C      1     4.551928 A      4.607917 A        1.937809E-16 a.u.
  |    C      1     4.607917 A      4.607917 A       -2.813308E-16 a.u.
  |    C      1     4.607917 A      4.607917 A       -7.330363E-17 a.u.
  |    C      2     4.607917 A      4.607917 A        1.318462E-15 a.u.
  |    C      2     4.607917 A      4.607917 A       -1.318397E-15 a.u.
  |    C      0     4.607917 A      4.664595 A        3.157826E-16 a.u.
  |    C      1     4.607917 A      4.664595 A        7.356967E-16 a.u.
  |    C      4     3.835889 A  2.962973E+02 A            4.379483 a.u.
  |    C      3     4.127827 A  1.725964E+03 A            9.005588 a.u.
  |    C      2     4.607917 A  2.608475E+04 A            9.531178 a.u.
  |    C      1     4.607917 A  2.736013E+06 A            2.127278 a.u.
  |    C      0     4.607917 A  4.399765E+12 A            0.661635 a.u.

  | Shrink_full_auxil_basis : there are       36  radial auxiliary wave functions
                            accepted and       7 rejected.
  | Shrink_full_auxil_basis : there are totally                8992 partial auxiliary wave functions.
 
  | Maximal number of product basis functions per thread :   512   512
 
  | Minimal total memory requirement for three-center overlap :      72.476 Gbs
  | Number of local auxiliary basis functions on task:      0   512
  | Number of local auxiliary basis functions on task:      1   512
  | Number of local auxiliary basis functions on task:      2   512
  | Number of local auxiliary basis functions on task:      3   512
  | Number of local auxiliary basis functions on task:      4   496
  | Number of local auxiliary basis functions on task:      5   496
  | Number of local auxiliary basis functions on task:      6   496
  | Number of local auxiliary basis functions on task:      7   496
  | Number of local auxiliary basis functions on task:      8   496
  | Number of local auxiliary basis functions on task:      9   496
  | Number of local auxiliary basis functions on task:     10   496
  | Number of local auxiliary basis functions on task:     11   496
  | Number of local auxiliary basis functions on task:     12   496
  | Number of local auxiliary basis functions on task:     13   496
  | Number of local auxiliary basis functions on task:     14   496
  | Number of local auxiliary basis functions on task:     15   496
  | Number of local auxiliary basis functions on task:     16   496
  | Number of local auxiliary basis functions on task:     17   496
  | 2D aux task distribution:      3 X      6
  | 2D block size (nb_aux_2d):     64
 
  Basis pair condensation :   1037520  -->     554148
 
 --------------------------------------------
  Constructing auxiliary basis (full product) ...
 
  Product basis:
  | charge radius: extent of product basis function
  | field radius: extent of its Coulomb potential
  | Species   l  charge radius    field radius  multipol momen
  |    H      1     3.910002 A      3.910002 A       -2.487223E-16 a.u.
  |    H      1     3.958095 A      3.958095 A       -2.441841E-16 a.u.
  |    H      0     4.527807 A      4.527807 A        1.268855E-16 a.u.
  |    H      0     4.527807 A      4.583499 A       -4.900954E-17 a.u.
  |    H      0     4.527807 A      4.583499 A        4.713786E-16 a.u.
  |    H      2     3.678162 A  1.011968E+04 A            0.556529 a.u.
  |    H      1     3.958095 A  1.721251E+06 A            0.841931 a.u.
  |    H      0     4.527807 A  3.866455E+12 A            0.581436 a.u.
  |    C      0     2.562483 A      2.562483 A        6.563029E-17 a.u.
  |    C      0     2.967371 A      2.967371 A        1.352164E-16 a.u.
  |    C      0     3.003870 A      3.003870 A        2.312640E-17 a.u.
  |    C      1     3.272245 A      3.272245 A       -3.835259E-17 a.u.
  |    C      0     3.312494 A      3.312494 A       -2.710381E-16 a.u.
  |    C      3     4.077671 A      4.077671 A       -1.683752E-15 a.u.
  |    C      3     4.077671 A      4.077671 A        1.412852E-15 a.u.
  |    C      1     4.496620 A      4.496620 A       -3.011059E-16 a.u.
  |    C      0     4.496620 A      4.551928 A        2.873903E-17 a.u.
  |    C      2     4.551928 A      4.551928 A       -4.610785E-16 a.u.
  |    C      2     4.551928 A      4.551928 A        7.440584E-16 a.u.
  |    C      2     4.551928 A      4.551928 A       -7.110458E-16 a.u.
  |    C      2     4.551928 A      4.551928 A       -1.935424E-16 a.u.
  |    C      0     4.551928 A      4.607917 A        2.067142E-16 a.u.
  |    C      0     4.551928 A      4.607917 A       -1.109786E-16 a.u.
  |    C      1     4.551928 A      4.607917 A       -9.951742E-17 a.u.
  |    C      1     4.551928 A      4.607917 A        1.937809E-16 a.u.
  |    C      1     4.607917 A      4.607917 A       -2.813308E-16 a.u.
  |    C      1     4.607917 A      4.607917 A       -7.330363E-17 a.u.
  |    C      2     4.607917 A      4.607917 A        1.318462E-15 a.u.
  |    C      2     4.607917 A      4.607917 A       -1.318397E-15 a.u.
  |    C      0     4.607917 A      4.664595 A        3.157826E-16 a.u.
  |    C      1     4.607917 A      4.664595 A        7.356967E-16 a.u.
  |    C      4     3.835889 A  2.962973E+02 A            4.379483 a.u.
  |    C      3     4.127827 A  1.725964E+03 A            9.005588 a.u.
  |    C      2     4.607917 A  2.608475E+04 A            9.531178 a.u.
  |    C      1     4.607917 A  2.736013E+06 A            2.127278 a.u.
  |    C      0     4.607917 A  4.399765E+12 A            0.661635 a.u.

  | Shrink_full_auxil_basis : there are       36  radial auxiliary wave functions
                            accepted and       7 rejected.
  | Shrink_full_auxil_basis : there are totally                8992 partial auxiliary wave functions.
 
  | Maximal number of product basis functions per thread :   512   512
 
  | Minimal total memory requirement for three-center overlap :      72.476 Gbs
  | Number of local auxiliary basis functions on task:      0   512
  | Number of local auxiliary basis functions on task:      1   512
  | Number of local auxiliary basis functions on task:      2   512
  | Number of local auxiliary basis functions on task:      3   512
  | Number of local auxiliary basis functions on task:      4   496
  | Number of local auxiliary basis functions on task:      5   496
  | Number of local auxiliary basis functions on task:      6   496
  | Number of local auxiliary basis functions on task:      7   496
  | Number of local auxiliary basis functions on task:      8   496
  | Number of local auxiliary basis functions on task:      9   496
  | Number of local auxiliary basis functions on task:     10   496
  | Number of local auxiliary basis functions on task:     11   496
  | Number of local auxiliary basis functions on task:     12   496
  | Number of local auxiliary basis functions on task:     13   496
  | Number of local auxiliary basis functions on task:     14   496
  | Number of local auxiliary basis functions on task:     15   496
  | Number of local auxiliary basis functions on task:     16   496
  | Number of local auxiliary basis functions on task:     17   496
  | 2D aux task distribution:      3 X      6
  | 2D block size (nb_aux_2d):     64
 
  Basis pair condensation :   1037520  -->     554148
  Allocating        0.069 MB for t_coeff
  Allocating        0.034 MB for basbas_idx
  Allocating        0.069 MB for wave
  Allocating        0.069 MB for total_wave
  Allocating        0.206 MB for wave_gradient
  Allocating        0.206 MB for total_wave_grad
 HERE1
 HERE2
  Deallocating        0.069 MB for t_coeff
  Deallocating        0.034 MB for basbas_idx
  Deallocating        0.069 MB for wave
  Deallocating        0.206 MB for wave_gradient
  Deallocating        0.206 MB for total_wave_grad
dP_dE (Bohr^3) at every cycle:--->
 (994.377728230327,0.000000000000000E+000) (-4.52547181258836,0.000000000000000E+000) (-441.627312589684,0.000000000000000E+000)
 (-4.56626592306580,0.000000000000000E+000) (1347.01135056133,0.000000000000000E+000) (-2.98640470055608,0.000000000000000E+000)
 (-441.845557769810,0.000000000000000E+000) (-2.96442903887832,0.000000000000000E+000) (1697.91458970519,0.000000000000000E+000)
DFPT polarizability (Bohr^3)        xx        yy        zz        xy        xz        yz
  | Polarizability:--->                       994.377728230                 1347.011350561                 1697.914589705                   -4.525471813                 -441.627312590                   -2.986404701

DFPT for dielectric_constant:--->  # PARSE DFPT_dielectric_tensor
               2.349349366700439            -0.006140968719406            -0.599278843082130
              -0.006196325457168             2.827865670375544            -0.004052487477347
              -0.599574997136296            -0.004022666973201             3.304033880975510

                                               :  max(cpu_time)    wall_clock(cpu1)
  | Time for  dielectric calculation            :        0.000 s           0.000 s
===========================================================================

------------------------------------------------------------------------------
  Final output of selected total energy values:

  The following output summarizes some interesting total energy values
  at the end of a run (AFTER all relaxation, molecular dynamics, etc.).

  | Total energy of the DFT / Hartree-Fock s.c.f. calculation      :         -83267.546234143 eV
  | Final zero-broadening corrected energy (caution - metals only) :         -83267.546234143 eV
  | For reference only, the value of 1 Hartree used in FHI-aims is :             27.211384500 eV
  | For reference only, the overall average (free atom contribution
  | + realspace contribution) of the electrostatic potential after
  | s.c.f. convergence is                                          :             -7.698118126 eV

  Before relying on these values, please be sure to understand exactly which
  total energy value is referred to by a given number. Different objects may
  all carry the same name 'total energy'. Definitions:

  Total energy of the DFT / Hartree-Fock s.c.f. calculation:
  | Note that this energy does not include ANY quantities calculated after the
  | s.c.f. cycle, in particular not ANY RPA, MP2, etc. many-body perturbation terms.

  Final zero-broadening corrected energy:
  | For metallic systems only, a broadening of the occupation numbers at the Fermi
  | level can be extrapolated back to zero broadening by an electron-gas inspired
  | formula. For all systems that are not real metals, this value can be
  | meaningless and should be avoided.

------------------------------------------------------------------------------
  Methods described in the following list of references were used in this FHI-aims run.
  If you publish the results, please make sure to cite these reference if they apply.
  FHI-aims is an academic code, and for our developers (often, Ph.D. students
  and postdocs), scientific credit in the community is essential.
  Thank you for helping us!

  For any use of FHI-aims, please cite:

    Volker Blum, Ralf Gehrke, Felix Hanke, Paula Havu, Ville Havu,
    Xinguo Ren, Karsten Reuter, and Matthias Scheffler
    'Ab initio molecular simulations with numeric atom-centered orbitals'
    Computer Physics Communications 180, 2175-2196 (2009)
    http://doi.org/10.1016/j.cpc.2009.06.022


  For Hartree-Fock, hybrid functionals, or many-body perturbation theory used in your run, please cite:

    Xinguo Ren, Patrick Rinke, Volker Blum, Juergen Wieferink, Alex Tkatchenko,
    Andrea Sanfilippo, Karsten Reuter, and Matthias Scheffler,
    'Resolution-of-identity approach to Hartree-Fock, hybrid density functionals,
    RPA, MP2, and GW with numeric atom-centered orbital basis functions'
    New Journal of Physics 14, 053020 (2012).
    http://doi.org/10.1088/1367-2630/14/5/053020


  The provided symmetry information was generated with SPGlib:

    Atsushi Togo, Yusuke Seto, Dimitar Pashov
    SPGlib 1.7.3 obtained from http://spglib.sourceforge.net
    Copyright (C) 2008 Atsushi Togo


  The DFPT (perturbation by an electric field) part of the code was used.
  Here is the corresponding reference:

    Honghui Shang, Nathaniel Raimbault, Mariana Rossi,
    Christian Carbogno, Patrick Rinke and Matthias Scheffler,
    'All-Electron, Real-Space Perturbation Theory for Homogeneous
    Electric Fields: Theory, Implementation, and Application within dft'
    New Journal of Physics, 20(7):073040, 2018


  The ELSI infrastructure was used in your run to solve the Kohn-Sham electronic structure.
  Please check out http://elsi-interchange.org to learn more.
  If scalability is important for your project, please acknowledge ELSI by citing:

    V. W-z. Yu, F. Corsetti, A. Garcia, W. P. Huhn, M. Jacquelin, W. Jia,
    B. Lange, L. Lin, J. Lu, W. Mi, A. Seifitokaldani, A. Vazquez-Mayagoitia,
    C. Yang, H. Yang, and V. Blum
    'ELSI: A unified software interface for Kohn-Sham electronic structure solvers'
    Computer Physics Communications 222, 267-285 (2018).
    http://doi.org/10.1016/j.cpc.2017.09.007


  For the real-space grid partitioning and parallelization used in this calculation, please cite:

    Ville Havu, Volker Blum, Paula Havu, and Matthias Scheffler,
    'Efficient O(N) integration for all-electron electronic structure calculation'
    'using numerically tabulated basis functions'
    Journal of Computational Physics 228, 8367-8379 (2009).
    http://doi.org/10.1016/j.jcp.2009.08.008


  The high-level electronic structure method used in your calculation
  employed our efficient localized resolution of identity for the Coulomb operator.
  Some calculations, especially large-scale hybrid density functional theory,
  are only possible thanks to this development. For this feature, please cite:

    Arvid Ihrig, Juergen Wieferink, Igor Ying Zhang, Matti Ropo, Xinguo Ren,
    Patrick Rinke, Matthias Scheffler, and Volker Blum,
    'Accurate localized resolution of identity approach for linear-scaling
    hybrid density functionals and for many-body perturbation theory'
    New Journal of Physics 117, 093020 (2015).
    http://doi.org/10.1088/1367-2630/17/9/093020

  Of course, there are many other important community references, e.g., those cited in the
  above references. Our list is limited to references that describe implementations in the
  FHI-aims code. The reason is purely practical (length of this list) - please credit others as well.

------------------------------------------------------------
          Leaving FHI-aims.
          Date     :  20230120, Time     :  123120.061

          Computational steps:
          | Number of self-consistency cycles          :           46
          | Number of SCF (re)initializations          :            1
          | Number of coupled perturbed self-consistency cycles          :            0
          | Number of CPSCF (re)initializations          :            0

          Detailed time accounting                     :  max(cpu_time)    wall_clock(cpu1)
          | Total time                                  :     1590.193 s        1612.019 s
          | GPU initialization                          :        3.112 s          23.884 s
          | Preparation time                            :        0.072 s           0.069 s
          | Boundary condition initalization            :        0.975 s           0.975 s
          | Grid partitioning                           :        1.284 s           1.284 s
          | Preloading free-atom quantities on grid     :        4.242 s           4.243 s
          | Free-atom superposition energy              :        0.518 s           0.518 s
          | Total time for integrations                 :       23.264 s          23.383 s
          | Product basis setup: Total time             :        0.000 s           0.000 s
          | Product basis: | 2-center integrations     :(       0.000 s)  (       0.000 s)
          | Product basis: | LVL 3-center & coefficient:(       0.000 s)  (       0.000 s)
          | Total time for solution of K.-S. equations  :        3.864 s           3.866 s
          | Total time for density update               :       15.380 s          15.545 s
          | Total time for mixing & preconditioning     :       13.437 s          13.441 s
          | Total time for Hartree multipole update     :        0.094 s           0.093 s
          | Total time for Hartree multipole sum        :       45.524 s          45.539 s
          | Total time for total energy evaluation      :        0.008 s           0.001 s
          | Total time first_order_DM                   :        1.807 s           1.804 s
          | Total time first_order_density              :      307.616 s         307.638 s
          | Total time first_order_potential            :      115.789 s         115.821 s
          | Total time first_order_H                    :      585.360 s         585.504 s
          | Total time solving of Sternheimer equations :        1.793 s           1.793 s
          | Total time for dielectric constant          :        0.000 s           0.000 s
          | Total time momentum matrix                  :        0.000 s           0.000 s

          GPU acceleration has been used for charge density update.
          GPU acceleration has been used for real-space Hamiltonian integration.
          Due to GPU usage, wall_clock(cpu1) will give a more reliable estimate for timings.

          Partial memory accounting:
          | Residual value for overall tracked memory usage across tasks:     1.234863 MB (should be 0.000000 MB)
          |
          | Largest tracked array allocation:
          |   Minimum:      103.180 MB (DFPT_pulay_mixing::initialize_pulay_mixing::X_in_diffs on task  0)
          |   Maximum:      103.180 MB (DFPT_pulay_mixing::initialize_pulay_mixing::X_in_diffs on task  0)
          |   Average:      103.180 MB
          |
          | Because the residual tracked memory usage was not zero, the peak value for overall
          | tracked memory usage was not output, as it is probably incorrect.  This is likely due
          | to a missing aims_deallocate statement in the source code, which should be otherwise
          | harmless.
          |
          Note:  These values currently only include a subset of arrays which are explicitly tracked.
          The "true" memory usage will be greater.

          Have a nice day.
------------------------------------------------------------
