------------------------------------------------------------
          Invoking FHI-aims ...

          When using FHI-aims, please cite the following reference:

            Volker Blum, Ralf Gehrke, Felix Hanke, Paula Havu,
            Ville Havu, Xinguo Ren, Karsten Reuter, and Matthias Scheffler,
            'Ab Initio Molecular Simulations with Numeric Atom-Centered Orbitals',
            Computer Physics Communications 180, 2175-2196 (2009)

          In addition, many other developments in FHI-aims are likely important for
          your particular application. A partial list of references is given at the end of
          this file. Thank you for giving credit to the authors of these developments.

          For any questions about FHI-aims, please visit our slack channel at

            https://fhi-aims.slack.com

          and our main development and support site at

            https://aims-git.rz-berlin.mpg.de .

          The latter site, in particular, has a wiki to collect information, as well
          as an issue tracker to log discussions, suggest improvements, and report issues
          or bugs. https://aims-git.rz-berlin.mpg.de is also the main development site
          of the project and all new and updated code versions can be obtained there.
          Please send an email to aims-coordinators@fhi-berlin.mpg.de and we will add
          you to these sites. They are for you and everyone is welcome there.

------------------------------------------------------------



  Date     :  20230120, Time     :  172151.234
  Time zero on CPU 1             :   0.442386000000000E+00  s.
  Internal wall clock time zero  :           443467311.234  s.

  FHI-aims created a unique identifier for this run for later identification
  aims_uuid : F4639972-470B-4834-A504-4D7D32FD41F6

  Build configuration of the current instance of FHI-aims
  -------------------------------------------------------
  FHI-aims version      : 220829
  Commit number         : 9895fc21d
  CMake host system     : Linux-5.3.18-150300.59.68-default
  CMake version         : 3.17.0
  Fortran compiler      : /mpcdf/soft/SLE_15/packages/x86_64/intel_oneapi/2021.3/mpi/2021.3.0/bin/mpiifort (Intel) version 20.2.3.20210609
  Fortran compiler flags: -O3 -ip -fp-model precise
  C compiler            : /mpcdf/soft/SLE_15/packages/x86_64/intel/2021.3.0/bin/icc (Intel) version 20.2.3.20210609
  C compiler flags      : -O3 -ip -fp-model precise -std=gnu99
  CUDA compiler         : /mpcdf/soft/SLE_15/packages/x86_64/cuda/11.6.2/bin/nvcc
  CUDA compiler flags   : -O3 -DAdd_ -lcublas
  ELPA2 kernel          : AVX512
  Using MPI
  Using ScaLAPACK
  Using LibXC
  Using CUDA
  Using i-PI
  Using RLSY
  Linking against: /mpcdf/soft/SLE_15/packages/x86_64/cuda/11.6.2/lib64/libcublas.so
                   /mpcdf/soft/SLE_15/packages/x86_64/cuda/11.6.2/lib64/libcudart.so
                   /mpcdf/soft/SLE_15/packages/x86_64/intel_oneapi/2021.3/mkl/latest/lib/intel64/libmkl_intel_lp64.so
                   /mpcdf/soft/SLE_15/packages/x86_64/intel_oneapi/2021.3/mkl/latest/lib/intel64/libmkl_sequential.so
                   /mpcdf/soft/SLE_15/packages/x86_64/intel_oneapi/2021.3/mkl/latest/lib/intel64/libmkl_core.so
                   /mpcdf/soft/SLE_15/packages/x86_64/intel_oneapi/2021.3/mkl/latest/lib/intel64/libmkl_blacs_intelmpi_lp64.so
                   /mpcdf/soft/SLE_15/packages/x86_64/intel_oneapi/2021.3/mkl/latest/lib/intel64/libmkl_scalapack_lp64.so

  Using       18 parallel tasks.
  Task        0 on host adag004 reporting.
  Task        1 on host adag004 reporting.
  Task        2 on host adag004 reporting.
  Task        3 on host adag004 reporting.
  Task        4 on host adag004 reporting.
  Task        5 on host adag004 reporting.
  Task        6 on host adag004 reporting.
  Task        7 on host adag004 reporting.
  Task        8 on host adag004 reporting.
  Task        9 on host adag004 reporting.
  Task       10 on host adag004 reporting.
  Task       11 on host adag004 reporting.
  Task       12 on host adag004 reporting.
  Task       13 on host adag004 reporting.
  Task       14 on host adag004 reporting.
  Task       15 on host adag004 reporting.
  Task       16 on host adag004 reporting.
  Task       17 on host adag004 reporting.

  Performing system and environment tests:
  | Environment variable OMP_NUM_THREADS correctly set to 1.
  | Checking for ScaLAPACK...
  | Testing pdtran()...
  | All pdtran() tests passed.

  Obtaining array dimensions for all initial allocations:
  
  -----------------------------------------------------------------------
  Parsing control.in (first pass over file, find array dimensions only).
  The contents of control.in will be repeated verbatim below
  unless switched off by setting 'verbatim_writeout .false.' .
  in the first line of control.in .
  -----------------------------------------------------------------------
  
  #
  # Input for polarizability replays on generic oligoacene molecular crystals (light settings,  LDA+MBD).
  #
  #########################################################################################
  #
  #  Physical model
  #
    xc                 pw-lda
    spin               none
    relativistic       none
    charge             0.0
    k_grid 	     2 1 1
    DFPT dielectric
  #
  #  GPU acceleration
  #
  # Turns on GPU acceleration everywhere
    use_gpu
  
  # Turns OFF GPU acceleration of ELPA - may be necessary if GPU ELPA is slow
    elsi_elpa_gpu 0
  #
  #  Relaxation
  #
  #  relax_geometry trm 1E-3
  #  relax_unit_cell fixed_angles
  #
  #  SCF convergence        #
    charge_mix_param   0.75
    #sc_accuracy_rho 1E-4
  #
  # i-PI communication
  #
  compute_forces .false.
  # use_pimd_wrapper 130.183.223.27 26118
  #communicate_pimd_wrapper polarizability
  #output_level MD_light
  #
  # Output SALTED info
    ri_density_restart write
    ri_rho1 write
    ri_full_output .true.
  #  sc_accuracy_rho    1d-6
    default_prodbas_acc 1e-6
    default_max_l_prodbas 6
  #
  #
  ################################################################################
  #
  #  FHI-aims code project
  #  VB, Fritz-Haber Institut, 2009
  #
  #  Suggested "light" defaults for H atom (to be pasted into control.in file)
  #  Be sure to double-check any results obtained with these settings for post-processing,
  #  e.g., with the "tight" defaults and larger basis sets.
  #
  ################################################################################
    species        H
  #     global species definitions
      nucleus             1
      mass                1.00794
  #
      l_hartree           4
  #
      cut_pot             3.5  1.5  1.0
      basis_dep_cutoff    1e-4
  #
      radial_base         24 5.0
      radial_multiplier   1
      angular_grids       specified
        division   0.2421   50
        division   0.3822  110
        division   0.4799  194
        division   0.5341  302
  #      division   0.5626  434
  #      division   0.5922  590
  #      division   0.6542  770
  #      division   0.6868 1202
  #      outer_grid  770
        outer_grid  302
  ################################################################################
  #
  #  Definition of "minimal" basis
  #
  ################################################################################
  #     valence basis states
      valence      1  s   1.
  #     ion occupancy
      ion_occ      1  s   0.5
  ################################################################################
  #
  #  Suggested additional basis functions. For production calculations,
  #  uncomment them one after another (the most important basis functions are
  #  listed first).
  #
  #  Basis constructed for dimers: 0.5 A, 0.7 A, 1.0 A, 1.5 A, 2.5 A
  #
  ################################################################################
  #  "First tier" - improvements: -1014.90 meV to -62.69 meV
       hydro 2 s 2.1
       hydro 2 p 3.5
  #  "Second tier" - improvements: -12.89 meV to -1.83 meV
  #     hydro 1 s 0.85
  #     hydro 2 p 3.7
  #     hydro 2 s 1.2
  #     hydro 3 d 7
  #  "Third tier" - improvements: -0.25 meV to -0.12 meV
  #     hydro 4 f 11.2
  #     hydro 3 p 4.8
  #     hydro 4 d 9
  #     hydro 3 s 3.2
  ################################################################################
  ################################################################################
  #
  #  FHI-aims code project
  #  VB, Fritz-Haber Institut, 2009
  #
  #  Suggested "light" defaults for C atom (to be pasted into control.in file)
  #  Be sure to double-check any results obtained with these settings for post-processing,
  #  e.g., with the "tight" defaults and larger basis sets.
  #
  ################################################################################
    species        C
  #     global species definitions
      nucleus             6
      mass                12.0107
  #
      l_hartree           4
  #
      cut_pot             3.5  1.5  1.0
      basis_dep_cutoff    1e-4
  #
      radial_base         34 5.0
      radial_multiplier   1
      angular_grids specified
        division   0.3326   50
        division   0.5710  110
        division   0.7727  194
        division   0.8772  302
  #      division   0.9334  434
  #      division   0.9625  590
  #      division   0.9924  770
  #      division   1.0230  974
  #      division   1.4589 1202
  #     outer_grid  974
       outer_grid 302
  ################################################################################
  #
  #  Definition of "minimal" basis
  #
  ################################################################################
  #     valence basis states
      valence      2  s   2.
      valence      2  p   2.
  #     ion occupancy
      ion_occ      2  s   1.
      ion_occ      2  p   1.
  ################################################################################
  #
  #  Suggested additional basis functions. For production calculations,
  #  uncomment them one after another (the most important basis functions are
  #  listed first).
  #
  #  Constructed for dimers: 1.0 A, 1.25 A, 1.5 A, 2.0 A, 3.0 A
  #
  ################################################################################
  #  "First tier" - improvements: -1214.57 meV to -155.61 meV
       hydro 2 p 1.7
       hydro 3 d 6
       hydro 2 s 4.9
  #  "Second tier" - improvements: -67.75 meV to -5.23 meV
  #     hydro 4 f 9.8
  #     hydro 3 p 5.2
  #     hydro 3 s 4.3
  #     hydro 5 g 14.4
  #     hydro 3 d 6.2
  #  "Third tier" - improvements: -2.43 meV to -0.60 meV
  #     hydro 2 p 5.6
  #     hydro 2 s 1.4
  #     hydro 3 d 4.9
  #     hydro 4 f 11.2
  #  "Fourth tier" - improvements: -0.39 meV to -0.18 meV
  #     hydro 2 p 2.1
  #     hydro 5 g 16.4
  #     hydro 4 d 13.2
  #     hydro 3 s 13.6
  #     hydro 4 f 17.6
  #  Further basis functions - improvements: -0.08 meV and below
  #     hydro 3 s 2
  #     hydro 3 p 6
  #     hydro 4 d 20
  
  -----------------------------------------------------------------------
  Completed first pass over input file control.in .
  -----------------------------------------------------------------------
  
  
  -----------------------------------------------------------------------
  Parsing geometry.in (first pass over file, find array dimensions only).
  The contents of geometry.in will be repeated verbatim below
  unless switched off by setting 'verbatim_writeout .false.' .
  in the first line of geometry.in .
  -----------------------------------------------------------------------
  
  #=======================================================
  # FHI-aims file: /ada/ptmp/mpsd/alewis/naphthalene/qmdata/data/geoms/277.in
  # Created using the Atomic Simulation Environment (ASE)
  # Thu Jan 19 15:19:17 2023
  #=======================================================
  lattice_vector 8.1020000000000003 0.0000000000000000 0.0000000000000000
  lattice_vector 0.0000000000000000 11.8800000000000008 0.0000000000000000
  lattice_vector -9.7850918486534706 0.0000000000000000 14.2571119625755713
  atom -0.6696110000000000 0.0782495000000000 2.4383499999999998 C
  atom 0.1823170000000000 3.1124600000000000 4.7826599999999999 C
  atom 4.2282000000000002 5.8286199999999999 4.7868599999999999 C
  atom 3.2687499999999998 2.9257900000000001 2.4947100000000000 C
  atom 0.0195238000000000 0.9871650000000000 1.6716599999999999 C
  atom -0.5941660000000000 3.9907400000000002 5.5333399999999999 C
  atom 3.4124900000000000 4.9930399999999997 5.5165499999999996 C
  atom 4.0763999999999996 2.0785900000000002 1.7777700000000001 C
  atom 0.3228800000000000 0.6988460000000000 0.3090640000000000 C
  atom -0.9935250000000000 3.6104400000000001 6.8442400000000001 C
  atom 3.0161199999999999 5.2874200000000000 6.8451899999999997 C
  atom 4.4061300000000001 2.3983900000000000 0.4571280000000000 C
  atom -3.7955100000000002 1.5901700000000001 6.7177800000000003 C
  atom 3.2303299999999999 4.5413199999999998 0.7012500000000000 C
  atom 7.2548199999999996 4.4256300000000000 0.6082560000000000 C
  atom 0.1769440000000000 1.4885200000000001 6.5860300000000001 C
  atom -3.4048300000000000 1.2650999999999999 5.4312800000000001 C
  atom 2.8209499999999998 4.1467499999999999 1.9502900000000001 C
  atom 6.7737699999999998 4.7867699999999997 1.8492400000000000 C
  atom 0.6077870000000000 1.8518699999999999 5.3144099999999996 C
  atom -0.8428250000000000 0.3046170000000000 3.5163199999999999 H
  atom 0.4093700000000000 3.4558100000000000 3.7655799999999999 H
  atom 4.5649100000000002 5.5761300000000000 3.7594500000000002 H
  atom 2.9976200000000000 2.6942900000000001 3.5405300000000000 H
  atom 0.2902990000000000 1.9215199999999999 2.1104900000000000 H
  atom -0.9304789999999999 4.9658499999999997 5.1203399999999997 H
  atom 3.0200900000000002 4.0918000000000001 5.0395200000000004 H
  atom 4.3371500000000003 1.1409400000000001 2.2424800000000000 H
  atom -3.4275899999999999 2.5023000000000000 7.2104900000000001 H
  atom 2.8214899999999998 5.4812599999999998 0.2981770000000000 H
  atom 7.0314399999999999 3.4466100000000002 0.2024060000000000 H
  atom 0.5269170000000000 0.5785090000000001 7.0747499999999999 H
  atom -2.7131200000000000 1.9127600000000000 4.9504200000000003 H
  atom 2.1380300000000001 4.7732999999999999 2.5466600000000001 H
  atom 6.1392899999999999 4.0865799999999997 2.4050099999999999 H
  atom 1.1800700000000000 1.1536900000000001 4.7048199999999998 H
  atom -5.8318199999999996 0.1024420000000000 9.4939199999999992 C
  atom -4.7328700000000001 3.0367500000000001 12.0619999999999994 C
  atom -0.5388930000000000 5.7441100000000000 12.0214999999999996 C
  atom -1.7784700000000000 2.8458299999999999 9.4601199999999999 C
  atom -5.0318600000000000 0.9886690000000000 8.8060399999999994 C
  atom -5.4544300000000003 3.9447700000000001 12.8234999999999992 C
  atom -1.3462300000000000 4.9087600000000000 12.7805999999999997 C
  atom -1.0082300000000000 2.0213399999999999 8.7045800000000000 C
  atom -4.6129199999999999 0.6840450000000000 7.4753400000000001 C
  atom -5.7943699999999998 3.6673399999999998 14.1824999999999992 C
  atom -1.7800700000000000 5.3024300000000002 14.0442999999999998 C
  atom -0.5993420000000000 2.3403499999999999 7.3772700000000002 C
  atom -8.7851599999999994 1.6190899999999999 13.7172999999999998 C
  atom -1.7576099999999999 4.4578100000000003 7.6966500000000000 C
  atom 2.2478799999999999 4.3510299999999997 7.5964600000000004 C
  atom -4.6359100000000000 1.4897199999999999 13.8956000000000000 C
  atom -8.4325899999999994 1.2559700000000000 12.4240999999999993 C
  atom -2.1412499999999999 4.1125999999999996 8.9863400000000002 C
  atom 1.8778900000000001 4.6588300000000000 8.8967799999999997 C
  atom -4.3212500000000000 1.7897500000000000 12.5769000000000002 C
  atom -6.1627500000000000 0.3500760000000000 10.4909999999999997 H
  atom -4.4659800000000001 3.2722699999999998 11.0382999999999996 H
  atom -0.0935681000000000 5.3977399999999998 11.0993999999999993 H
  atom -2.0369199999999998 2.4706500000000000 10.4380000000000006 H
  atom -4.7239500000000003 1.9399700000000000 9.2509099999999993 H
  atom -5.6581999999999999 4.8956000000000000 12.3846000000000007 H
  atom -1.5525500000000001 3.8566699999999998 12.4982000000000006 H
  atom -0.7063120000000001 1.0592999999999999 9.0943799999999992 H
  atom -8.4021299999999997 2.5223000000000000 14.1846999999999994 H
  atom -2.1649300000000000 5.4040699999999999 7.3195600000000001 H
  atom 1.9576899999999999 3.4120900000000001 7.1212000000000000 H
  atom -4.3906200000000002 0.4865200000000000 14.2942999999999998 H
  atom -7.8731900000000001 1.9665999999999999 11.7951999999999995 H
  atom -2.7454499999999999 4.8302699999999996 9.5538399999999992 H
  atom 1.2117700000000000 3.9723099999999998 9.4029199999999999 H
  atom -3.8297400000000001 1.0514600000000001 11.9658999999999995 H
  atom -0.9374890000000000 6.0632400000000004 2.4184800000000002 C
  atom 0.2141410000000000 8.8853000000000009 4.9143299999999996 C
  atom 4.2956099999999999 11.9015000000000004 4.8335400000000002 C
  atom 3.3367599999999999 8.9272100000000005 2.3642799999999999 C
  atom -0.2168170000000000 6.9333999999999998 1.6204600000000000 C
  atom -0.6020820000000000 9.7330699999999997 5.6369800000000003 C
  atom 3.5147699999999999 11.0076999999999998 5.5525700000000002 C
  atom 4.0392900000000003 7.9956399999999999 1.6394299999999999 C
  atom 0.2321510000000000 6.5948500000000001 0.3165210000000000 C
  atom -1.0115300000000000 9.3742000000000001 6.9448400000000001 C
  atom 3.1118199999999998 11.3207000000000004 6.8634100000000000 C
  atom 4.4340000000000002 8.3051700000000004 0.3153270000000000 C
  atom -3.8376899999999998 7.3547099999999999 6.6525900000000000 C
  atom 3.3076400000000001 10.4985999999999997 0.5390250000000000 C
  atom 7.3105799999999999 10.3751999999999995 0.5895290000000000 C
  atom 0.2484900000000000 7.2731800000000000 6.7277100000000001 C
  atom -3.4246200000000000 7.0398600000000000 5.3914000000000000 C
  atom 2.9228700000000001 10.1559000000000008 1.8101799999999999 C
  atom 7.0298900000000000 10.6920000000000002 1.8875400000000000 C
  atom 0.6097650000000000 7.6325300000000000 5.4373500000000003 C
  atom -1.2279599999999999 6.3402000000000003 3.4594999999999998 H
  atom 0.4185210000000000 9.1442899999999998 3.8712900000000001 H
  atom 4.5924699999999996 11.6885999999999992 3.7995700000000001 H
  atom 3.0542199999999999 8.6410800000000005 3.4071500000000001 H
  atom 0.0781708000000000 7.9134799999999998 1.9947900000000001 H
  atom -0.9697550000000000 10.6669999999999998 5.1741500000000000 H
  atom 3.2679499999999999 10.0353999999999992 5.0900600000000003 H
  atom 4.3959900000000003 7.0701599999999996 2.0690900000000001 H
  atom -3.5672500000000000 8.2894900000000007 7.1248699999999996 H
  atom 2.9536699999999998 11.4063999999999997 0.0561408000000000 H
  atom 7.0707199999999997 9.3855400000000007 0.2030330000000000 H
  atom 0.5756850000000000 6.3363899999999997 7.1480399999999999 H
  atom -2.7351100000000002 7.7568299999999999 4.9078999999999997 H
  atom 2.3146800000000001 10.8318999999999992 2.4098099999999998 H
  atom 6.5785200000000001 9.9383300000000006 2.5388600000000001 H
  atom 1.2562500000000001 6.9512499999999999 4.8403900000000002 H
  atom -5.8391799999999998 5.8647900000000002 9.4451999999999998 C
  atom -4.6103199999999998 8.9765599999999992 11.9481000000000002 C
  atom -0.7360380000000000 11.9327000000000005 11.8626000000000005 C
  atom -1.6685300000000001 8.7668199999999992 9.6220400000000001 C
  atom -5.0293700000000001 6.7701399999999996 8.7843699999999991 C
  atom -5.3394800000000000 9.8846500000000006 12.6877999999999993 C
  atom -1.5125800000000000 11.0686999999999998 12.6096000000000004 C
  atom -0.8494380000000000 7.9243300000000003 8.8817699999999995 C
  atom -4.6335699999999997 6.5161300000000004 7.4507599999999998 C
  atom -5.7316399999999996 9.5606200000000001 14.0401000000000007 C
  atom -1.8131900000000001 11.3274000000000008 13.9918999999999993 C
  atom -0.5289600000000000 8.1553199999999997 7.5153499999999998 C
  atom -8.8120799999999999 7.4970999999999997 13.7184000000000008 C
  atom -1.8198099999999999 10.2378999999999998 7.7083700000000004 C
  atom 2.3393199999999998 10.3942999999999994 7.6364299999999998 C
  atom -4.5762299999999998 7.4054799999999998 13.8046000000000006 C
  atom -8.3728499999999997 7.0835699999999999 12.4593000000000007 C
  atom -2.1116799999999998 9.9841899999999999 9.0478500000000004 C
  atom 1.9034100000000000 10.7530000000000001 8.9059500000000007 C
  atom -4.2049200000000004 7.7397299999999998 12.5024999999999995 C
  atom -6.2067399999999999 6.1216200000000001 10.4773999999999994 H
  atom -4.3447199999999997 9.1922899999999998 10.9289000000000005 H
  atom -0.4753010000000000 11.6367999999999991 10.8651000000000000 H
  atom -1.9240600000000001 8.5263299999999997 10.6532999999999998 H
  atom -4.7619199999999999 7.7286200000000003 9.2881300000000007 H
  atom -5.6402200000000002 10.8396000000000008 12.2803000000000004 H
  atom -1.7829500000000000 10.0729000000000006 12.2004000000000001 H
  atom -0.4344350000000000 7.0326899999999997 9.3565699999999996 H
  atom -8.5640400000000003 8.5098500000000001 14.1096000000000004 H
  atom -2.1312600000000002 11.1926000000000005 7.2655300000000000 H
  atom 2.0324300000000002 9.5083000000000002 7.1020899999999996 H
  atom -4.3338900000000002 6.4109800000000003 14.1745999999999999 H
  atom -7.7956300000000001 7.7567700000000004 11.7952999999999992 H
  atom -2.7568800000000002 10.6555999999999997 9.5980699999999999 H
  atom 1.2401000000000000 10.0754000000000001 9.4647299999999994 H
  atom -3.7695400000000001 6.9427199999999996 11.9388000000000005 H
  
  -----------------------------------------------------------------------
  Completed first pass over input file geometry.in .
  -----------------------------------------------------------------------
  

  Basic array size parameters:
  | Number of species                 :        2
  | Number of atoms                   :      144
  | Number of lattice vectors         :        3
  | Max. basis fn. angular momentum   :        2
  | Max. atomic/ionic basis occupied n:        2
  | Max. number of basis fn. types    :        2
  | Max. radial fns per species/type  :        3
  | Max. logarithmic grid size        :     1277
  | Max. radial integration grid size :       34
  | Max. angular integration grid size:      302
  | Max. angular grid division number :        8
  | Radial grid for Hartree potential :     1277
  | Number of spin channels           :        1

------------------------------------------------------------
          Reading file control.in.
------------------------------------------------------------
  XC: Using Perdew-Wang parametrisation of Ceperley-Alder LDA.
  Spin treatment: No spin polarisation.
  Non-relativistic treatment of kinetic energy.
  Charge =   0.000000E+00: Neutral system requested explicitly.
  Found k-point grid:         2         1         1
  DFPT calculation will begin after the DFT/HF calculation.
  Charge density mixing - mixing parameter:     0.7500
  Forces will not be computed.
 
  Reading configuration options for species H                   .
  | Found nuclear charge :   1.0000
  | Found atomic mass :    1.00794000000000      amu
  | Found l_max for Hartree potential  :   4
  | Found cutoff potl. onset [A], width [A], scale factor :    3.50000    1.50000    1.00000
  | Threshold for basis-dependent cutoff potential is   0.100000E-03
  | Found data for basic radial integration grid :    24 points, outermost radius =    5.000 A
  | Found multiplier for basic radial grid :   1
  | Found angular grid specification: user-specified.
  | Specified grid contains     5 separate shells.
  | Check grid settings after all constraints further below.
  | Found free-atom valence shell :  1 s   1.000
  | No ionic wave fns used. Skipping ion_occ.
  | Found hydrogenic basis function :  2 s   2.100
  | Found hydrogenic basis function :  2 p   3.500
  Species H                   : Missing cutoff potential type.
  Defaulting to exp(1/x)/(1-x)^2 type cutoff potential.
  Species H : No 'logarithmic' tag. Using default grid for free atom:
  | Default logarithmic grid data [bohr] : 0.1000E-03 0.1000E+03 0.1012E+01
  Species H : On-site basis accuracy parameter (for Gram-Schmidt orthonormalisation) not specified.
  Using default value basis_acc =  0.1000000E-03.
  Species H                   : Using default innermost maximum threshold i_radial=  2 for radial functions.
  Species H                   : Default cutoff onset for free atom density etc. : 0.35000000E+01 AA.
  Species H                   : Basic radial grid will be enhanced according to radial_multiplier =   1, to contain    24 grid points.
 
  Reading configuration options for species C                   .
  | Found nuclear charge :   6.0000
  | Found atomic mass :    12.0107000000000      amu
  | Found l_max for Hartree potential  :   4
  | Found cutoff potl. onset [A], width [A], scale factor :    3.50000    1.50000    1.00000
  | Threshold for basis-dependent cutoff potential is   0.100000E-03
  | Found data for basic radial integration grid :    34 points, outermost radius =    5.000 A
  | Found multiplier for basic radial grid :   1
  | Found angular grid specification: user-specified.
  | Specified grid contains     5 separate shells.
  | Check grid settings after all constraints further below.
  | Found free-atom valence shell :  2 s   2.000
  | Found free-atom valence shell :  2 p   2.000
  | No ionic wave fns used. Skipping ion_occ.
  | No ionic wave fns used. Skipping ion_occ.
  | Found hydrogenic basis function :  2 p   1.700
  | Found hydrogenic basis function :  3 d   6.000
  | Found hydrogenic basis function :  2 s   4.900
  Species C                   : Missing cutoff potential type.
  Defaulting to exp(1/x)/(1-x)^2 type cutoff potential.
  Species C : No 'logarithmic' tag. Using default grid for free atom:
  | Default logarithmic grid data [bohr] : 0.1000E-03 0.1000E+03 0.1012E+01
  Species C : On-site basis accuracy parameter (for Gram-Schmidt orthonormalisation) not specified.
  Using default value basis_acc =  0.1000000E-03.
  Species C                   : Using default innermost maximum threshold i_radial=  2 for radial functions.
  Species C                   : Default cutoff onset for free atom density etc. : 0.35000000E+01 AA.
  Species C                   : Basic radial grid will be enhanced according to radial_multiplier =   1, to contain    34 grid points.
 
  Finished reading input file 'control.in'.
 
------------------------------------------------------------


------------------------------------------------------------
          Reading geometry description geometry.in.
------------------------------------------------------------
  | The smallest distance between any two atoms is         1.06261589 AA.
  | The first atom of this pair is atom number                     17 .
  | The second atom of this pair is atom number                    33 .
  | Wigner-Seitz cell of the first atom image           0     0     0 .
  | (The Wigner-Seitz cell of the second atom is 0 0 0  by definition.)

  Symmetry information by spglib:
  | Precision set to  0.1E-04
  | Number of Operations  : 1
  | Space group           : 1
  | International         : P1
  | Schoenflies           : C1^1
  Input structure read successfully.
  The structure contains      144 atoms,  and a total of        544.000 electrons.

  Input geometry:
  | Unit cell:
  |        8.10200000        0.00000000        0.00000000
  |        0.00000000       11.88000000        0.00000000
  |       -9.78509185        0.00000000       14.25711196
  | Atomic structure:
  |       Atom                x [A]            y [A]            z [A]
  |    1: Species C            -0.66961100        0.07824950        2.43835000
  |    2: Species C             0.18231700        3.11246000        4.78266000
  |    3: Species C             4.22820000        5.82862000        4.78686000
  |    4: Species C             3.26875000        2.92579000        2.49471000
  |    5: Species C             0.01952380        0.98716500        1.67166000
  |    6: Species C            -0.59416600        3.99074000        5.53334000
  |    7: Species C             3.41249000        4.99304000        5.51655000
  |    8: Species C             4.07640000        2.07859000        1.77777000
  |    9: Species C             0.32288000        0.69884600        0.30906400
  |   10: Species C            -0.99352500        3.61044000        6.84424000
  |   11: Species C             3.01612000        5.28742000        6.84519000
  |   12: Species C             4.40613000        2.39839000        0.45712800
  |   13: Species C            -3.79551000        1.59017000        6.71778000
  |   14: Species C             3.23033000        4.54132000        0.70125000
  |   15: Species C             7.25482000        4.42563000        0.60825600
  |   16: Species C             0.17694400        1.48852000        6.58603000
  |   17: Species C            -3.40483000        1.26510000        5.43128000
  |   18: Species C             2.82095000        4.14675000        1.95029000
  |   19: Species C             6.77377000        4.78677000        1.84924000
  |   20: Species C             0.60778700        1.85187000        5.31441000
  |   21: Species H            -0.84282500        0.30461700        3.51632000
  |   22: Species H             0.40937000        3.45581000        3.76558000
  |   23: Species H             4.56491000        5.57613000        3.75945000
  |   24: Species H             2.99762000        2.69429000        3.54053000
  |   25: Species H             0.29029900        1.92152000        2.11049000
  |   26: Species H            -0.93047900        4.96585000        5.12034000
  |   27: Species H             3.02009000        4.09180000        5.03952000
  |   28: Species H             4.33715000        1.14094000        2.24248000
  |   29: Species H            -3.42759000        2.50230000        7.21049000
  |   30: Species H             2.82149000        5.48126000        0.29817700
  |   31: Species H             7.03144000        3.44661000        0.20240600
  |   32: Species H             0.52691700        0.57850900        7.07475000
  |   33: Species H            -2.71312000        1.91276000        4.95042000
  |   34: Species H             2.13803000        4.77330000        2.54666000
  |   35: Species H             6.13929000        4.08658000        2.40501000
  |   36: Species H             1.18007000        1.15369000        4.70482000
  |   37: Species C            -5.83182000        0.10244200        9.49392000
  |   38: Species C            -4.73287000        3.03675000       12.06200000
  |   39: Species C            -0.53889300        5.74411000       12.02150000
  |   40: Species C            -1.77847000        2.84583000        9.46012000
  |   41: Species C            -5.03186000        0.98866900        8.80604000
  |   42: Species C            -5.45443000        3.94477000       12.82350000
  |   43: Species C            -1.34623000        4.90876000       12.78060000
  |   44: Species C            -1.00823000        2.02134000        8.70458000
  |   45: Species C            -4.61292000        0.68404500        7.47534000
  |   46: Species C            -5.79437000        3.66734000       14.18250000
  |   47: Species C            -1.78007000        5.30243000       14.04430000
  |   48: Species C            -0.59934200        2.34035000        7.37727000
  |   49: Species C            -8.78516000        1.61909000       13.71730000
  |   50: Species C            -1.75761000        4.45781000        7.69665000
  |   51: Species C             2.24788000        4.35103000        7.59646000
  |   52: Species C            -4.63591000        1.48972000       13.89560000
  |   53: Species C            -8.43259000        1.25597000       12.42410000
  |   54: Species C            -2.14125000        4.11260000        8.98634000
  |   55: Species C             1.87789000        4.65883000        8.89678000
  |   56: Species C            -4.32125000        1.78975000       12.57690000
  |   57: Species H            -6.16275000        0.35007600       10.49100000
  |   58: Species H            -4.46598000        3.27227000       11.03830000
  |   59: Species H            -0.09356810        5.39774000       11.09940000
  |   60: Species H            -2.03692000        2.47065000       10.43800000
  |   61: Species H            -4.72395000        1.93997000        9.25091000
  |   62: Species H            -5.65820000        4.89560000       12.38460000
  |   63: Species H            -1.55255000        3.85667000       12.49820000
  |   64: Species H            -0.70631200        1.05930000        9.09438000
  |   65: Species H            -8.40213000        2.52230000       14.18470000
  |   66: Species H            -2.16493000        5.40407000        7.31956000
  |   67: Species H             1.95769000        3.41209000        7.12120000
  |   68: Species H            -4.39062000        0.48652000       14.29430000
  |   69: Species H            -7.87319000        1.96660000       11.79520000
  |   70: Species H            -2.74545000        4.83027000        9.55384000
  |   71: Species H             1.21177000        3.97231000        9.40292000
  |   72: Species H            -3.82974000        1.05146000       11.96590000
  |   73: Species C            -0.93748900        6.06324000        2.41848000
  |   74: Species C             0.21414100        8.88530000        4.91433000
  |   75: Species C             4.29561000       11.90150000        4.83354000
  |   76: Species C             3.33676000        8.92721000        2.36428000
  |   77: Species C            -0.21681700        6.93340000        1.62046000
  |   78: Species C            -0.60208200        9.73307000        5.63698000
  |   79: Species C             3.51477000       11.00770000        5.55257000
  |   80: Species C             4.03929000        7.99564000        1.63943000
  |   81: Species C             0.23215100        6.59485000        0.31652100
  |   82: Species C            -1.01153000        9.37420000        6.94484000
  |   83: Species C             3.11182000       11.32070000        6.86341000
  |   84: Species C             4.43400000        8.30517000        0.31532700
  |   85: Species C            -3.83769000        7.35471000        6.65259000
  |   86: Species C             3.30764000       10.49860000        0.53902500
  |   87: Species C             7.31058000       10.37520000        0.58952900
  |   88: Species C             0.24849000        7.27318000        6.72771000
  |   89: Species C            -3.42462000        7.03986000        5.39140000
  |   90: Species C             2.92287000       10.15590000        1.81018000
  |   91: Species C             7.02989000       10.69200000        1.88754000
  |   92: Species C             0.60976500        7.63253000        5.43735000
  |   93: Species H            -1.22796000        6.34020000        3.45950000
  |   94: Species H             0.41852100        9.14429000        3.87129000
  |   95: Species H             4.59247000       11.68860000        3.79957000
  |   96: Species H             3.05422000        8.64108000        3.40715000
  |   97: Species H             0.07817080        7.91348000        1.99479000
  |   98: Species H            -0.96975500       10.66700000        5.17415000
  |   99: Species H             3.26795000       10.03540000        5.09006000
  |  100: Species H             4.39599000        7.07016000        2.06909000
  |  101: Species H            -3.56725000        8.28949000        7.12487000
  |  102: Species H             2.95367000       11.40640000        0.05614080
  |  103: Species H             7.07072000        9.38554000        0.20303300
  |  104: Species H             0.57568500        6.33639000        7.14804000
  |  105: Species H            -2.73511000        7.75683000        4.90790000
  |  106: Species H             2.31468000       10.83190000        2.40981000
  |  107: Species H             6.57852000        9.93833000        2.53886000
  |  108: Species H             1.25625000        6.95125000        4.84039000
  |  109: Species C            -5.83918000        5.86479000        9.44520000
  |  110: Species C            -4.61032000        8.97656000       11.94810000
  |  111: Species C            -0.73603800       11.93270000       11.86260000
  |  112: Species C            -1.66853000        8.76682000        9.62204000
  |  113: Species C            -5.02937000        6.77014000        8.78437000
  |  114: Species C            -5.33948000        9.88465000       12.68780000
  |  115: Species C            -1.51258000       11.06870000       12.60960000
  |  116: Species C            -0.84943800        7.92433000        8.88177000
  |  117: Species C            -4.63357000        6.51613000        7.45076000
  |  118: Species C            -5.73164000        9.56062000       14.04010000
  |  119: Species C            -1.81319000       11.32740000       13.99190000
  |  120: Species C            -0.52896000        8.15532000        7.51535000
  |  121: Species C            -8.81208000        7.49710000       13.71840000
  |  122: Species C            -1.81981000       10.23790000        7.70837000
  |  123: Species C             2.33932000       10.39430000        7.63643000
  |  124: Species C            -4.57623000        7.40548000       13.80460000
  |  125: Species C            -8.37285000        7.08357000       12.45930000
  |  126: Species C            -2.11168000        9.98419000        9.04785000
  |  127: Species C             1.90341000       10.75300000        8.90595000
  |  128: Species C            -4.20492000        7.73973000       12.50250000
  |  129: Species H            -6.20674000        6.12162000       10.47740000
  |  130: Species H            -4.34472000        9.19229000       10.92890000
  |  131: Species H            -0.47530100       11.63680000       10.86510000
  |  132: Species H            -1.92406000        8.52633000       10.65330000
  |  133: Species H            -4.76192000        7.72862000        9.28813000
  |  134: Species H            -5.64022000       10.83960000       12.28030000
  |  135: Species H            -1.78295000       10.07290000       12.20040000
  |  136: Species H            -0.43443500        7.03269000        9.35657000
  |  137: Species H            -8.56404000        8.50985000       14.10960000
  |  138: Species H            -2.13126000       11.19260000        7.26553000
  |  139: Species H             2.03243000        9.50830000        7.10209000
  |  140: Species H            -4.33389000        6.41098000       14.17460000
  |  141: Species H            -7.79563000        7.75677000       11.79530000
  |  142: Species H            -2.75688000       10.65560000        9.59807000
  |  143: Species H             1.24010000       10.07540000        9.46473000
  |  144: Species H            -3.76954000        6.94272000       11.93880000

  Lattice parameters for 3D lattice (in Angstroms) :     8.102000   11.880000   17.292000
  Angle(s) between unit vectors (in degrees)       :    90.000000  124.463000   90.000000


  Quantities derived from the lattice vectors (in Angstrom^-1):
  | Reciprocal lattice vector 1:  0.775510  0.000000  0.532257
  | Reciprocal lattice vector 2:  0.000000  0.528888  0.000000
  | Reciprocal lattice vector 3: -0.000000  0.000000  0.440705
  | Unit cell volume                               :   0.137227E+04  Angstrom^3

  Fractional coordinates:
                         L1                L2                L3
       atom_frac         0.12390807        0.00658666        0.17102692  C
       atom_frac         0.42764784        0.26199158        0.33545784  C
       atom_frac         0.92737205        0.49062458        0.33575243  C
       atom_frac         0.61477978        0.24627862        0.17498004  C
       atom_frac         0.14401816        0.08309470        0.11725096  C
       atom_frac         0.39540045        0.33592088        0.38811086  C
       atom_frac         0.88850493        0.42028956        0.38693320  C
       atom_frac         0.65373215        0.17496549        0.12469356  C
       atom_frac         0.06603309        0.05882542        0.02167788  C
       atom_frac         0.45715702        0.30390909        0.48005795  C
       atom_frac         0.95213320        0.44506902        0.48012459  C
       atom_frac         0.58255627        0.20188468        0.03206316  C
       atom_frac         0.10060575        0.13385269        0.47118799  C
       atom_frac         0.45811149        0.38226599        0.04918598  C
       atom_frac         0.94696182        0.37252778        0.04266334  C
       atom_frac         0.57975040        0.12529630        0.46194699  C
       atom_frac         0.03984492        0.10648990        0.38095233  C
       atom_frac         0.51339097        0.34905303        0.13679418  C
       atom_frac         0.99271290        0.40292677        0.12970649  C
       atom_frac         0.52520724        0.15588131        0.37275502  C
       atom_frac         0.19384509        0.02564116        0.24663621  H
       atom_frac         0.36951403        0.29089310        0.26411941  H
       atom_frac         0.88189774        0.46937121        0.26368945  H
       atom_frac         0.66990792        0.22679209        0.24833431  H
       atom_frac         0.21461279        0.16174411        0.14803068  H
       atom_frac         0.31890483        0.41800084        0.35914286  H
       atom_frac         0.79966263        0.34442761        0.35347411  H
       atom_frac         0.72528173        0.09603872        0.15728852  H
       atom_frac         0.18775484        0.21063131        0.50574689  H
       atom_frac         0.37350506        0.46138552        0.02091426  H
       atom_frac         0.88501079        0.29011869        0.01419684  H
       atom_frac         0.66434636        0.04869604        0.49622603  H
       atom_frac         0.08448588        0.16100673        0.34722460  H
       atom_frac         0.47961992        0.40179293        0.17862383  H
       atom_frac         0.96148135        0.34398822        0.16868844  H
       atom_frac         0.54420289        0.09711195        0.32999811  H
       atom_frac         0.08444181        0.00862306        0.66590766  C
       atom_frac         0.43762644        0.25561869        0.84603390  C
       atom_frac         0.95184276        0.48351094        0.84319321  C
       atom_frac         0.58186862        0.23954798        0.66353691  C
       atom_frac         0.12490675        0.08322130        0.61765945  C
       atom_frac         0.41307457        0.33205135        0.89944584  C
       atom_frac         0.91650044        0.41319529        0.89643681  C
       atom_frac         0.61293377        0.17014646        0.61054301  C
       atom_frac         0.06388971        0.05757955        0.52432358  C
       atom_frac         0.48623962        0.30869865        0.99476668  C
       atom_frac         0.97000278        0.44633249        0.98507328  C
       atom_frac         0.55096321        0.19699916        0.51744491  C
       atom_frac         0.07768975        0.13628704        0.96213736  C
       atom_frac         0.43505754        0.37523653        0.53984636  C
       atom_frac         0.92095319        0.36624832        0.53281899  C
       atom_frac         0.60492041        0.12539731        0.97464339  C
       atom_frac         0.01165758        0.10572138        0.87143175  C
       atom_frac         0.49695753        0.34617845        0.63030577  C
       atom_frac         0.98543843        0.39215741        0.62402400  C
       atom_frac         0.53204900        0.15065236        0.88214921  C
       atom_frac         0.12806024        0.02946768        0.73584328  H
       atom_frac         0.38384878        0.27544360        0.77423114  H
       atom_frac         0.92869532        0.45435522        0.77851672  H
       atom_frac         0.63280653        0.20796717        0.73212583  H
       atom_frac         0.20059644        0.16329714        0.64886283  H
       atom_frac         0.35074422        0.41208754        0.86866120  H
       atom_frac         0.86711266        0.32463552        0.87662915  H
       atom_frac         0.68321884        0.08916667        0.63788375  H
       atom_frac         0.16455978        0.21231481        0.99492099  H
       atom_frac         0.35283977        0.45488805        0.51339710  H
       atom_frac         0.84487624        0.28721296        0.49948405  H
       atom_frac         0.66897002        0.04095286        1.00260839  H
       atom_frac         0.02742735        0.16553872        0.82732043  H
       atom_frac         0.47045699        0.40658838        0.67011047  H
       atom_frac         0.94609744        0.33436953        0.65952488  H
       atom_frac         0.54095569        0.08850673        0.83929340  H
       atom_frac         0.08916166        0.51037374        0.16963323  C
       atom_frac         0.44272969        0.74792088        0.34469323  C
       atom_frac         0.93964654        1.00180976        0.33902659  C
       atom_frac         0.61212511        0.75144865        0.16583162  C
       atom_frac         0.11051027        0.58361953        0.11365977  C
       atom_frac         0.40320288        0.81928199        0.39538022  C
       atom_frac         0.90418027        0.92657407        0.38945966  C
       atom_frac         0.63743285        0.67303367        0.11499033  C
       atom_frac         0.05546643        0.55512205        0.02220092  C
       atom_frac         0.46345668        0.78907407        0.48711408  C
       atom_frac         0.96548854        0.95292088        0.48140255  C
       atom_frac         0.57398402        0.69908838        0.02211717  C
       atom_frac         0.08987730        0.61908333        0.46661554  C
       atom_frac         0.45391130        0.88372054        0.03780745  C
       atom_frac         0.95225769        0.87333333        0.04134982  C
       atom_frac         0.60058295        0.61222054        0.47188449  C
       atom_frac         0.03402403        0.59258081        0.37815513  C
       atom_frac         0.51410169        0.85487374        0.12696681  C
       atom_frac         1.02756929        0.90000000        0.13239287  C
       atom_frac         0.53586578        0.64246886        0.38137808  C
       atom_frac         0.14149600        0.53368687        0.24265083  H
       atom_frac         0.37959833        0.76972138        0.27153396  H
       atom_frac         0.88869798        0.98388889        0.26650348  H
       atom_frac         0.66559507        0.72736364        0.23897897  H
       atom_frac         0.17862949        0.66611785        0.13991543  H
       atom_frac         0.31861545        0.89789562        0.36291712  H
       atom_frac         0.83453639        0.84473064        0.35701901  H
       atom_frac         0.71785605        0.59513131        0.14512687  H
       atom_frac         0.16326415        0.69776852        0.49974146  H
       atom_frac         0.36931636        0.96013468        0.00393774  H
       atom_frac         0.88991209        0.79002862        0.01424082  H
       atom_frac         0.67657411        0.53336616        0.50136662  H
       atom_frac         0.07816981        0.65293182        0.34424223  H
       atom_frac         0.48983045        0.91177609        0.16902512  H
       atom_frac         1.02703249        0.83655976        0.17807674  H
       atom_frac         0.56508981        0.58512205        0.33950705  H
       atom_frac         0.07940626        0.49366919        0.66249041  C
       atom_frac         0.44310372        0.75560269        0.83804490  C
       atom_frac         0.91404926        1.00443603        0.83204790  C
       atom_frac         0.60915456        0.73794781        0.67489405  C
       atom_frac         0.12337839        0.56987710        0.61613951  C
       atom_frac         0.41576710        0.83204125        0.88992778  C
       atom_frac         0.88148285        0.93170875        0.88444280  C
       atom_frac         0.64754287        0.66703114        0.62297119  C
       atom_frac         0.05925875        0.54849579        0.52259953  C
       atom_frac         0.48191927        0.80476599        0.98477869  C
       atom_frac         0.96147603        0.95348485        0.98139792  C
       atom_frac         0.57134713        0.68647475        0.52712990  C
       atom_frac         0.07446030        0.63106902        0.96221451  C
       atom_frac         0.42837324        0.86177609        0.54066841  C
       atom_frac         0.93562520        0.87494108        0.53562250  C
       atom_frac         0.60457777        0.62335690        0.96826062  C
       atom_frac         0.02201290        0.59626010        0.87390069  C
       atom_frac         0.50581783        0.84042003        0.63462011  C
       atom_frac         0.98936507        0.90513468        0.62466719  C
       atom_frac         0.54010467        0.65149242        0.87693076  C
       atom_frac         0.12147864        0.51528788        0.73488937  H
       atom_frac         0.38954804        0.77376178        0.76655777  H
       atom_frac         0.86173159        0.97952862        0.76208281  H
       atom_frac         0.66497476        0.71770455        0.74722707  H
       atom_frac         0.19906290        0.65055724        0.65147346  H
       atom_frac         0.34412804        0.91242424        0.86134555  H
       atom_frac         0.81344823        0.84788721        0.85574133  H
       atom_frac         0.73898606        0.59197727        0.65627387  H
       atom_frac         0.13821401        0.71631734        0.98965345  H
       atom_frac         0.35241859        0.94213805        0.50960742  H
       atom_frac         0.85248229        0.80036195        0.49814366  H
       atom_frac         0.66583206        0.53964478        0.99421258  H
       atom_frac         0.03700877        0.65292677        0.82732744  H
       atom_frac         0.47279300        0.89693603        0.67321278  H
       atom_frac         0.95483011        0.84809764        0.66386026  H
       atom_frac         0.54609028        0.58440404        0.83739260  H

 
  Finished reading input file 'geometry.in'.
 

 
  Consistency checks for stacksize environment parameter are next.
 
  | Maximum stacksize for task 0: unlimited
  | Maximum stacksize for task 1: unlimited
  | Maximum stacksize for task 2: unlimited
  | Maximum stacksize for task 3: unlimited
  | Maximum stacksize for task 4: unlimited
  | Maximum stacksize for task 5: unlimited
  | Maximum stacksize for task 6: unlimited
  | Maximum stacksize for task 7: unlimited
  | Maximum stacksize for task 8: unlimited
  | Maximum stacksize for task 9: unlimited
  | Maximum stacksize for task 10: unlimited
  | Maximum stacksize for task 11: unlimited
  | Maximum stacksize for task 12: unlimited
  | Maximum stacksize for task 13: unlimited
  | Maximum stacksize for task 14: unlimited
  | Maximum stacksize for task 15: unlimited
  | Maximum stacksize for task 16: unlimited
  | Maximum stacksize for task 17: unlimited
  | Current stacksize for task 0: unlimited
  | Current stacksize for task 1: unlimited
  | Current stacksize for task 2: unlimited
  | Current stacksize for task 3: unlimited
  | Current stacksize for task 4: unlimited
  | Current stacksize for task 5: unlimited
  | Current stacksize for task 6: unlimited
  | Current stacksize for task 7: unlimited
  | Current stacksize for task 8: unlimited
  | Current stacksize for task 9: unlimited
  | Current stacksize for task 10: unlimited
  | Current stacksize for task 11: unlimited
  | Current stacksize for task 12: unlimited
  | Current stacksize for task 13: unlimited
  | Current stacksize for task 14: unlimited
  | Current stacksize for task 15: unlimited
  | Current stacksize for task 16: unlimited
  | Current stacksize for task 17: unlimited
 
  Consistency checks for the contents of control.in are next.
 
  MPI_IN_PLACE appears to work with this MPI implementation.
  | Keeping use_mpi_in_place .true. (see manual).
  Explicit treatment of the Coulomb operator is needed, but the RI method is not specified.
  Coulomb operator: Defaulting to 'LVL fast' resolution of identity - RI_type = LVL_fast
  Species H: Using default value for prodbas_acc =   1.000000E-06.
  Species H: Using default value max_l_prodbas =     6.
  Species C: Using default value for prodbas_acc =   1.000000E-06.
  Species C: Using default value max_l_prodbas =     6.
  Target number of points in a grid batch is not set.  Since GPU acceleration is enabled, defaulting to  200
  Method for grid partitioning is not set. Defaulting to parallel hash+maxmin partitioning.
  Batch size limit is not set. Defaulting to    200
  By default, will store active basis functions for each batch.
  If in need of memory, prune_basis_once .false. can be used to disable this option.
  communication_type for Hartree potential was not specified.
  Defaulting to calc_hartree .
  Defaulting to Pulay charge density mixer.
  Pulay mixer: Number of relevant iterations not set.
  Defaulting to    8 iterations.
  Pulay mixer: Number of initial linear mixing iterations not set.
  Defaulting to    0 iterations.
  Work space size for distributed Hartree potential not set.
  Defaulting to   0.200000E+03 MB.
  Algorithm-dependent basis array size parameters:
  | n_max_pulay                         :        8
  Maximum number of self-consistency iterations not provided.
  Presetting  1000 iterations.
  Presetting      1001 iterations before the initial mixing cycle
  is restarted anyway using the sc_init_iter criterion / keyword.
  Presetting a factor      1.000 between actual scf density residual
  and density convergence criterion sc_accuracy_rho below which sc_init_iter
  takes no effect.
 * No s.c.f. convergence criteria (sc_accuracy_*) were provided in control.in.
 * The run will proceed with a reasonable default guess, but please check whether.
 * the s.c.f. cycles seem to take too much or too little time.
  Geometry relaxation not requested: no relaxation will be performed.
 * Notice: The s.c.f. convergence criterion sc_accuracy_rho was not provided.
 * We used to stop in this case, and ask the user to provide reasonable
 * scf convergence criteria. However, this led some users to employ criteria
 * that led to extremely long run times, e.g., for simple relaxation.
 * We now preset a default value for sc_accuracy_rho if it is not set.
 * You may still wish to check if this setting is too tight or too loose for your needs.
 * Based on n_atoms and forces and force-correction status, FHI-aims chose sc_accuracy_rho =  0.391918E-04 .
  No accuracy limit for integral partition fn. given. Defaulting to  0.1000E-14.
  No threshold value for u(r) in integrations given. Defaulting to  0.1000E-05.
  No occupation type (smearing scheme) given. Defaulting to Gaussian broadening, width =  0.1000E-01 eV.
  The width will be adjusted in iteration number     2 of the first full s.c.f. cycle only.
  S.C.F. convergence parameters will be adjusted in iteration number     2 of the first full s.c.f. cycle only.
  No accuracy for occupation numbers given. Defaulting to  0.1000E-12.
  No threshold value for occupation numbers given. Defaulting to  0.0000E+00.
  No accuracy for fermi level given. Defaulting to  0.1000E-19.
  Maximum # of iterations to find E_F not set. Defaulting to  200.
  Preferred method for the eigenvalue solver ('KS_method') not specified in 'control.in'.
  Calling BLACS routine to test compilation state
  Since ScaLAPACK support is enabled, defaulting to ELPA (via ELSI).
  Will not use alltoall communication since running on < 1024 CPUs.
  Threshold for basis singularities not set.
  Default threshold for basis singularities:  0.1000E-04
  partition_type (choice of integration weights) for integrals was not specified.
  | Using a version of the partition function of Stratmann and coworkers ('stratmann_sparse').
  | At each grid point, the set of atoms used to build the partition table is smoothly restricted to
  | only those atoms whose free-atom density would be non-zero at that grid point.
  Partitioning for Hartree potential was not defined. Using partition_type for integrals.
  | Adjusted default value of keyword multip_moments_threshold to:       0.10000000E-11
  | This value may affect high angular momentum components of the Hartree potential in periodic systems.
  Angular momentum expansion for Kerker preconditioner not set explicitly.
  | Using default value of   0
  No explicit requirement for turning off preconditioner.
  | By default, it will be turned off when the charge convergence reaches
  | sc_accuracy_rho  =   0.391918E-04
  No special mixing parameter while Kerker preconditioner is on.
  Using default: charge_mix_param =     0.7500.
  Threshold for auxiliary basis singularities not set.
  Default threshold for auxiliary basis singularities:  0.1000E-04
  No q(lm)/r^(l+1) cutoff set for long-range Hartree potential.
  | Using default value of  0.100000E-09 .
  | Verify using the multipole_threshold keyword.
  Defaulting to new monopole extrapolation.
  Density update method: automatic selection selected.
  Using density matrix based charge density update.
  Using density matrix based charge density update.
  Using packed matrix style: index .
  Defaulting to use time-reversal symmetry for k-point grid.
  Charge integration errors on the 3D integration grid will be compensated
  by explicit normalization and distribution of residual charges.
  Use the "compensate_multipole_errors" flag to change this behaviour.
  Default to 1D ("use_logsbt") integrations for auxiliary 2-center integrals.
  Default onset of logarithmic r-grid for SBT is -38.000000000000
  Default onset of logarithmic k-grid for SBT is -25.000000000000
  Default range of logarithmic r- and k-grid for SBT is  45.000000000000
  Default number of logarithmic r- and k-grid for SBT is   4096
  Default of use_2d_corr is to use the efficient 2D distribution where possible
 
  Consistency checks for the contents of geometry.in are next.
 

  Range separation radius for Ewald summation (hartree_convergence_parameter):      2.91768261 bohr.
  Number of empty states per atom not set in control.in .
  | Since you are using a method that relies on the unoccupied spectrum
  | (MP2,GW,RPA et al.), will use the full Hamiltonian size (see below)
  | as the max. possible number of states (occupied plus empty).

  Structure-dependent array size parameters: 
  | Maximum number of distinct radial functions  :        9
  | Maximum number of basis functions            :     1440
  | Number of Kohn-Sham states (occupied + empty):     1440
------------------------------------------------------------
CUDA runtime version: 11060
CUDA driver version: 11060
  Initializing GPUs...

  Number of GPUs available to MPI task         0 :   1
  Number of GPUs available to MPI task         1 :   1
  Number of GPUs available to MPI task         2 :   1
  Number of GPUs available to MPI task         3 :   1
  Number of GPUs available to MPI task         4 :   1
  Number of GPUs available to MPI task         5 :   1
  Number of GPUs available to MPI task         6 :   1
  Number of GPUs available to MPI task         7 :   1
  Number of GPUs available to MPI task         8 :   1
  Number of GPUs available to MPI task         9 :   1
  Number of GPUs available to MPI task        10 :   1
  Number of GPUs available to MPI task        11 :   1
  Number of GPUs available to MPI task        12 :   1
  Number of GPUs available to MPI task        13 :   1
  Number of GPUs available to MPI task        14 :   1
  Number of GPUs available to MPI task        15 :   1
  Number of GPUs available to MPI task        16 :   1
  Number of GPUs available to MPI task        17 :   1

  | MPI task         0, GPU activated = T, Device Name = NVIDIA A100-SXM4-80GB
  | MPI task         1, GPU activated = T, Device Name = NVIDIA A100-SXM4-80GB
  | MPI task         2, GPU activated = T, Device Name = NVIDIA A100-SXM4-80GB
  | MPI task         3, GPU activated = T, Device Name = NVIDIA A100-SXM4-80GB
  | MPI task         4, GPU activated = T, Device Name = NVIDIA A100-SXM4-80GB
  | MPI task         5, GPU activated = T, Device Name = NVIDIA A100-SXM4-80GB
  | MPI task         6, GPU activated = T, Device Name = NVIDIA A100-SXM4-80GB
  | MPI task         7, GPU activated = T, Device Name = NVIDIA A100-SXM4-80GB
  | MPI task         8, GPU activated = T, Device Name = NVIDIA A100-SXM4-80GB
  | MPI task         9, GPU activated = T, Device Name = NVIDIA A100-SXM4-80GB
  | MPI task        10, GPU activated = T, Device Name = NVIDIA A100-SXM4-80GB
  | MPI task        11, GPU activated = T, Device Name = NVIDIA A100-SXM4-80GB
  | MPI task        12, GPU activated = T, Device Name = NVIDIA A100-SXM4-80GB
  | MPI task        13, GPU activated = T, Device Name = NVIDIA A100-SXM4-80GB
  | MPI task        14, GPU activated = T, Device Name = NVIDIA A100-SXM4-80GB
  | MPI task        15, GPU activated = T, Device Name = NVIDIA A100-SXM4-80GB
  | MPI task        16, GPU activated = T, Device Name = NVIDIA A100-SXM4-80GB
  | MPI task        17, GPU activated = T, Device Name = NVIDIA A100-SXM4-80GB

------------------------------------------------------------
          Preparing all fixed parts of the calculation.
------------------------------------------------------------
  Determining machine precision:
    2.225073858507201E-308
  Setting up grids for atomic and cluster calculations.

  Creating wave function, potential, and density for free atoms.
  Runtime choices for atomic solver:
  | atomic solver xc        : PW-LDA
  | compute density gradient: 0
  | compute kinetic density : F

  Species: H

  List of occupied orbitals and eigenvalues:
    n    l              occ      energy [Ha]    energy [eV]
    1    0           1.0000        -0.232375        -6.3233


  Species: C

  List of occupied orbitals and eigenvalues:
    n    l              occ      energy [Ha]    energy [eV]
    1    0           2.0000        -9.944615      -270.6068
    2    0           2.0000        -0.498807       -13.5732
    2    1           2.0000        -0.196968        -5.3598


  Adding cutoff potential to free-atom effective potential.
  Creating fixed part of basis set: Ionic, confined, hydrogenic.
 
  H                    hydrogenic:
 
  List of hydrogenic basis orbitals: 
    n    l      effective z      eigenvalue [eV]  inner max. [A]     outer max. [A]     outer radius [A]   
    2    0         2.100000       -14.9728           0.193243           1.317208           4.583499
    2    1         3.500000       -41.6669           0.602369           0.602369           3.723403
 
 
  C                    hydrogenic:
 
  List of hydrogenic basis orbitals: 
    n    l      effective z      eigenvalue [eV]  inner max. [A]     outer max. [A]     outer radius [A]   
    2    1         1.700000        -9.7616           1.230570           1.230570           4.607917
    3    2         6.000000       -54.4224           0.792453           0.792453           3.883070
    2    0         4.900000       -81.6679           0.082559           0.562749           3.078220
 
  Creating atomic-like basis functions for current effective potential.

  Species H                   :

  List of atomic basis orbitals and eigenvalues:
    n    l      energy [Ha]    energy [eV]    outer radius [A]
    1    0        -0.232375        -6.3233       4.527807


  Species C                   :

  List of atomic basis orbitals and eigenvalues:
    n    l      energy [Ha]    energy [eV]    outer radius [A]
    1    0        -9.944615      -270.6068       1.934409
    2    0        -0.498807       -13.5732       4.496620
    2    1        -0.196968        -5.3598       4.551928

  Assembling full basis from fixed parts.
  | Species H :   atomic orbital   1 s accepted.
  | Species H :    hydro orbital   2 s accepted.
  | Species H :    hydro orbital   2 p accepted.
  | Species C :   atomic orbital   1 s accepted.
  | Species C :    hydro orbital   2 s accepted.
  | Species C :   atomic orbital   2 s accepted.
  | Species C :   atomic orbital   2 p accepted.
  | Species C :    hydro orbital   2 p accepted.
  | Species C :    hydro orbital   3 d accepted.
 
  Basis size parameters after reduction:
  | Total number of radial functions:        9
  | Total number of basis functions :     1440
 
  Per-task memory consumption for arrays in subroutine allocate_ext:
  |           2.242384MB.
  Testing on-site integration grid accuracy.
  |  Species  Function  <phi|h_atom|phi> (log., in eV)  <phi|h_atom|phi> (rad., in eV)
           1        1                 -6.3245358373                 -6.3232436907
           1        2                 14.1326137532                 14.1384481100
           1        3                 25.3627025200                 25.3628451197
           2        4               -270.6067544938               -270.6067222788
           2        5                -10.5634280949                -10.5635685736
           2        6                 16.2089822398                 16.2052121796
           2        7                 -5.3613872565                 -5.3627872378
           2        8                  8.5292058327                  8.5051734780
           2        9                 27.4884461005                 27.4884542459

  Preparing densities etc. for the partition functions (integrals / Hartree potential).

  Preparations completed.
  max(cpu_time)          :      0.072 s.
  Wall clock time (cpu1) :      0.063 s.
------------------------------------------------------------

  Initializing index lists of integration centers etc. from given atomic structure:
  Mapping all atomic coordinates to central unit cell.

  Initializing the k-points
  Using symmetry for reducing the k-points
  | k-points reduced from:        2 to        2
  | Number of k-points                             :         2
  | Consuming          0 KiB for k_phase_exx.
  The eigenvectors in the calculations are REAL.
  | Number of basis functions in the Hamiltonian integrals :      8050
  | Number of basis functions in a single unit cell        :      1440
  | Number of centers in hartree potential         :      3324
  | Number of centers in hartree multipole         :      2545
  | Number of centers in electron density summation:      1991
  | Number of centers in basis integrals           :      2127
  | Number of centers in integrals                 :       974
  | Number of centers in hamiltonian               :      2001
  | Consuming          1 KiB for k_phase.
  | Number of super-cells (origin) [n_cells]                     :         175
  | Number of super-cells (after PM_index) [n_cells]             :          38
  | Number of super-cells in hamiltonian [n_cells_in_hamiltonian]:          38
  | Size of matrix packed + index [n_hamiltonian_matrix_size] :     1933881
  | Size of matrix packed + index (no_symmetry):     3864945

------------------------------------------------------------
          Begin self-consistency loop: Initialization.

          Date     :  20230120, Time     :  172203.624
------------------------------------------------------------
  | Estimated reciprocal-space cutoff momentum G_max:         3.24344278 bohr^-1 .
  | Reciprocal lattice points for long-range Hartree potential:    5310
  Using simple linear distribution as default method for k-point parallelism.
  * Using 18 tasks for Scalapack Eigenvalue solver.
  Detailed listing of tasks and assigned k-points:
   Task     0 k-point     1 on adag004
   Task     1 k-point     1 on adag004
   Task     2 k-point     1 on adag004
   Task     3 k-point     1 on adag004
   Task     4 k-point     1 on adag004
   Task     5 k-point     1 on adag004
   Task     6 k-point     1 on adag004
   Task     7 k-point     1 on adag004
   Task     8 k-point     1 on adag004
   Task     9 k-point     2 on adag004
   Task    10 k-point     2 on adag004
   Task    11 k-point     2 on adag004
   Task    12 k-point     2 on adag004
   Task    13 k-point     2 on adag004
   Task    14 k-point     2 on adag004
   Task    15 k-point     2 on adag004
   Task    16 k-point     2 on adag004
   Task    17 k-point     2 on adag004
  K-point:     1 Tasks:     9 split into      3 X      3 BLACS grid
  Calculating block size based on n_basis =         1440  max_nprow =            3  max_npcol =            3
  ScaLAPACK block size set to:           16
  Allocating        1.758 MB for ovlp
  Allocating        1.758 MB for ham
  Allocating        1.758 MB for eigenvec
  Required Scalapack workspace - INTEGER:            1  REAL:             1
  Partitioning the integration grid into batches with parallel hashing+maxmin method.
  | Number of batches:     5632
  | Maximal batch size:     189
  | Minimal batch size:     100
  | Average batch size:     135.625
  | Standard deviation of batch sizes:      29.695

  Integration load balanced across    18 MPI tasks.
  Work distribution over tasks is as follows:
  Task     0 has      42436 integration points.
  Task     1 has      42454 integration points.
  Task     2 has      42409 integration points.
  Task     3 has      42485 integration points.
  Task     4 has      42425 integration points.
  Task     5 has      42405 integration points.
  Task     6 has      42453 integration points.
  Task     7 has      42430 integration points.
  Task     8 has      42438 integration points.
  Task     9 has      42421 integration points.
  Task    10 has      42458 integration points.
  Task    11 has      42443 integration points.
  Task    12 has      42457 integration points.
  Task    13 has      42444 integration points.
  Task    14 has      42434 integration points.
  Task    15 has      42378 integration points.
  Task    16 has      42440 integration points.
  Task    17 has      42430 integration points.
  Initializing partition tables, free-atom densities, potentials, etc. across the integration grid (initialize_grid_storage).
  | initialize_grid_storage: Actual outermost partition radius vs. multipole_radius_free
  | (-- VB: in principle, multipole_radius_free should be larger, hence this output)
  | Species        1: Confinement radius =              4.999999999999999 AA, multipole_radius_free =              5.054417573612229 AA.
  | Species        1: outer_partition_radius set to              5.054417573612229 AA .
  | Species        2: Confinement radius =              4.999999999999999 AA, multipole_radius_free =              5.019602836301480 AA.
  | Species        2: outer_partition_radius set to              5.019602836301480 AA .
  | The sparse table of interatomic distances needs       7660.74 kbyte instead of     36193.03 kbyte of memory.
  | Net number of integration points:   763840
  | of which are non-zero points    :   605188
  | Numerical average free-atom electrostatic potential    :     -8.61468954 eV
  Renormalizing the initial density to the exact electron count on the 3D integration grid.
  | Initial density: Formal number of electrons (from input files) :     544.0000000000
  | Integrated number of electrons on 3D grid     :     543.9971742565
  | Charge integration error                      :      -0.0028257435
  | Normalization factor for density and gradient :       1.0000051944
  Renormalizing the free-atom superposition density to the exact electron count on the 3D integration grid.
  | Formal number of electrons (from input files) :     544.0000000000
  | Integrated number of electrons on 3D grid     :     543.9971742565
  | Charge integration error                      :      -0.0028257435
  | Normalization factor for density and gradient :       1.0000051944
  Obtaining max. number of non-zero basis functions in each batch (get_n_compute_maxes).
  | Maximal number of non-zero basis functions:      540 in task     0
  | Maximal number of non-zero basis functions:      563 in task     1
  | Maximal number of non-zero basis functions:      535 in task     2
  | Maximal number of non-zero basis functions:      555 in task     3
  | Maximal number of non-zero basis functions:      530 in task     4
  | Maximal number of non-zero basis functions:      551 in task     5
  | Maximal number of non-zero basis functions:      530 in task     6
  | Maximal number of non-zero basis functions:      529 in task     7
  | Maximal number of non-zero basis functions:      535 in task     8
  | Maximal number of non-zero basis functions:      541 in task     9
  | Maximal number of non-zero basis functions:      558 in task    10
  | Maximal number of non-zero basis functions:      559 in task    11
  | Maximal number of non-zero basis functions:      533 in task    12
  | Maximal number of non-zero basis functions:      544 in task    13
  | Maximal number of non-zero basis functions:      532 in task    14
  | Maximal number of non-zero basis functions:      549 in task    15
  | Maximal number of non-zero basis functions:      539 in task    16
  | Maximal number of non-zero basis functions:      524 in task    17
  Integrating Hamiltonian matrix: batch-based integration.
  GPU acceleration will be used when integrating the Hamiltonian matrix.
  Reporting GPU memory usage by myid 0.  Note that it is likely not the only MPI task binding to its GPU!
  Allocating        2.333 MB on GPU for hamiltonian_shell
  Allocating        0.816 MB on GPU for wave
  Allocating        0.002 MB on GPU for partition
  Allocating        0.816 MB on GPU for h_times_psi
  Time summed over all CPUs for integration: real work       23.736 s, elapsed       24.875 s
  Deallocating memory used on GPU for Hamiltonian integration.
  Integrating overlap matrix.
  Time summed over all CPUs for integration: real work       20.675 s, elapsed       21.584 s
  Deallocating overlap matrix.

  Updating Kohn-Sham eigenvalues and eigenvectors using ELSI and the ELPA eigensolver.
  Singularity check in k-point 1 (analysis for other k-points may follow below):
  Overlap matrix is not singular
  | Lowest and highest eigenvalues :  0.7941E-03,  0.8238E+01
  Finished singularity check of overlap matrix
  | Time :     0.117 s
  Starting ELPA eigensolver
  Finished Cholesky decomposition
  | Time :     0.019 s
  Finished transformation to standard eigenproblem
  | Time :     0.030 s
  Finished solving standard eigenproblem
  | Time :     0.267 s
  Finished back-transformation of eigenvectors
  | Time :     0.022 s

  Obtaining occupation numbers and electronic chemical potential using ELSI.
  | Note that, for insulating systems, the printed 'chemical potential' value is not uniquely defined.
  | It can be anywhere in the energy gap, as long as it correctly separates occupied and unoccupied states.
  | In systems with a gap, the physically relevant chemical potential is the VBM or HOMO.

  | Chemical potential (Fermi level):    -8.59383471 eV
  Writing Kohn-Sham eigenvalues.
  K-point:       1 at    0.000000    0.000000    0.000000 (in units of recip. lattice)

  State    Occupation    Eigenvalue [Ha]    Eigenvalue [eV]
      1       2.00000         -10.072216         -274.07895
      2       2.00000         -10.070815         -274.04082
      3       2.00000         -10.070218         -274.02458
      4       2.00000         -10.070094         -274.02121
      5       2.00000         -10.069907         -274.01612
      6       2.00000         -10.068713         -273.98362
      7       2.00000         -10.067488         -273.95028
      8       2.00000         -10.067127         -273.94046
      9       2.00000         -10.066976         -273.93635
     10       2.00000         -10.066944         -273.93549
     11       2.00000         -10.066904         -273.93439
     12       2.00000         -10.066766         -273.93064
     13       2.00000         -10.066068         -273.91164
     14       2.00000         -10.065876         -273.90642
     15       2.00000         -10.065834         -273.90528
     16       2.00000         -10.065726         -273.90233
     17       2.00000         -10.065517         -273.89665
     18       2.00000         -10.065486         -273.89582
     19       2.00000         -10.065417         -273.89394
     20       2.00000         -10.065413         -273.89382
     21       2.00000         -10.065222         -273.88862
     22       2.00000         -10.065069         -273.88446
     23       2.00000         -10.065069         -273.88446
     24       2.00000         -10.064943         -273.88104
     25       2.00000         -10.064736         -273.87540
     26       2.00000         -10.064614         -273.87209
     27       2.00000         -10.064521         -273.86954
     28       2.00000         -10.064284         -273.86311
     29       2.00000         -10.064190         -273.86055
     30       2.00000         -10.063875         -273.85196
     31       2.00000         -10.063769         -273.84910
     32       2.00000         -10.063451         -273.84044
     33       2.00000         -10.063261         -273.83526
     34       2.00000         -10.063259         -273.83522
     35       2.00000         -10.063092         -273.83066
     36       2.00000         -10.063042         -273.82931
     37       2.00000         -10.063027         -273.82890
     38       2.00000         -10.062606         -273.81744
     39       2.00000         -10.062597         -273.81719
     40       2.00000         -10.062582         -273.81679
     41       2.00000         -10.062545         -273.81577
     42       2.00000         -10.062453         -273.81328
     43       2.00000         -10.062399         -273.81182
     44       2.00000         -10.062300         -273.80911
     45       2.00000         -10.061999         -273.80094
     46       2.00000         -10.061988         -273.80063
     47       2.00000         -10.061952         -273.79964
     48       2.00000         -10.061914         -273.79862
     49       2.00000         -10.061677         -273.79216
     50       2.00000         -10.061362         -273.78358
     51       2.00000         -10.061046         -273.77499
     52       2.00000         -10.060996         -273.77362
     53       2.00000         -10.060914         -273.77140
     54       2.00000         -10.060732         -273.76645
     55       2.00000         -10.060445         -273.75863
     56       2.00000         -10.060090         -273.74899
     57       2.00000         -10.059985         -273.74612
     58       2.00000         -10.059945         -273.74503
     59       2.00000         -10.059623         -273.73626
     60       2.00000         -10.059461         -273.73186
     61       2.00000         -10.059383         -273.72974
     62       2.00000         -10.059366         -273.72927
     63       2.00000         -10.059147         -273.72332
     64       2.00000         -10.059102         -273.72208
     65       2.00000         -10.059099         -273.72201
     66       2.00000         -10.058889         -273.71630
     67       2.00000         -10.058859         -273.71547
     68       2.00000         -10.058363         -273.70197
     69       2.00000         -10.057984         -273.69166
     70       2.00000         -10.057088         -273.66728
     71       2.00000         -10.057040         -273.66599
     72       2.00000         -10.056996         -273.66480
     73       2.00000         -10.056368         -273.64771
[...]
  |    H      2     3.678162 A  1.011968E+04 A            0.556529 a.u.
  |    H      1     3.958095 A  1.721251E+06 A            0.841931 a.u.
  |    H      0     4.527807 A  3.866455E+12 A            0.581436 a.u.
  |    C      0     2.562483 A      2.562483 A        6.563029E-17 a.u.
  |    C      0     2.967371 A      2.967371 A        1.352164E-16 a.u.
  |    C      0     3.003870 A      3.003870 A        2.312640E-17 a.u.
  |    C      1     3.272245 A      3.272245 A       -3.835259E-17 a.u.
  |    C      0     3.312494 A      3.312494 A       -2.710381E-16 a.u.
  |    C      3     4.077671 A      4.077671 A       -1.683752E-15 a.u.
  |    C      3     4.077671 A      4.077671 A        1.412852E-15 a.u.
  |    C      1     4.496620 A      4.496620 A       -3.011059E-16 a.u.
  |    C      0     4.496620 A      4.551928 A        2.873903E-17 a.u.
  |    C      2     4.551928 A      4.551928 A       -4.610785E-16 a.u.
  |    C      2     4.551928 A      4.551928 A        7.440584E-16 a.u.
  |    C      2     4.551928 A      4.551928 A       -7.110458E-16 a.u.
  |    C      2     4.551928 A      4.551928 A       -1.935424E-16 a.u.
  |    C      0     4.551928 A      4.607917 A        2.067142E-16 a.u.
  |    C      0     4.551928 A      4.607917 A       -1.109786E-16 a.u.
  |    C      1     4.551928 A      4.607917 A       -9.951742E-17 a.u.
  |    C      1     4.551928 A      4.607917 A        1.937809E-16 a.u.
  |    C      1     4.607917 A      4.607917 A       -2.813308E-16 a.u.
  |    C      1     4.607917 A      4.607917 A       -7.330363E-17 a.u.
  |    C      2     4.607917 A      4.607917 A        1.318462E-15 a.u.
  |    C      2     4.607917 A      4.607917 A       -1.318397E-15 a.u.
  |    C      0     4.607917 A      4.664595 A        3.157826E-16 a.u.
  |    C      1     4.607917 A      4.664595 A        7.356967E-16 a.u.
  |    C      4     3.835889 A  2.962973E+02 A            4.379483 a.u.
  |    C      3     4.127827 A  1.725964E+03 A            9.005588 a.u.
  |    C      2     4.607917 A  2.608475E+04 A            9.531178 a.u.
  |    C      1     4.607917 A  2.736013E+06 A            2.127278 a.u.
  |    C      0     4.607917 A  4.399765E+12 A            0.661635 a.u.

  | Shrink_full_auxil_basis : there are       36  radial auxiliary wave functions
                            accepted and       7 rejected.
  | Shrink_full_auxil_basis : there are totally                8992 partial auxiliary wave functions.
 
  | Maximal number of product basis functions per thread :   512   512
 
  | Minimal total memory requirement for three-center overlap :      72.476 Gbs
  | Number of local auxiliary basis functions on task:      0   512
  | Number of local auxiliary basis functions on task:      1   512
  | Number of local auxiliary basis functions on task:      2   512
  | Number of local auxiliary basis functions on task:      3   512
  | Number of local auxiliary basis functions on task:      4   496
  | Number of local auxiliary basis functions on task:      5   496
  | Number of local auxiliary basis functions on task:      6   496
  | Number of local auxiliary basis functions on task:      7   496
  | Number of local auxiliary basis functions on task:      8   496
  | Number of local auxiliary basis functions on task:      9   496
  | Number of local auxiliary basis functions on task:     10   496
  | Number of local auxiliary basis functions on task:     11   496
  | Number of local auxiliary basis functions on task:     12   496
  | Number of local auxiliary basis functions on task:     13   496
  | Number of local auxiliary basis functions on task:     14   496
  | Number of local auxiliary basis functions on task:     15   496
  | Number of local auxiliary basis functions on task:     16   496
  | Number of local auxiliary basis functions on task:     17   496
  | 2D aux task distribution:      3 X      6
  | 2D block size (nb_aux_2d):     64
 
  Basis pair condensation :   1037520  -->     543006
 
 --------------------------------------------
  Constructing auxiliary basis (full product) ...
 
  Product basis:
  | charge radius: extent of product basis function
  | field radius: extent of its Coulomb potential
  | Species   l  charge radius    field radius  multipol momen
  |    H      1     3.910002 A      3.910002 A       -2.487223E-16 a.u.
  |    H      1     3.958095 A      3.958095 A       -2.441841E-16 a.u.
  |    H      0     4.527807 A      4.527807 A        1.268855E-16 a.u.
  |    H      0     4.527807 A      4.583499 A       -4.900954E-17 a.u.
  |    H      0     4.527807 A      4.583499 A        4.713786E-16 a.u.
  |    H      2     3.678162 A  1.011968E+04 A            0.556529 a.u.
  |    H      1     3.958095 A  1.721251E+06 A            0.841931 a.u.
  |    H      0     4.527807 A  3.866455E+12 A            0.581436 a.u.
  |    C      0     2.562483 A      2.562483 A        6.563029E-17 a.u.
  |    C      0     2.967371 A      2.967371 A        1.352164E-16 a.u.
  |    C      0     3.003870 A      3.003870 A        2.312640E-17 a.u.
  |    C      1     3.272245 A      3.272245 A       -3.835259E-17 a.u.
  |    C      0     3.312494 A      3.312494 A       -2.710381E-16 a.u.
  |    C      3     4.077671 A      4.077671 A       -1.683752E-15 a.u.
  |    C      3     4.077671 A      4.077671 A        1.412852E-15 a.u.
  |    C      1     4.496620 A      4.496620 A       -3.011059E-16 a.u.
  |    C      0     4.496620 A      4.551928 A        2.873903E-17 a.u.
  |    C      2     4.551928 A      4.551928 A       -4.610785E-16 a.u.
  |    C      2     4.551928 A      4.551928 A        7.440584E-16 a.u.
  |    C      2     4.551928 A      4.551928 A       -7.110458E-16 a.u.
  |    C      2     4.551928 A      4.551928 A       -1.935424E-16 a.u.
  |    C      0     4.551928 A      4.607917 A        2.067142E-16 a.u.
  |    C      0     4.551928 A      4.607917 A       -1.109786E-16 a.u.
  |    C      1     4.551928 A      4.607917 A       -9.951742E-17 a.u.
  |    C      1     4.551928 A      4.607917 A        1.937809E-16 a.u.
  |    C      1     4.607917 A      4.607917 A       -2.813308E-16 a.u.
  |    C      1     4.607917 A      4.607917 A       -7.330363E-17 a.u.
  |    C      2     4.607917 A      4.607917 A        1.318462E-15 a.u.
  |    C      2     4.607917 A      4.607917 A       -1.318397E-15 a.u.
  |    C      0     4.607917 A      4.664595 A        3.157826E-16 a.u.
  |    C      1     4.607917 A      4.664595 A        7.356967E-16 a.u.
  |    C      4     3.835889 A  2.962973E+02 A            4.379483 a.u.
  |    C      3     4.127827 A  1.725964E+03 A            9.005588 a.u.
  |    C      2     4.607917 A  2.608475E+04 A            9.531178 a.u.
  |    C      1     4.607917 A  2.736013E+06 A            2.127278 a.u.
  |    C      0     4.607917 A  4.399765E+12 A            0.661635 a.u.

  | Shrink_full_auxil_basis : there are       36  radial auxiliary wave functions
                            accepted and       7 rejected.
  | Shrink_full_auxil_basis : there are totally                8992 partial auxiliary wave functions.
 
  | Maximal number of product basis functions per thread :   512   512
 
  | Minimal total memory requirement for three-center overlap :      72.476 Gbs
  | Number of local auxiliary basis functions on task:      0   512
  | Number of local auxiliary basis functions on task:      1   512
  | Number of local auxiliary basis functions on task:      2   512
  | Number of local auxiliary basis functions on task:      3   512
  | Number of local auxiliary basis functions on task:      4   496
  | Number of local auxiliary basis functions on task:      5   496
  | Number of local auxiliary basis functions on task:      6   496
  | Number of local auxiliary basis functions on task:      7   496
  | Number of local auxiliary basis functions on task:      8   496
  | Number of local auxiliary basis functions on task:      9   496
  | Number of local auxiliary basis functions on task:     10   496
  | Number of local auxiliary basis functions on task:     11   496
  | Number of local auxiliary basis functions on task:     12   496
  | Number of local auxiliary basis functions on task:     13   496
  | Number of local auxiliary basis functions on task:     14   496
  | Number of local auxiliary basis functions on task:     15   496
  | Number of local auxiliary basis functions on task:     16   496
  | Number of local auxiliary basis functions on task:     17   496
  | 2D aux task distribution:      3 X      6
  | 2D block size (nb_aux_2d):     64
 
  Basis pair condensation :   1037520  -->     543006
  Allocating        0.069 MB for t_coeff
  Allocating        0.034 MB for basbas_idx
  Allocating        0.069 MB for wave
  Allocating        0.069 MB for total_wave
  Allocating        0.206 MB for wave_gradient
  Allocating        0.206 MB for total_wave_grad
 HERE1
 HERE2
  Deallocating        0.069 MB for t_coeff
  Deallocating        0.034 MB for basbas_idx
  Deallocating        0.069 MB for wave
  Deallocating        0.206 MB for wave_gradient
  Deallocating        0.206 MB for total_wave_grad
dP_dE (Bohr^3) at every cycle:--->
 (992.705997464064,0.000000000000000E+000) (-5.87448954644074,0.000000000000000E+000) (-455.003646836510,0.000000000000000E+000)
 (-5.92692233205592,0.000000000000000E+000) (1370.24178471589,0.000000000000000E+000) (1.550220509245337E-002,0.000000000000000E+000)
 (-455.232857532209,0.000000000000000E+000) (-1.471461199207158E-003,0.000000000000000E+000) (1683.46200941472,0.000000000000000E+000)
DFPT polarizability (Bohr^3)        xx        yy        zz        xy        xz        yz
  | Polarizability:--->                       992.705997464                 1370.241784716                 1683.462009415                   -5.874489546                 -455.003646837                    0.015502205

DFPT for dielectric_constant:--->  # PARSE DFPT_dielectric_tensor
               2.347080863709362            -0.007971557009111            -0.617430243332063
              -0.008042707180777             2.859388874008040             0.000021036161642
              -0.617741277356963            -0.000001996741460             3.284422037801149

                                               :  max(cpu_time)    wall_clock(cpu1)
  | Time for  dielectric calculation            :        0.000 s           0.000 s
===========================================================================

------------------------------------------------------------------------------
  Final output of selected total energy values:

  The following output summarizes some interesting total energy values
  at the end of a run (AFTER all relaxation, molecular dynamics, etc.).

  | Total energy of the DFT / Hartree-Fock s.c.f. calculation      :         -83267.447692830 eV
  | Final zero-broadening corrected energy (caution - metals only) :         -83267.447692830 eV
  | For reference only, the value of 1 Hartree used in FHI-aims is :             27.211384500 eV
  | For reference only, the overall average (free atom contribution
  | + realspace contribution) of the electrostatic potential after
  | s.c.f. convergence is                                          :             -7.696640285 eV

  Before relying on these values, please be sure to understand exactly which
  total energy value is referred to by a given number. Different objects may
  all carry the same name 'total energy'. Definitions:

  Total energy of the DFT / Hartree-Fock s.c.f. calculation:
  | Note that this energy does not include ANY quantities calculated after the
  | s.c.f. cycle, in particular not ANY RPA, MP2, etc. many-body perturbation terms.

  Final zero-broadening corrected energy:
  | For metallic systems only, a broadening of the occupation numbers at the Fermi
  | level can be extrapolated back to zero broadening by an electron-gas inspired
  | formula. For all systems that are not real metals, this value can be
  | meaningless and should be avoided.

------------------------------------------------------------------------------
  Methods described in the following list of references were used in this FHI-aims run.
  If you publish the results, please make sure to cite these reference if they apply.
  FHI-aims is an academic code, and for our developers (often, Ph.D. students
  and postdocs), scientific credit in the community is essential.
  Thank you for helping us!

  For any use of FHI-aims, please cite:

    Volker Blum, Ralf Gehrke, Felix Hanke, Paula Havu, Ville Havu,
    Xinguo Ren, Karsten Reuter, and Matthias Scheffler
    'Ab initio molecular simulations with numeric atom-centered orbitals'
    Computer Physics Communications 180, 2175-2196 (2009)
    http://doi.org/10.1016/j.cpc.2009.06.022


  For Hartree-Fock, hybrid functionals, or many-body perturbation theory used in your run, please cite:

    Xinguo Ren, Patrick Rinke, Volker Blum, Juergen Wieferink, Alex Tkatchenko,
    Andrea Sanfilippo, Karsten Reuter, and Matthias Scheffler,
    'Resolution-of-identity approach to Hartree-Fock, hybrid density functionals,
    RPA, MP2, and GW with numeric atom-centered orbital basis functions'
    New Journal of Physics 14, 053020 (2012).
    http://doi.org/10.1088/1367-2630/14/5/053020


  The provided symmetry information was generated with SPGlib:

    Atsushi Togo, Yusuke Seto, Dimitar Pashov
    SPGlib 1.7.3 obtained from http://spglib.sourceforge.net
    Copyright (C) 2008 Atsushi Togo


  The DFPT (perturbation by an electric field) part of the code was used.
  Here is the corresponding reference:

    Honghui Shang, Nathaniel Raimbault, Mariana Rossi,
    Christian Carbogno, Patrick Rinke and Matthias Scheffler,
    'All-Electron, Real-Space Perturbation Theory for Homogeneous
    Electric Fields: Theory, Implementation, and Application within dft'
    New Journal of Physics, 20(7):073040, 2018


  The ELSI infrastructure was used in your run to solve the Kohn-Sham electronic structure.
  Please check out http://elsi-interchange.org to learn more.
  If scalability is important for your project, please acknowledge ELSI by citing:

    V. W-z. Yu, F. Corsetti, A. Garcia, W. P. Huhn, M. Jacquelin, W. Jia,
    B. Lange, L. Lin, J. Lu, W. Mi, A. Seifitokaldani, A. Vazquez-Mayagoitia,
    C. Yang, H. Yang, and V. Blum
    'ELSI: A unified software interface for Kohn-Sham electronic structure solvers'
    Computer Physics Communications 222, 267-285 (2018).
    http://doi.org/10.1016/j.cpc.2017.09.007


  For the real-space grid partitioning and parallelization used in this calculation, please cite:

    Ville Havu, Volker Blum, Paula Havu, and Matthias Scheffler,
    'Efficient O(N) integration for all-electron electronic structure calculation'
    'using numerically tabulated basis functions'
    Journal of Computational Physics 228, 8367-8379 (2009).
    http://doi.org/10.1016/j.jcp.2009.08.008


  The high-level electronic structure method used in your calculation
  employed our efficient localized resolution of identity for the Coulomb operator.
  Some calculations, especially large-scale hybrid density functional theory,
  are only possible thanks to this development. For this feature, please cite:

    Arvid Ihrig, Juergen Wieferink, Igor Ying Zhang, Matti Ropo, Xinguo Ren,
    Patrick Rinke, Matthias Scheffler, and Volker Blum,
    'Accurate localized resolution of identity approach for linear-scaling
    hybrid density functionals and for many-body perturbation theory'
    New Journal of Physics 117, 093020 (2015).
    http://doi.org/10.1088/1367-2630/17/9/093020

  Of course, there are many other important community references, e.g., those cited in the
  above references. Our list is limited to references that describe implementations in the
  FHI-aims code. The reason is purely practical (length of this list) - please credit others as well.

------------------------------------------------------------
          Leaving FHI-aims.
          Date     :  20230120, Time     :  174738.631

          Computational steps:
          | Number of self-consistency cycles          :           48
          | Number of SCF (re)initializations          :            1
          | Number of coupled perturbed self-consistency cycles          :            0
          | Number of CPSCF (re)initializations          :            0

          Detailed time accounting                     :  max(cpu_time)    wall_clock(cpu1)
          | Total time                                  :     1537.217 s        1547.397 s
          | GPU initialization                          :        2.225 s          11.209 s
          | Preparation time                            :        0.072 s           0.063 s
          | Boundary condition initalization            :        1.005 s           1.005 s
          | Grid partitioning                           :        1.265 s           1.266 s
          | Preloading free-atom quantities on grid     :        4.239 s           4.240 s
          | Free-atom superposition energy              :        0.532 s           0.532 s
          | Total time for integrations                 :       18.874 s          18.964 s
          | Product basis setup: Total time             :        0.000 s           0.000 s
          | Product basis: | 2-center integrations     :(       0.000 s)  (       0.000 s)
          | Product basis: | LVL 3-center & coefficient:(       0.000 s)  (       0.000 s)
          | Total time for solution of K.-S. equations  :        3.482 s           3.486 s
          | Total time for density update               :       12.347 s          12.473 s
          | Total time for mixing & preconditioning     :       12.419 s          12.423 s
          | Total time for Hartree multipole update     :        0.085 s           0.085 s
          | Total time for Hartree multipole sum        :       42.380 s          42.394 s
          | Total time for total energy evaluation      :        0.004 s           0.003 s
          | Total time first_order_DM                   :        2.036 s           2.037 s
          | Total time first_order_density              :      320.912 s         320.939 s
          | Total time first_order_potential            :      126.931 s         126.967 s
          | Total time first_order_H                    :      611.467 s         611.637 s
          | Total time solving of Sternheimer equations :        1.969 s           1.970 s
          | Total time for dielectric constant          :        0.000 s           0.000 s
          | Total time momentum matrix                  :        0.000 s           0.000 s

          GPU acceleration has been used for charge density update.
          GPU acceleration has been used for real-space Hamiltonian integration.
          Due to GPU usage, wall_clock(cpu1) will give a more reliable estimate for timings.

          Partial memory accounting:
          | Residual value for overall tracked memory usage across tasks:     1.234863 MB (should be 0.000000 MB)
          |
          | Largest tracked array allocation:
          |   Minimum:      103.280 MB (DFPT_pulay_mixing::initialize_pulay_mixing::X_in_diffs on task  0)
          |   Maximum:      103.280 MB (DFPT_pulay_mixing::initialize_pulay_mixing::X_in_diffs on task  0)
          |   Average:      103.280 MB
          |
          | Because the residual tracked memory usage was not zero, the peak value for overall
          | tracked memory usage was not output, as it is probably incorrect.  This is likely due
          | to a missing aims_deallocate statement in the source code, which should be otherwise
          | harmless.
          |
          Note:  These values currently only include a subset of arrays which are explicitly tracked.
          The "true" memory usage will be greater.

          Have a nice day.
------------------------------------------------------------
