------------------------------------------------------------
          Invoking FHI-aims ...

          When using FHI-aims, please cite the following reference:

            Volker Blum, Ralf Gehrke, Felix Hanke, Paula Havu,
            Ville Havu, Xinguo Ren, Karsten Reuter, and Matthias Scheffler,
            'Ab Initio Molecular Simulations with Numeric Atom-Centered Orbitals',
            Computer Physics Communications 180, 2175-2196 (2009)

          In addition, many other developments in FHI-aims are likely important for
          your particular application. A partial list of references is given at the end of
          this file. Thank you for giving credit to the authors of these developments.

          For any questions about FHI-aims, please visit our slack channel at

            https://fhi-aims.slack.com

          and our main development and support site at

            https://aims-git.rz-berlin.mpg.de .

          The latter site, in particular, has a wiki to collect information, as well
          as an issue tracker to log discussions, suggest improvements, and report issues
          or bugs. https://aims-git.rz-berlin.mpg.de is also the main development site
          of the project and all new and updated code versions can be obtained there.
          Please send an email to aims-coordinators@fhi-berlin.mpg.de and we will add
          you to these sites. They are for you and everyone is welcome there.

------------------------------------------------------------



  Date     :  20230120, Time     :  165408.075
  Time zero on CPU 1             :   0.400052000000000E+00  s.
  Internal wall clock time zero  :           443465648.075  s.

  FHI-aims created a unique identifier for this run for later identification
  aims_uuid : 8B6CA94B-0FAB-4C12-A663-47D21C75F7C4

  Build configuration of the current instance of FHI-aims
  -------------------------------------------------------
  FHI-aims version      : 220829
  Commit number         : 9895fc21d
  CMake host system     : Linux-5.3.18-150300.59.68-default
  CMake version         : 3.17.0
  Fortran compiler      : /mpcdf/soft/SLE_15/packages/x86_64/intel_oneapi/2021.3/mpi/2021.3.0/bin/mpiifort (Intel) version 20.2.3.20210609
  Fortran compiler flags: -O3 -ip -fp-model precise
  C compiler            : /mpcdf/soft/SLE_15/packages/x86_64/intel/2021.3.0/bin/icc (Intel) version 20.2.3.20210609
  C compiler flags      : -O3 -ip -fp-model precise -std=gnu99
  CUDA compiler         : /mpcdf/soft/SLE_15/packages/x86_64/cuda/11.6.2/bin/nvcc
  CUDA compiler flags   : -O3 -DAdd_ -lcublas
  ELPA2 kernel          : AVX512
  Using MPI
  Using ScaLAPACK
  Using LibXC
  Using CUDA
  Using i-PI
  Using RLSY
  Linking against: /mpcdf/soft/SLE_15/packages/x86_64/cuda/11.6.2/lib64/libcublas.so
                   /mpcdf/soft/SLE_15/packages/x86_64/cuda/11.6.2/lib64/libcudart.so
                   /mpcdf/soft/SLE_15/packages/x86_64/intel_oneapi/2021.3/mkl/latest/lib/intel64/libmkl_intel_lp64.so
                   /mpcdf/soft/SLE_15/packages/x86_64/intel_oneapi/2021.3/mkl/latest/lib/intel64/libmkl_sequential.so
                   /mpcdf/soft/SLE_15/packages/x86_64/intel_oneapi/2021.3/mkl/latest/lib/intel64/libmkl_core.so
                   /mpcdf/soft/SLE_15/packages/x86_64/intel_oneapi/2021.3/mkl/latest/lib/intel64/libmkl_blacs_intelmpi_lp64.so
                   /mpcdf/soft/SLE_15/packages/x86_64/intel_oneapi/2021.3/mkl/latest/lib/intel64/libmkl_scalapack_lp64.so

  Using       18 parallel tasks.
  Task        0 on host adag004 reporting.
  Task        1 on host adag004 reporting.
  Task        2 on host adag004 reporting.
  Task        3 on host adag004 reporting.
  Task        4 on host adag004 reporting.
  Task        5 on host adag004 reporting.
  Task        6 on host adag004 reporting.
  Task        7 on host adag004 reporting.
  Task        8 on host adag004 reporting.
  Task        9 on host adag004 reporting.
  Task       10 on host adag004 reporting.
  Task       11 on host adag004 reporting.
  Task       12 on host adag004 reporting.
  Task       13 on host adag004 reporting.
  Task       14 on host adag004 reporting.
  Task       15 on host adag004 reporting.
  Task       16 on host adag004 reporting.
  Task       17 on host adag004 reporting.

  Performing system and environment tests:
  | Environment variable OMP_NUM_THREADS correctly set to 1.
  | Checking for ScaLAPACK...
  | Testing pdtran()...
  | All pdtran() tests passed.

  Obtaining array dimensions for all initial allocations:
  
  -----------------------------------------------------------------------
  Parsing control.in (first pass over file, find array dimensions only).
  The contents of control.in will be repeated verbatim below
  unless switched off by setting 'verbatim_writeout .false.' .
  in the first line of control.in .
  -----------------------------------------------------------------------
  
  #
  # Input for polarizability replays on generic oligoacene molecular crystals (light settings,  LDA+MBD).
  #
  #########################################################################################
  #
  #  Physical model
  #
    xc                 pw-lda
    spin               none
    relativistic       none
    charge             0.0
    k_grid 	     2 1 1
    DFPT dielectric
  #
  #  GPU acceleration
  #
  # Turns on GPU acceleration everywhere
    use_gpu
  
  # Turns OFF GPU acceleration of ELPA - may be necessary if GPU ELPA is slow
    elsi_elpa_gpu 0
  #
  #  Relaxation
  #
  #  relax_geometry trm 1E-3
  #  relax_unit_cell fixed_angles
  #
  #  SCF convergence        #
    charge_mix_param   0.75
    #sc_accuracy_rho 1E-4
  #
  # i-PI communication
  #
  compute_forces .false.
  # use_pimd_wrapper 130.183.223.27 26118
  #communicate_pimd_wrapper polarizability
  #output_level MD_light
  #
  # Output SALTED info
    ri_density_restart write
    ri_rho1 write
    ri_full_output .true.
  #  sc_accuracy_rho    1d-6
    default_prodbas_acc 1e-6
    default_max_l_prodbas 6
  #
  #
  ################################################################################
  #
  #  FHI-aims code project
  #  VB, Fritz-Haber Institut, 2009
  #
  #  Suggested "light" defaults for H atom (to be pasted into control.in file)
  #  Be sure to double-check any results obtained with these settings for post-processing,
  #  e.g., with the "tight" defaults and larger basis sets.
  #
  ################################################################################
    species        H
  #     global species definitions
      nucleus             1
      mass                1.00794
  #
      l_hartree           4
  #
      cut_pot             3.5  1.5  1.0
      basis_dep_cutoff    1e-4
  #
      radial_base         24 5.0
      radial_multiplier   1
      angular_grids       specified
        division   0.2421   50
        division   0.3822  110
        division   0.4799  194
        division   0.5341  302
  #      division   0.5626  434
  #      division   0.5922  590
  #      division   0.6542  770
  #      division   0.6868 1202
  #      outer_grid  770
        outer_grid  302
  ################################################################################
  #
  #  Definition of "minimal" basis
  #
  ################################################################################
  #     valence basis states
      valence      1  s   1.
  #     ion occupancy
      ion_occ      1  s   0.5
  ################################################################################
  #
  #  Suggested additional basis functions. For production calculations,
  #  uncomment them one after another (the most important basis functions are
  #  listed first).
  #
  #  Basis constructed for dimers: 0.5 A, 0.7 A, 1.0 A, 1.5 A, 2.5 A
  #
  ################################################################################
  #  "First tier" - improvements: -1014.90 meV to -62.69 meV
       hydro 2 s 2.1
       hydro 2 p 3.5
  #  "Second tier" - improvements: -12.89 meV to -1.83 meV
  #     hydro 1 s 0.85
  #     hydro 2 p 3.7
  #     hydro 2 s 1.2
  #     hydro 3 d 7
  #  "Third tier" - improvements: -0.25 meV to -0.12 meV
  #     hydro 4 f 11.2
  #     hydro 3 p 4.8
  #     hydro 4 d 9
  #     hydro 3 s 3.2
  ################################################################################
  ################################################################################
  #
  #  FHI-aims code project
  #  VB, Fritz-Haber Institut, 2009
  #
  #  Suggested "light" defaults for C atom (to be pasted into control.in file)
  #  Be sure to double-check any results obtained with these settings for post-processing,
  #  e.g., with the "tight" defaults and larger basis sets.
  #
  ################################################################################
    species        C
  #     global species definitions
      nucleus             6
      mass                12.0107
  #
      l_hartree           4
  #
      cut_pot             3.5  1.5  1.0
      basis_dep_cutoff    1e-4
  #
      radial_base         34 5.0
      radial_multiplier   1
      angular_grids specified
        division   0.3326   50
        division   0.5710  110
        division   0.7727  194
        division   0.8772  302
  #      division   0.9334  434
  #      division   0.9625  590
  #      division   0.9924  770
  #      division   1.0230  974
  #      division   1.4589 1202
  #     outer_grid  974
       outer_grid 302
  ################################################################################
  #
  #  Definition of "minimal" basis
  #
  ################################################################################
  #     valence basis states
      valence      2  s   2.
      valence      2  p   2.
  #     ion occupancy
      ion_occ      2  s   1.
      ion_occ      2  p   1.
  ################################################################################
  #
  #  Suggested additional basis functions. For production calculations,
  #  uncomment them one after another (the most important basis functions are
  #  listed first).
  #
  #  Constructed for dimers: 1.0 A, 1.25 A, 1.5 A, 2.0 A, 3.0 A
  #
  ################################################################################
  #  "First tier" - improvements: -1214.57 meV to -155.61 meV
       hydro 2 p 1.7
       hydro 3 d 6
       hydro 2 s 4.9
  #  "Second tier" - improvements: -67.75 meV to -5.23 meV
  #     hydro 4 f 9.8
  #     hydro 3 p 5.2
  #     hydro 3 s 4.3
  #     hydro 5 g 14.4
  #     hydro 3 d 6.2
  #  "Third tier" - improvements: -2.43 meV to -0.60 meV
  #     hydro 2 p 5.6
  #     hydro 2 s 1.4
  #     hydro 3 d 4.9
  #     hydro 4 f 11.2
  #  "Fourth tier" - improvements: -0.39 meV to -0.18 meV
  #     hydro 2 p 2.1
  #     hydro 5 g 16.4
  #     hydro 4 d 13.2
  #     hydro 3 s 13.6
  #     hydro 4 f 17.6
  #  Further basis functions - improvements: -0.08 meV and below
  #     hydro 3 s 2
  #     hydro 3 p 6
  #     hydro 4 d 20
  
  -----------------------------------------------------------------------
  Completed first pass over input file control.in .
  -----------------------------------------------------------------------
  
  
  -----------------------------------------------------------------------
  Parsing geometry.in (first pass over file, find array dimensions only).
  The contents of geometry.in will be repeated verbatim below
  unless switched off by setting 'verbatim_writeout .false.' .
  in the first line of geometry.in .
  -----------------------------------------------------------------------
  
  #=======================================================
  # FHI-aims file: /ada/ptmp/mpsd/alewis/naphthalene/qmdata/data/geoms/280.in
  # Created using the Atomic Simulation Environment (ASE)
  # Thu Jan 19 15:19:17 2023
  #=======================================================
  lattice_vector 8.1020000000000003 0.0000000000000000 0.0000000000000000
  lattice_vector 0.0000000000000000 11.8800000000000008 0.0000000000000000
  lattice_vector -9.7850918486534706 0.0000000000000000 14.2571119625755713
  atom -0.9756110000000000 0.1015930000000000 2.3540899999999998 C
  atom 0.1852460000000000 3.0566800000000001 4.9451900000000002 C
  atom 4.1390099999999999 5.8291899999999996 4.8351699999999997 C
  atom 3.2492800000000002 2.7574999999999998 2.2679999999999998 C
  atom -0.2056270000000000 0.9534780000000000 1.5759799999999999 C
  atom -0.5887630000000000 3.8806600000000002 5.7421300000000004 C
  atom 3.3518500000000002 5.0173800000000002 5.6490999999999998 C
  atom 3.9516700000000000 1.9094400000000000 1.4632799999999999 C
  atom 0.2375840000000000 0.5242970000000000 0.2874960000000000 C
  atom -0.9049870000000000 3.5467900000000001 7.0742200000000004 C
  atom 3.0892700000000000 5.4407699999999997 6.9846500000000002 C
  atom 4.3246300000000000 2.2471500000000000 0.1471880000000000 C
  atom -3.7162799999999998 1.4151899999999999 6.5676500000000004 C
  atom 3.1440299999999999 4.3353200000000003 0.4579430000000000 C
  atom 7.1195800000000000 4.4290799999999999 0.5344590000000000 C
  atom 0.4049350000000000 1.4822599999999999 6.7818899999999998 C
  atom -3.4830899999999998 1.0564400000000000 5.2592299999999996 C
  atom 2.8229500000000001 3.9905499999999998 1.7682300000000000 C
  atom 6.8792600000000004 4.7146400000000002 1.8682399999999999 C
  atom 0.6453840000000000 1.8143100000000001 5.4731800000000002 C
  atom -1.2577700000000001 0.4245330000000000 3.3395600000000001 H
  atom 0.3714260000000000 3.4237299999999999 3.9318499999999998 H
  atom 4.2826000000000004 5.5454200000000000 3.8040099999999999 H
  atom 2.9159799999999998 2.4633099999999999 3.2571500000000002 H
  atom 0.1686570000000000 1.9346200000000000 1.9467800000000000 H
  atom -1.0243599999999999 4.7675400000000003 5.3286899999999999 H
  atom 2.9100999999999999 4.1098100000000004 5.2491899999999996 H
  atom 4.2614000000000001 0.9257410000000000 1.8564499999999999 H
  atom -3.4101900000000001 2.3883800000000002 6.9892200000000004 H
  atom 2.8876800000000000 5.3179100000000004 0.0653395000000000 H
  atom 6.7939800000000004 3.4713300000000000 0.1083440000000000 H
  atom 0.7830060000000000 0.5495240000000000 7.1945499999999996 H
  atom -2.9278599999999999 1.7813600000000001 4.6048999999999998 H
  atom 2.2762600000000002 4.6853699999999998 2.3884900000000000 H
  atom 6.4195900000000004 3.9458700000000002 2.4672800000000001 H
  atom 1.2863899999999999 1.1387799999999999 4.9169700000000001 H
  atom -5.5706499999999997 0.1315900000000000 9.5781500000000008 C
  atom -4.6732100000000001 3.0697000000000001 11.8145000000000007 C
  atom -0.8194040000000000 5.8707399999999996 11.9311000000000007 C
  atom -1.4663999999999999 2.8324900000000000 9.7087699999999995 C
  atom -4.7924300000000004 0.9407440000000000 8.7867300000000004 C
  atom -5.4464899999999998 3.9087999999999998 12.6196999999999999 C
  atom -1.5251900000000000 4.9955499999999997 12.6928999999999998 C
  atom -0.6985150000000000 1.9755199999999999 8.9482700000000008 C
  atom -4.4617199999999997 0.5903360000000000 7.4569900000000002 C
  atom -5.8542399999999999 3.5072800000000002 13.8994000000000000 C
  atom -1.8899800000000000 5.3020300000000002 14.0214999999999996 C
  atom -0.4183120000000000 2.3206899999999999 7.6117499999999998 C
  atom -8.7328200000000002 1.3887200000000000 13.7538999999999998 C
  atom -1.6627000000000001 4.4269800000000004 7.8813899999999997 C
  atom 2.2444700000000002 4.6697699999999998 7.8515499999999996 C
  atom -4.6411300000000004 1.4252199999999999 13.6214999999999993 C
  atom -8.4007400000000008 0.9923210000000000 12.4850999999999992 C
  atom -1.9402200000000001 4.0338599999999998 9.1709700000000005 C
  atom 1.9170000000000000 5.0963700000000003 9.0850799999999996 C
  atom -4.2192299999999996 1.8234999999999999 12.3626000000000005 C
  atom -5.8377299999999996 0.4278200000000000 10.6006000000000000 H
  atom -4.3466500000000003 3.3160799999999999 10.7973999999999997 H
  atom -0.5311370000000000 5.5658899999999996 10.9176000000000002 H
  atom -1.7578300000000000 2.5483199999999999 10.7331000000000003 H
  atom -4.3855500000000003 1.8498000000000001 9.2244299999999999 H
  atom -5.7986399999999998 4.8762900000000000 12.1981999999999999 H
  atom -1.8381600000000000 4.0407000000000002 12.3004999999999995 H
  atom -0.2765650000000000 1.0437900000000000 9.3513599999999997 H
  atom -8.4660799999999998 2.3621300000000001 14.1925000000000008 H
  atom -2.0492900000000001 5.3378600000000000 7.4667500000000002 H
  atom 1.8792199999999999 3.7575300000000000 7.4228100000000001 H
  atom -4.3078000000000003 0.4773040000000000 14.0075000000000003 H
  atom -7.7132100000000001 1.5817500000000000 11.8432999999999993 H
  atom -2.5820500000000002 4.6083200000000000 9.8074399999999997 H
  atom 1.2195499999999999 4.5218400000000001 9.7131500000000006 H
  atom -3.5333999999999999 1.2164200000000001 11.7434999999999992 H
  atom -0.7818720000000000 5.9663899999999996 2.4519700000000002 C
  atom 0.1389280000000000 9.2193500000000004 4.7205199999999996 C
  atom 4.1563800000000004 11.6725999999999992 4.8135500000000002 C
  atom 3.1651099999999999 8.6702899999999996 2.4515899999999999 C
  atom -0.0223757000000000 6.8520099999999999 1.6917199999999999 C
  atom -0.6046190000000000 10.0602999999999998 5.5478600000000000 C
  atom 3.4567399999999999 10.8097999999999992 5.6321099999999999 C
  atom 3.9839699999999998 7.8464000000000000 1.6705300000000001 C
  atom 0.2694660000000000 6.5295399999999999 0.3446260000000000 C
  atom -0.9329190000000001 9.6958800000000007 6.8770600000000002 C
  atom 3.1239800000000000 11.1981999999999999 6.9667899999999996 C
  atom 4.3953699999999998 8.2279900000000001 0.3920710000000000 C
  atom -3.6938200000000001 7.4894400000000001 6.6156899999999998 C
  atom 3.1451899999999999 10.3284000000000002 0.7200280000000000 C
  atom 7.0261899999999997 10.3399000000000001 0.5826970000000000 C
  atom 0.1373160000000000 7.5361000000000002 6.4759300000000000 C
  atom -3.4512100000000001 7.0499599999999996 5.3058199999999998 C
  atom 2.7435700000000001 9.9119299999999999 1.9727900000000000 C
  atom 6.6942399999999997 10.7468000000000004 1.8793400000000000 C
  atom 0.4554690000000000 7.9002900000000000 5.1893500000000001 C
  atom -0.9963689999999999 6.1654400000000003 3.4796800000000001 H
  atom 0.4069360000000000 9.4879800000000003 3.7118400000000000 H
  atom 4.3581300000000001 11.4125999999999994 3.7561399999999998 H
  atom 2.8322699999999998 8.2536699999999996 3.3790200000000001 H
  atom 0.3192450000000000 7.8167400000000002 2.0656699999999999 H
  atom -0.9491160000000000 11.0447000000000006 5.2276899999999999 H
  atom 3.0405300000000000 9.8705999999999996 5.2792000000000003 H
  atom 4.1623599999999996 6.8221999999999996 2.0074500000000000 H
  atom -3.3290400000000000 8.4597200000000008 6.9909200000000000 H
  atom 2.8675199999999998 11.3102000000000000 0.3420820000000000 H
  atom 6.7532600000000000 9.3384099999999997 0.2144380000000000 H
  atom 0.4343480000000000 6.5460700000000003 6.8335400000000002 H
  atom -2.9216500000000001 7.7605199999999996 4.7195400000000003 H
  atom 2.0966399999999998 10.5701000000000001 2.5463000000000000 H
  atom 6.1289199999999999 10.0667000000000009 2.5222000000000002 H
  atom 1.0227599999999999 7.1965599999999998 4.5756899999999998 H
  atom -5.6990499999999997 6.3437200000000002 9.5231399999999997 C
  atom -4.6375299999999999 9.1330299999999998 12.0391999999999992 C
  atom -0.7405630000000000 11.6243999999999996 11.9446999999999992 C
  atom -1.5194300000000001 8.9313800000000008 9.5212699999999995 C
  atom -4.9080199999999996 7.1198600000000001 8.7364899999999999 C
  atom -5.4402400000000002 9.9346899999999998 12.8465000000000007 C
  atom -1.5005400000000000 10.7530000000000001 12.7096000000000000 C
  atom -0.8651410000000000 8.0190800000000007 8.7002100000000002 C
  atom -4.5067500000000003 6.6803299999999997 7.4500900000000003 C
  atom -5.8146399999999998 9.5152199999999993 14.1472999999999995 C
  atom -1.9403900000000001 11.1577999999999999 14.0094999999999992 C
  atom -0.5408140000000000 8.4074799999999996 7.3576300000000003 C
  atom -8.7977299999999996 7.4408300000000001 13.7573000000000008 C
  atom -1.6548600000000000 10.5681999999999992 7.7315399999999999 C
  atom 2.3308599999999999 10.3710000000000004 7.7996800000000004 C
  atom -4.5961900000000000 7.4249099999999997 13.7764000000000006 C
  atom -8.4876600000000000 7.1532700000000000 12.4444999999999997 C
  atom -1.9629399999999999 10.1852000000000000 9.0136400000000005 C
  atom 2.0171899999999998 10.7798999999999996 9.0766899999999993 C
  atom -4.2030300000000000 7.8664100000000001 12.5426000000000002 C
  atom -5.9968000000000004 6.7204199999999998 10.4785000000000004 H
  atom -4.3817000000000004 9.4468300000000003 11.0001999999999995 H
  atom -0.3058030000000000 11.2843999999999998 10.9747000000000003 H
  atom -1.8477100000000000 8.6518400000000000 10.5220000000000002 H
  atom -4.6001899999999996 8.0514399999999995 9.1700499999999998 H
  atom -5.8066500000000003 10.9130000000000003 12.5028000000000006 H
  atom -1.7608699999999999 9.7718500000000006 12.3173999999999992 H
  atom -0.6236140000000000 7.0312099999999997 9.0656599999999994 H
  atom -8.4901599999999995 8.4179499999999994 14.1317000000000004 H
  atom -2.1043799999999999 11.4367000000000001 7.2958299999999996 H
  atom 1.9473600000000000 9.4077000000000002 7.4467699999999999 H
  atom -4.2544500000000003 6.4598399999999998 14.1601999999999997 H
  atom -7.8742599999999996 7.8400200000000000 11.8604000000000003 H
  atom -2.5900300000000001 10.8491999999999997 9.6601900000000001 H
  atom 1.3697699999999999 10.1176999999999992 9.6690799999999992 H
  atom -3.5212699999999999 7.2221399999999996 11.9483999999999995 H
  
  -----------------------------------------------------------------------
  Completed first pass over input file geometry.in .
  -----------------------------------------------------------------------
  

  Basic array size parameters:
  | Number of species                 :        2
  | Number of atoms                   :      144
  | Number of lattice vectors         :        3
  | Max. basis fn. angular momentum   :        2
  | Max. atomic/ionic basis occupied n:        2
  | Max. number of basis fn. types    :        2
  | Max. radial fns per species/type  :        3
  | Max. logarithmic grid size        :     1277
  | Max. radial integration grid size :       34
  | Max. angular integration grid size:      302
  | Max. angular grid division number :        8
  | Radial grid for Hartree potential :     1277
  | Number of spin channels           :        1

------------------------------------------------------------
          Reading file control.in.
------------------------------------------------------------
  XC: Using Perdew-Wang parametrisation of Ceperley-Alder LDA.
  Spin treatment: No spin polarisation.
  Non-relativistic treatment of kinetic energy.
  Charge =   0.000000E+00: Neutral system requested explicitly.
  Found k-point grid:         2         1         1
  DFPT calculation will begin after the DFT/HF calculation.
  Charge density mixing - mixing parameter:     0.7500
  Forces will not be computed.
 
  Reading configuration options for species H                   .
  | Found nuclear charge :   1.0000
  | Found atomic mass :    1.00794000000000      amu
  | Found l_max for Hartree potential  :   4
  | Found cutoff potl. onset [A], width [A], scale factor :    3.50000    1.50000    1.00000
  | Threshold for basis-dependent cutoff potential is   0.100000E-03
  | Found data for basic radial integration grid :    24 points, outermost radius =    5.000 A
  | Found multiplier for basic radial grid :   1
  | Found angular grid specification: user-specified.
  | Specified grid contains     5 separate shells.
  | Check grid settings after all constraints further below.
  | Found free-atom valence shell :  1 s   1.000
  | No ionic wave fns used. Skipping ion_occ.
  | Found hydrogenic basis function :  2 s   2.100
  | Found hydrogenic basis function :  2 p   3.500
  Species H                   : Missing cutoff potential type.
  Defaulting to exp(1/x)/(1-x)^2 type cutoff potential.
  Species H : No 'logarithmic' tag. Using default grid for free atom:
  | Default logarithmic grid data [bohr] : 0.1000E-03 0.1000E+03 0.1012E+01
  Species H : On-site basis accuracy parameter (for Gram-Schmidt orthonormalisation) not specified.
  Using default value basis_acc =  0.1000000E-03.
  Species H                   : Using default innermost maximum threshold i_radial=  2 for radial functions.
  Species H                   : Default cutoff onset for free atom density etc. : 0.35000000E+01 AA.
  Species H                   : Basic radial grid will be enhanced according to radial_multiplier =   1, to contain    24 grid points.
 
  Reading configuration options for species C                   .
  | Found nuclear charge :   6.0000
  | Found atomic mass :    12.0107000000000      amu
  | Found l_max for Hartree potential  :   4
  | Found cutoff potl. onset [A], width [A], scale factor :    3.50000    1.50000    1.00000
  | Threshold for basis-dependent cutoff potential is   0.100000E-03
  | Found data for basic radial integration grid :    34 points, outermost radius =    5.000 A
  | Found multiplier for basic radial grid :   1
  | Found angular grid specification: user-specified.
  | Specified grid contains     5 separate shells.
  | Check grid settings after all constraints further below.
  | Found free-atom valence shell :  2 s   2.000
  | Found free-atom valence shell :  2 p   2.000
  | No ionic wave fns used. Skipping ion_occ.
  | No ionic wave fns used. Skipping ion_occ.
  | Found hydrogenic basis function :  2 p   1.700
  | Found hydrogenic basis function :  3 d   6.000
  | Found hydrogenic basis function :  2 s   4.900
  Species C                   : Missing cutoff potential type.
  Defaulting to exp(1/x)/(1-x)^2 type cutoff potential.
  Species C : No 'logarithmic' tag. Using default grid for free atom:
  | Default logarithmic grid data [bohr] : 0.1000E-03 0.1000E+03 0.1012E+01
  Species C : On-site basis accuracy parameter (for Gram-Schmidt orthonormalisation) not specified.
  Using default value basis_acc =  0.1000000E-03.
  Species C                   : Using default innermost maximum threshold i_radial=  2 for radial functions.
  Species C                   : Default cutoff onset for free atom density etc. : 0.35000000E+01 AA.
  Species C                   : Basic radial grid will be enhanced according to radial_multiplier =   1, to contain    34 grid points.
 
  Finished reading input file 'control.in'.
 
------------------------------------------------------------


------------------------------------------------------------
          Reading geometry description geometry.in.
------------------------------------------------------------
  | The smallest distance between any two atoms is         1.06256931 AA.
  | The first atom of this pair is atom number                     89 .
  | The second atom of this pair is atom number                   105 .
  | Wigner-Seitz cell of the first atom image           0     0     0 .
  | (The Wigner-Seitz cell of the second atom is 0 0 0  by definition.)

  Symmetry information by spglib:
  | Precision set to  0.1E-04
  | Number of Operations  : 1
  | Space group           : 1
  | International         : P1
  | Schoenflies           : C1^1
  Input structure read successfully.
  The structure contains      144 atoms,  and a total of        544.000 electrons.

  Input geometry:
  | Unit cell:
  |        8.10200000        0.00000000        0.00000000
  |        0.00000000       11.88000000        0.00000000
  |       -9.78509185        0.00000000       14.25711196
  | Atomic structure:
  |       Atom                x [A]            y [A]            z [A]
  |    1: Species C            -0.97561100        0.10159300        2.35409000
  |    2: Species C             0.18524600        3.05668000        4.94519000
  |    3: Species C             4.13901000        5.82919000        4.83517000
  |    4: Species C             3.24928000        2.75750000        2.26800000
  |    5: Species C            -0.20562700        0.95347800        1.57598000
  |    6: Species C            -0.58876300        3.88066000        5.74213000
  |    7: Species C             3.35185000        5.01738000        5.64910000
  |    8: Species C             3.95167000        1.90944000        1.46328000
  |    9: Species C             0.23758400        0.52429700        0.28749600
  |   10: Species C            -0.90498700        3.54679000        7.07422000
  |   11: Species C             3.08927000        5.44077000        6.98465000
  |   12: Species C             4.32463000        2.24715000        0.14718800
  |   13: Species C            -3.71628000        1.41519000        6.56765000
  |   14: Species C             3.14403000        4.33532000        0.45794300
  |   15: Species C             7.11958000        4.42908000        0.53445900
  |   16: Species C             0.40493500        1.48226000        6.78189000
  |   17: Species C            -3.48309000        1.05644000        5.25923000
  |   18: Species C             2.82295000        3.99055000        1.76823000
  |   19: Species C             6.87926000        4.71464000        1.86824000
  |   20: Species C             0.64538400        1.81431000        5.47318000
  |   21: Species H            -1.25777000        0.42453300        3.33956000
  |   22: Species H             0.37142600        3.42373000        3.93185000
  |   23: Species H             4.28260000        5.54542000        3.80401000
  |   24: Species H             2.91598000        2.46331000        3.25715000
  |   25: Species H             0.16865700        1.93462000        1.94678000
  |   26: Species H            -1.02436000        4.76754000        5.32869000
  |   27: Species H             2.91010000        4.10981000        5.24919000
  |   28: Species H             4.26140000        0.92574100        1.85645000
  |   29: Species H            -3.41019000        2.38838000        6.98922000
  |   30: Species H             2.88768000        5.31791000        0.06533950
  |   31: Species H             6.79398000        3.47133000        0.10834400
  |   32: Species H             0.78300600        0.54952400        7.19455000
  |   33: Species H            -2.92786000        1.78136000        4.60490000
  |   34: Species H             2.27626000        4.68537000        2.38849000
  |   35: Species H             6.41959000        3.94587000        2.46728000
  |   36: Species H             1.28639000        1.13878000        4.91697000
  |   37: Species C            -5.57065000        0.13159000        9.57815000
  |   38: Species C            -4.67321000        3.06970000       11.81450000
  |   39: Species C            -0.81940400        5.87074000       11.93110000
  |   40: Species C            -1.46640000        2.83249000        9.70877000
  |   41: Species C            -4.79243000        0.94074400        8.78673000
  |   42: Species C            -5.44649000        3.90880000       12.61970000
  |   43: Species C            -1.52519000        4.99555000       12.69290000
  |   44: Species C            -0.69851500        1.97552000        8.94827000
  |   45: Species C            -4.46172000        0.59033600        7.45699000
  |   46: Species C            -5.85424000        3.50728000       13.89940000
  |   47: Species C            -1.88998000        5.30203000       14.02150000
  |   48: Species C            -0.41831200        2.32069000        7.61175000
  |   49: Species C            -8.73282000        1.38872000       13.75390000
  |   50: Species C            -1.66270000        4.42698000        7.88139000
  |   51: Species C             2.24447000        4.66977000        7.85155000
  |   52: Species C            -4.64113000        1.42522000       13.62150000
  |   53: Species C            -8.40074000        0.99232100       12.48510000
  |   54: Species C            -1.94022000        4.03386000        9.17097000
  |   55: Species C             1.91700000        5.09637000        9.08508000
  |   56: Species C            -4.21923000        1.82350000       12.36260000
  |   57: Species H            -5.83773000        0.42782000       10.60060000
  |   58: Species H            -4.34665000        3.31608000       10.79740000
  |   59: Species H            -0.53113700        5.56589000       10.91760000
  |   60: Species H            -1.75783000        2.54832000       10.73310000
  |   61: Species H            -4.38555000        1.84980000        9.22443000
  |   62: Species H            -5.79864000        4.87629000       12.19820000
  |   63: Species H            -1.83816000        4.04070000       12.30050000
  |   64: Species H            -0.27656500        1.04379000        9.35136000
  |   65: Species H            -8.46608000        2.36213000       14.19250000
  |   66: Species H            -2.04929000        5.33786000        7.46675000
  |   67: Species H             1.87922000        3.75753000        7.42281000
  |   68: Species H            -4.30780000        0.47730400       14.00750000
  |   69: Species H            -7.71321000        1.58175000       11.84330000
  |   70: Species H            -2.58205000        4.60832000        9.80744000
  |   71: Species H             1.21955000        4.52184000        9.71315000
  |   72: Species H            -3.53340000        1.21642000       11.74350000
  |   73: Species C            -0.78187200        5.96639000        2.45197000
  |   74: Species C             0.13892800        9.21935000        4.72052000
  |   75: Species C             4.15638000       11.67260000        4.81355000
  |   76: Species C             3.16511000        8.67029000        2.45159000
  |   77: Species C            -0.02237570        6.85201000        1.69172000
  |   78: Species C            -0.60461900       10.06030000        5.54786000
  |   79: Species C             3.45674000       10.80980000        5.63211000
  |   80: Species C             3.98397000        7.84640000        1.67053000
  |   81: Species C             0.26946600        6.52954000        0.34462600
  |   82: Species C            -0.93291900        9.69588000        6.87706000
  |   83: Species C             3.12398000       11.19820000        6.96679000
  |   84: Species C             4.39537000        8.22799000        0.39207100
  |   85: Species C            -3.69382000        7.48944000        6.61569000
  |   86: Species C             3.14519000       10.32840000        0.72002800
  |   87: Species C             7.02619000       10.33990000        0.58269700
  |   88: Species C             0.13731600        7.53610000        6.47593000
  |   89: Species C            -3.45121000        7.04996000        5.30582000
  |   90: Species C             2.74357000        9.91193000        1.97279000
  |   91: Species C             6.69424000       10.74680000        1.87934000
  |   92: Species C             0.45546900        7.90029000        5.18935000
  |   93: Species H            -0.99636900        6.16544000        3.47968000
  |   94: Species H             0.40693600        9.48798000        3.71184000
  |   95: Species H             4.35813000       11.41260000        3.75614000
  |   96: Species H             2.83227000        8.25367000        3.37902000
  |   97: Species H             0.31924500        7.81674000        2.06567000
  |   98: Species H            -0.94911600       11.04470000        5.22769000
  |   99: Species H             3.04053000        9.87060000        5.27920000
  |  100: Species H             4.16236000        6.82220000        2.00745000
  |  101: Species H            -3.32904000        8.45972000        6.99092000
  |  102: Species H             2.86752000       11.31020000        0.34208200
  |  103: Species H             6.75326000        9.33841000        0.21443800
  |  104: Species H             0.43434800        6.54607000        6.83354000
  |  105: Species H            -2.92165000        7.76052000        4.71954000
  |  106: Species H             2.09664000       10.57010000        2.54630000
  |  107: Species H             6.12892000       10.06670000        2.52220000
  |  108: Species H             1.02276000        7.19656000        4.57569000
  |  109: Species C            -5.69905000        6.34372000        9.52314000
  |  110: Species C            -4.63753000        9.13303000       12.03920000
  |  111: Species C            -0.74056300       11.62440000       11.94470000
  |  112: Species C            -1.51943000        8.93138000        9.52127000
  |  113: Species C            -4.90802000        7.11986000        8.73649000
  |  114: Species C            -5.44024000        9.93469000       12.84650000
  |  115: Species C            -1.50054000       10.75300000       12.70960000
  |  116: Species C            -0.86514100        8.01908000        8.70021000
  |  117: Species C            -4.50675000        6.68033000        7.45009000
  |  118: Species C            -5.81464000        9.51522000       14.14730000
  |  119: Species C            -1.94039000       11.15780000       14.00950000
  |  120: Species C            -0.54081400        8.40748000        7.35763000
  |  121: Species C            -8.79773000        7.44083000       13.75730000
  |  122: Species C            -1.65486000       10.56820000        7.73154000
  |  123: Species C             2.33086000       10.37100000        7.79968000
  |  124: Species C            -4.59619000        7.42491000       13.77640000
  |  125: Species C            -8.48766000        7.15327000       12.44450000
  |  126: Species C            -1.96294000       10.18520000        9.01364000
  |  127: Species C             2.01719000       10.77990000        9.07669000
  |  128: Species C            -4.20303000        7.86641000       12.54260000
  |  129: Species H            -5.99680000        6.72042000       10.47850000
  |  130: Species H            -4.38170000        9.44683000       11.00020000
  |  131: Species H            -0.30580300       11.28440000       10.97470000
  |  132: Species H            -1.84771000        8.65184000       10.52200000
  |  133: Species H            -4.60019000        8.05144000        9.17005000
  |  134: Species H            -5.80665000       10.91300000       12.50280000
  |  135: Species H            -1.76087000        9.77185000       12.31740000
  |  136: Species H            -0.62361400        7.03121000        9.06566000
  |  137: Species H            -8.49016000        8.41795000       14.13170000
  |  138: Species H            -2.10438000       11.43670000        7.29583000
  |  139: Species H             1.94736000        9.40770000        7.44677000
  |  140: Species H            -4.25445000        6.45984000       14.16020000
  |  141: Species H            -7.87426000        7.84002000       11.86040000
  |  142: Species H            -2.59003000       10.84920000        9.66019000
  |  143: Species H             1.36977000       10.11770000        9.66908000
  |  144: Species H            -3.52127000        7.22214000       11.94840000

  Lattice parameters for 3D lattice (in Angstroms) :     8.102000   11.880000   17.292000
  Angle(s) between unit vectors (in degrees)       :    90.000000  124.463000   90.000000


  Quantities derived from the lattice vectors (in Angstrom^-1):
  | Reciprocal lattice vector 1:  0.775510  0.000000  0.532257
  | Reciprocal lattice vector 2:  0.000000  0.528888  0.000000
  | Reciprocal lattice vector 3: -0.000000  0.000000  0.440705
  | Unit cell volume                               :   0.137227E+04  Angstrom^3

  Fractional coordinates:
                         L1                L2                L3
       atom_frac         0.07900184        0.00855160        0.16511689  C
       atom_frac         0.44177747        0.25729630        0.34685777  C
       atom_frac         0.92045606        0.49067256        0.33914092  C
       atom_frac         0.59317178        0.23211279        0.15907850  C
       atom_frac         0.10812346        0.08025909        0.11053992  C
       atom_frac         0.41375418        0.32665488        0.40275548  C
       atom_frac         0.89224883        0.42233838        0.39623032  C
       atom_frac         0.61169635        0.16072727        0.10263509  C
       atom_frac         0.05367826        0.04413274        0.02016509  C
       atom_frac         0.48756683        0.29855135        0.49618885  C
       atom_frac         0.97297567        0.45797727        0.48990637  C
       atom_frac         0.54624162        0.18915404        0.01032383  C
       atom_frac         0.09766712        0.11912374        0.46065781  C
       atom_frac         0.42684896        0.36492593        0.03212032  C
       atom_frac         0.92401821        0.37281818        0.03748719  C
       atom_frac         0.62448204        0.12476936        0.47568470  C
       atom_frac         0.01561100        0.08892593        0.36888467  C
       atom_frac         0.49821529        0.33590488        0.12402442  C
       atom_frac         1.00734266        0.39685522        0.13103916  C
       atom_frac         0.54329731        0.15271970        0.38389121  C
       atom_frac         0.12765640        0.03573510        0.23423818  H
       atom_frac         0.37891568        0.28819276        0.27578166  H
       atom_frac         0.85082799        0.46678620        0.26681491  H
       atom_frac         0.63582592        0.20734933        0.22845791  H
       atom_frac         0.18573089        0.16284680        0.13654799  H
       atom_frac         0.32496703        0.40130808        0.37375662  H
       atom_frac         0.80384838        0.34594360        0.36818046  H
       atom_frac         0.68323110        0.07792433        0.13021221  H
       atom_frac         0.17115840        0.20104209        0.49022691  H
       atom_frac         0.36195069        0.44763552        0.00458294  H
       atom_frac         0.84773387        0.29219949        0.00759930  H
       atom_frac         0.70610289        0.04625623        0.50462885  H
       atom_frac         0.02871188        0.14994613        0.32298968  H
       atom_frac         0.48328236        0.39439141        0.16752972  H
       atom_frac         1.00135272        0.33214394        0.17305609  H
       atom_frac         0.57529707        0.09585690        0.34487840  H
       atom_frac         0.12381229        0.01107660        0.67181558  C
       atom_frac         0.42402402        0.25839226        0.82867414  C
       atom_frac         0.90956242        0.49417003        0.83685251  C
       atom_frac         0.64144973        0.23842508        0.68097733  C
       atom_frac         0.15282294        0.07918721        0.61630504  C
       atom_frac         0.39679042        0.32902357        0.88515122  C
       atom_frac         0.88698289        0.42050084        0.89028550  C
       atom_frac         0.67180404        0.16628956        0.62763553  C
       atom_frac         0.08099731        0.04969158        0.52303650  C
       atom_frac         0.45486833        0.29522559        0.97490993  C
       atom_frac         0.95450557        0.44629882        0.98347408  C
       atom_frac         0.59317017        0.19534428        0.53389144  C
       atom_frac         0.08725032        0.11689562        0.96470450  C
       atom_frac         0.46242149        0.37264141        0.55280410  C
       atom_frac         0.94214130        0.39307828        0.55071111  C
       atom_frac         0.58105677        0.11996801        0.95541790  C
       atom_frac         0.02075609        0.08352870        0.87571031  C
       atom_frac         0.53741016        0.33955051        0.64325580  C
       atom_frac         1.00621676        0.42898737        0.63723144  C
       atom_frac         0.52648733        0.15349327        0.86711811  C
       atom_frac         0.17746061        0.03601178        0.74353067  H
       atom_frac         0.37817030        0.27913131        0.75733431  H
       atom_frac         0.85928730        0.46850926        0.76576519  H
       atom_frac         0.69225188        0.21450505        0.75282428  H
       atom_frac         0.24012075        0.15570707        0.64700551  H
       atom_frac         0.31762005        0.41046212        0.85558702  H
       atom_frac         0.81511346        0.34012626        0.86276239  H
       atom_frac         0.75803003        0.08786111        0.65590844  H
       atom_frac         0.15732741        0.19883249        0.99546809  H
       atom_frac         0.37958144        0.44931481        0.52372107  H
       atom_frac         0.86074074        0.31629040        0.52063910  H
       atom_frac         0.65489700        0.04017710        0.98249211  H
       atom_frac         0.05124770        0.13314394        0.83069418  H
       atom_frac         0.51210762        0.38790572        0.68789808  H
       atom_frac         0.97333767        0.38062626        0.68128454  H
       atom_frac         0.55869206        0.10239226        0.82369417  H
       atom_frac         0.11120587        0.50222138        0.17198224  C
       atom_frac         0.41702854        0.77603956        0.33109931  C
       atom_frac         0.92076852        0.98254209        0.33762448  C
       atom_frac         0.59833512        0.72982239        0.17195558  C
       atom_frac         0.14054597        0.57676852        0.11865797  C
       atom_frac         0.39534028        0.84682660        0.38912930  C
       atom_frac         0.90375578        0.90991582        0.39503863  C
       atom_frac         0.63323942        0.66047138        0.11717170  C
       atom_frac         0.06245290        0.54962458        0.02417222  C
       atom_frac         0.46741762        0.81615152        0.48235996  C
       atom_frac         0.97574685        0.94260943        0.48865366  C
       atom_frac         0.57571715        0.69259175        0.02750003  C
       atom_frac         0.10450880        0.63042424        0.46402736  C
       atom_frac         0.44919368        0.86939394        0.05050308  C
       atom_frac         0.91657773        0.87036195        0.04087062  C
       atom_frac         0.56553255        0.63435185        0.45422453  C
       atom_frac         0.02349253        0.59343098        0.37215251  C
       atom_frac         0.50574625        0.83433754        0.13837234  C
       atom_frac         0.98544662        0.90461279        0.13181772  C
       atom_frac         0.49581320        0.66500758        0.36398325  C
       atom_frac         0.17178990        0.51897643        0.24406626  H
       atom_frac         0.36466123        0.79865152        0.26035006  H
       atom_frac         0.85609525        0.96065657        0.26345728  H
       atom_frac         0.63581767        0.69475337        0.23700592  H
       atom_frac         0.21438873        0.65797475        0.14488699  H
       atom_frac         0.32569828        0.92968855        0.36667244  H
       atom_frac         0.82248906        0.83085859        0.37028537  H
       atom_frac         0.68379836        0.57425926        0.14080341  H
       atom_frac         0.18131846        0.71209764        0.49034615  H
       atom_frac         0.38290562        0.95203704        0.02399378  H
       atom_frac         0.85169530        0.78606145        0.01504077  H
       atom_frac         0.63248771        0.55101599        0.47930745  H
       atom_frac         0.03918966        0.65324242        0.33103058  H
       atom_frac         0.47448081        0.88973906        0.17859858  H
       atom_frac         0.97012873        0.84736532        0.17690820  H
       atom_frac         0.51384793        0.60577104        0.32094088  H
       atom_frac         0.10330439        0.53398316        0.66795716  C
       atom_frac         0.44746249        0.76877357        0.84443470  C
       atom_frac         0.92044555        0.97848485        0.83780642  C
       atom_frac         0.61902107        0.75179966        0.66782600  C
       atom_frac         0.13430020        0.59931481        0.61278119  C
       atom_frac         0.41677434        0.83625337        0.90105907  C
       atom_frac         0.89144002        0.90513468        0.89145684  C
       atom_frac         0.63022453        0.67500673        0.61023649  C
       atom_frac         0.07485492        0.56231734        0.52255254  C
       atom_frac         0.48075593        0.80094444        0.99229774  C
       atom_frac         0.94726712        0.93920875        0.98263239  C
       atom_frac         0.55652338        0.70770034        0.51606735  C
       atom_frac         0.07952674        0.62633249        0.96494297  C
       atom_frac         0.45069517        0.88957912        0.54229356  C
       atom_frac         0.94841013        0.87297980        0.54707293  C
       atom_frac         0.59972532        0.62499242        0.96628266  C
       atom_frac         0.00658860        0.60212710        0.87286261  C
       atom_frac         0.52127829        0.85734007        0.63222061  C
       atom_frac         1.01787211        0.90739899        0.63664296  C
       atom_frac         0.54373486        0.66215572        0.87974339  C
       atom_frac         0.14748395        0.56569192        0.73496652  H
       atom_frac         0.39102365        0.79518771        0.77155879  H
       atom_frac         0.89193646        0.94986532        0.76977021  H
       atom_frac         0.66327577        0.72826936        0.73801763  H
       atom_frac         0.20902193        0.67773064        0.64319127  H
       atom_frac         0.34243445        0.91860269        0.87695180  H
       atom_frac         0.82608470        0.82254630        0.86394776  H
       atom_frac         0.69099304        0.59185269        0.63586931  H
       atom_frac         0.14920486        0.70858165        0.99120355  H
       atom_frac         0.35830304        0.96268519        0.51173267  H
       atom_frac         0.87118069        0.79189394        0.52231967  H
       atom_frac         0.67441721        0.54375758        0.99320255  H
       atom_frac         0.03281846        0.65993434        0.83189359  H
       atom_frac         0.49864895        0.91323232        0.67756991  H
       atom_frac         0.98814555        0.85165825        0.67819345  H
       atom_frac         0.57754656        0.60792424        0.83806594  H

 
  Finished reading input file 'geometry.in'.
 

 
  Consistency checks for stacksize environment parameter are next.
 
  | Maximum stacksize for task 0: unlimited
  | Maximum stacksize for task 1: unlimited
  | Maximum stacksize for task 2: unlimited
  | Maximum stacksize for task 3: unlimited
  | Maximum stacksize for task 4: unlimited
  | Maximum stacksize for task 5: unlimited
  | Maximum stacksize for task 6: unlimited
  | Maximum stacksize for task 7: unlimited
  | Maximum stacksize for task 8: unlimited
  | Maximum stacksize for task 9: unlimited
  | Maximum stacksize for task 10: unlimited
  | Maximum stacksize for task 11: unlimited
  | Maximum stacksize for task 12: unlimited
  | Maximum stacksize for task 13: unlimited
  | Maximum stacksize for task 14: unlimited
  | Maximum stacksize for task 15: unlimited
  | Maximum stacksize for task 16: unlimited
  | Maximum stacksize for task 17: unlimited
  | Current stacksize for task 0: unlimited
  | Current stacksize for task 1: unlimited
  | Current stacksize for task 2: unlimited
  | Current stacksize for task 3: unlimited
  | Current stacksize for task 4: unlimited
  | Current stacksize for task 5: unlimited
  | Current stacksize for task 6: unlimited
  | Current stacksize for task 7: unlimited
  | Current stacksize for task 8: unlimited
  | Current stacksize for task 9: unlimited
  | Current stacksize for task 10: unlimited
  | Current stacksize for task 11: unlimited
  | Current stacksize for task 12: unlimited
  | Current stacksize for task 13: unlimited
  | Current stacksize for task 14: unlimited
  | Current stacksize for task 15: unlimited
  | Current stacksize for task 16: unlimited
  | Current stacksize for task 17: unlimited
 
  Consistency checks for the contents of control.in are next.
 
  MPI_IN_PLACE appears to work with this MPI implementation.
  | Keeping use_mpi_in_place .true. (see manual).
  Explicit treatment of the Coulomb operator is needed, but the RI method is not specified.
  Coulomb operator: Defaulting to 'LVL fast' resolution of identity - RI_type = LVL_fast
  Species H: Using default value for prodbas_acc =   1.000000E-06.
  Species H: Using default value max_l_prodbas =     6.
  Species C: Using default value for prodbas_acc =   1.000000E-06.
  Species C: Using default value max_l_prodbas =     6.
  Target number of points in a grid batch is not set.  Since GPU acceleration is enabled, defaulting to  200
  Method for grid partitioning is not set. Defaulting to parallel hash+maxmin partitioning.
  Batch size limit is not set. Defaulting to    200
  By default, will store active basis functions for each batch.
  If in need of memory, prune_basis_once .false. can be used to disable this option.
  communication_type for Hartree potential was not specified.
  Defaulting to calc_hartree .
  Defaulting to Pulay charge density mixer.
  Pulay mixer: Number of relevant iterations not set.
  Defaulting to    8 iterations.
  Pulay mixer: Number of initial linear mixing iterations not set.
  Defaulting to    0 iterations.
  Work space size for distributed Hartree potential not set.
  Defaulting to   0.200000E+03 MB.
  Algorithm-dependent basis array size parameters:
  | n_max_pulay                         :        8
  Maximum number of self-consistency iterations not provided.
  Presetting  1000 iterations.
  Presetting      1001 iterations before the initial mixing cycle
  is restarted anyway using the sc_init_iter criterion / keyword.
  Presetting a factor      1.000 between actual scf density residual
  and density convergence criterion sc_accuracy_rho below which sc_init_iter
  takes no effect.
 * No s.c.f. convergence criteria (sc_accuracy_*) were provided in control.in.
 * The run will proceed with a reasonable default guess, but please check whether.
 * the s.c.f. cycles seem to take too much or too little time.
  Geometry relaxation not requested: no relaxation will be performed.
 * Notice: The s.c.f. convergence criterion sc_accuracy_rho was not provided.
 * We used to stop in this case, and ask the user to provide reasonable
 * scf convergence criteria. However, this led some users to employ criteria
 * that led to extremely long run times, e.g., for simple relaxation.
 * We now preset a default value for sc_accuracy_rho if it is not set.
 * You may still wish to check if this setting is too tight or too loose for your needs.
 * Based on n_atoms and forces and force-correction status, FHI-aims chose sc_accuracy_rho =  0.391918E-04 .
  No accuracy limit for integral partition fn. given. Defaulting to  0.1000E-14.
  No threshold value for u(r) in integrations given. Defaulting to  0.1000E-05.
  No occupation type (smearing scheme) given. Defaulting to Gaussian broadening, width =  0.1000E-01 eV.
  The width will be adjusted in iteration number     2 of the first full s.c.f. cycle only.
  S.C.F. convergence parameters will be adjusted in iteration number     2 of the first full s.c.f. cycle only.
  No accuracy for occupation numbers given. Defaulting to  0.1000E-12.
  No threshold value for occupation numbers given. Defaulting to  0.0000E+00.
  No accuracy for fermi level given. Defaulting to  0.1000E-19.
  Maximum # of iterations to find E_F not set. Defaulting to  200.
  Preferred method for the eigenvalue solver ('KS_method') not specified in 'control.in'.
  Calling BLACS routine to test compilation state
  Since ScaLAPACK support is enabled, defaulting to ELPA (via ELSI).
  Will not use alltoall communication since running on < 1024 CPUs.
  Threshold for basis singularities not set.
  Default threshold for basis singularities:  0.1000E-04
  partition_type (choice of integration weights) for integrals was not specified.
  | Using a version of the partition function of Stratmann and coworkers ('stratmann_sparse').
  | At each grid point, the set of atoms used to build the partition table is smoothly restricted to
  | only those atoms whose free-atom density would be non-zero at that grid point.
  Partitioning for Hartree potential was not defined. Using partition_type for integrals.
  | Adjusted default value of keyword multip_moments_threshold to:       0.10000000E-11
  | This value may affect high angular momentum components of the Hartree potential in periodic systems.
  Angular momentum expansion for Kerker preconditioner not set explicitly.
  | Using default value of   0
  No explicit requirement for turning off preconditioner.
  | By default, it will be turned off when the charge convergence reaches
  | sc_accuracy_rho  =   0.391918E-04
  No special mixing parameter while Kerker preconditioner is on.
  Using default: charge_mix_param =     0.7500.
  Threshold for auxiliary basis singularities not set.
  Default threshold for auxiliary basis singularities:  0.1000E-04
  No q(lm)/r^(l+1) cutoff set for long-range Hartree potential.
  | Using default value of  0.100000E-09 .
  | Verify using the multipole_threshold keyword.
  Defaulting to new monopole extrapolation.
  Density update method: automatic selection selected.
  Using density matrix based charge density update.
  Using density matrix based charge density update.
  Using packed matrix style: index .
  Defaulting to use time-reversal symmetry for k-point grid.
  Charge integration errors on the 3D integration grid will be compensated
  by explicit normalization and distribution of residual charges.
  Use the "compensate_multipole_errors" flag to change this behaviour.
  Default to 1D ("use_logsbt") integrations for auxiliary 2-center integrals.
  Default onset of logarithmic r-grid for SBT is -38.000000000000
  Default onset of logarithmic k-grid for SBT is -25.000000000000
  Default range of logarithmic r- and k-grid for SBT is  45.000000000000
  Default number of logarithmic r- and k-grid for SBT is   4096
  Default of use_2d_corr is to use the efficient 2D distribution where possible
 
  Consistency checks for the contents of geometry.in are next.
 

  Range separation radius for Ewald summation (hartree_convergence_parameter):      2.91768261 bohr.
  Number of empty states per atom not set in control.in .
  | Since you are using a method that relies on the unoccupied spectrum
  | (MP2,GW,RPA et al.), will use the full Hamiltonian size (see below)
  | as the max. possible number of states (occupied plus empty).

  Structure-dependent array size parameters: 
  | Maximum number of distinct radial functions  :        9
  | Maximum number of basis functions            :     1440
  | Number of Kohn-Sham states (occupied + empty):     1440
------------------------------------------------------------
CUDA runtime version: 11060
CUDA driver version: 11060
  Initializing GPUs...

  Number of GPUs available to MPI task         0 :   1
  Number of GPUs available to MPI task         1 :   1
  Number of GPUs available to MPI task         2 :   1
  Number of GPUs available to MPI task         3 :   1
  Number of GPUs available to MPI task         4 :   1
  Number of GPUs available to MPI task         5 :   1
  Number of GPUs available to MPI task         6 :   1
  Number of GPUs available to MPI task         7 :   1
  Number of GPUs available to MPI task         8 :   1
  Number of GPUs available to MPI task         9 :   1
  Number of GPUs available to MPI task        10 :   1
  Number of GPUs available to MPI task        11 :   1
  Number of GPUs available to MPI task        12 :   1
  Number of GPUs available to MPI task        13 :   1
  Number of GPUs available to MPI task        14 :   1
  Number of GPUs available to MPI task        15 :   1
  Number of GPUs available to MPI task        16 :   1
  Number of GPUs available to MPI task        17 :   1

  | MPI task         0, GPU activated = T, Device Name = NVIDIA A100-SXM4-80GB
  | MPI task         1, GPU activated = T, Device Name = NVIDIA A100-SXM4-80GB
  | MPI task         2, GPU activated = T, Device Name = NVIDIA A100-SXM4-80GB
  | MPI task         3, GPU activated = T, Device Name = NVIDIA A100-SXM4-80GB
  | MPI task         4, GPU activated = T, Device Name = NVIDIA A100-SXM4-80GB
  | MPI task         5, GPU activated = T, Device Name = NVIDIA A100-SXM4-80GB
  | MPI task         6, GPU activated = T, Device Name = NVIDIA A100-SXM4-80GB
  | MPI task         7, GPU activated = T, Device Name = NVIDIA A100-SXM4-80GB
  | MPI task         8, GPU activated = T, Device Name = NVIDIA A100-SXM4-80GB
  | MPI task         9, GPU activated = T, Device Name = NVIDIA A100-SXM4-80GB
  | MPI task        10, GPU activated = T, Device Name = NVIDIA A100-SXM4-80GB
  | MPI task        11, GPU activated = T, Device Name = NVIDIA A100-SXM4-80GB
  | MPI task        12, GPU activated = T, Device Name = NVIDIA A100-SXM4-80GB
  | MPI task        13, GPU activated = T, Device Name = NVIDIA A100-SXM4-80GB
  | MPI task        14, GPU activated = T, Device Name = NVIDIA A100-SXM4-80GB
  | MPI task        15, GPU activated = T, Device Name = NVIDIA A100-SXM4-80GB
  | MPI task        16, GPU activated = T, Device Name = NVIDIA A100-SXM4-80GB
  | MPI task        17, GPU activated = T, Device Name = NVIDIA A100-SXM4-80GB

------------------------------------------------------------
          Preparing all fixed parts of the calculation.
------------------------------------------------------------
  Determining machine precision:
    2.225073858507201E-308
  Setting up grids for atomic and cluster calculations.

  Creating wave function, potential, and density for free atoms.
  Runtime choices for atomic solver:
  | atomic solver xc        : PW-LDA
  | compute density gradient: 0
  | compute kinetic density : F

  Species: H

  List of occupied orbitals and eigenvalues:
    n    l              occ      energy [Ha]    energy [eV]
    1    0           1.0000        -0.232375        -6.3233


  Species: C

  List of occupied orbitals and eigenvalues:
    n    l              occ      energy [Ha]    energy [eV]
    1    0           2.0000        -9.944615      -270.6068
    2    0           2.0000        -0.498807       -13.5732
    2    1           2.0000        -0.196968        -5.3598


  Adding cutoff potential to free-atom effective potential.
  Creating fixed part of basis set: Ionic, confined, hydrogenic.
 
  H                    hydrogenic:
 
  List of hydrogenic basis orbitals: 
    n    l      effective z      eigenvalue [eV]  inner max. [A]     outer max. [A]     outer radius [A]   
    2    0         2.100000       -14.9728           0.193243           1.317208           4.583499
    2    1         3.500000       -41.6669           0.602369           0.602369           3.723403
 
 
  C                    hydrogenic:
 
  List of hydrogenic basis orbitals: 
    n    l      effective z      eigenvalue [eV]  inner max. [A]     outer max. [A]     outer radius [A]   
    2    1         1.700000        -9.7616           1.230570           1.230570           4.607917
    3    2         6.000000       -54.4224           0.792453           0.792453           3.883070
    2    0         4.900000       -81.6679           0.082559           0.562749           3.078220
 
  Creating atomic-like basis functions for current effective potential.

  Species H                   :

  List of atomic basis orbitals and eigenvalues:
    n    l      energy [Ha]    energy [eV]    outer radius [A]
    1    0        -0.232375        -6.3233       4.527807


  Species C                   :

  List of atomic basis orbitals and eigenvalues:
    n    l      energy [Ha]    energy [eV]    outer radius [A]
    1    0        -9.944615      -270.6068       1.934409
    2    0        -0.498807       -13.5732       4.496620
    2    1        -0.196968        -5.3598       4.551928

  Assembling full basis from fixed parts.
  | Species H :   atomic orbital   1 s accepted.
  | Species H :    hydro orbital   2 s accepted.
  | Species H :    hydro orbital   2 p accepted.
  | Species C :   atomic orbital   1 s accepted.
  | Species C :    hydro orbital   2 s accepted.
  | Species C :   atomic orbital   2 s accepted.
  | Species C :   atomic orbital   2 p accepted.
  | Species C :    hydro orbital   2 p accepted.
  | Species C :    hydro orbital   3 d accepted.
 
  Basis size parameters after reduction:
  | Total number of radial functions:        9
  | Total number of basis functions :     1440
 
  Per-task memory consumption for arrays in subroutine allocate_ext:
  |           2.242384MB.
  Testing on-site integration grid accuracy.
  |  Species  Function  <phi|h_atom|phi> (log., in eV)  <phi|h_atom|phi> (rad., in eV)
           1        1                 -6.3245358373                 -6.3232436907
           1        2                 14.1326137532                 14.1384481100
           1        3                 25.3627025200                 25.3628451197
           2        4               -270.6067544938               -270.6067222788
           2        5                -10.5634280949                -10.5635685736
           2        6                 16.2089822398                 16.2052121796
           2        7                 -5.3613872565                 -5.3627872378
           2        8                  8.5292058327                  8.5051734780
           2        9                 27.4884461005                 27.4884542459

  Preparing densities etc. for the partition functions (integrals / Hartree potential).

  Preparations completed.
  max(cpu_time)          :      0.070 s.
  Wall clock time (cpu1) :      0.069 s.
------------------------------------------------------------

  Initializing index lists of integration centers etc. from given atomic structure:
  Mapping all atomic coordinates to central unit cell.

  Initializing the k-points
  Using symmetry for reducing the k-points
  | k-points reduced from:        2 to        2
  | Number of k-points                             :         2
  | Consuming          0 KiB for k_phase_exx.
  The eigenvectors in the calculations are REAL.
  | Number of basis functions in the Hamiltonian integrals :      7994
  | Number of basis functions in a single unit cell        :      1440
  | Number of centers in hartree potential         :      3321
  | Number of centers in hartree multipole         :      2558
  | Number of centers in electron density summation:      1993
  | Number of centers in basis integrals           :      2120
  | Number of centers in integrals                 :       956
  | Number of centers in hamiltonian               :      2003
  | Consuming          1 KiB for k_phase.
  | Number of super-cells (origin) [n_cells]                     :         175
  | Number of super-cells (after PM_index) [n_cells]             :          38
  | Number of super-cells in hamiltonian [n_cells_in_hamiltonian]:          38
  | Size of matrix packed + index [n_hamiltonian_matrix_size] :     1930793
  | Size of matrix packed + index (no_symmetry):     3858769

------------------------------------------------------------
          Begin self-consistency loop: Initialization.

          Date     :  20230120, Time     :  165421.419
------------------------------------------------------------
  | Estimated reciprocal-space cutoff momentum G_max:         3.24344278 bohr^-1 .
  | Reciprocal lattice points for long-range Hartree potential:    5310
  Using simple linear distribution as default method for k-point parallelism.
  * Using 18 tasks for Scalapack Eigenvalue solver.
  Detailed listing of tasks and assigned k-points:
   Task     0 k-point     1 on adag004
   Task     1 k-point     1 on adag004
   Task     2 k-point     1 on adag004
   Task     3 k-point     1 on adag004
   Task     4 k-point     1 on adag004
   Task     5 k-point     1 on adag004
   Task     6 k-point     1 on adag004
   Task     7 k-point     1 on adag004
   Task     8 k-point     1 on adag004
   Task     9 k-point     2 on adag004
   Task    10 k-point     2 on adag004
   Task    11 k-point     2 on adag004
   Task    12 k-point     2 on adag004
   Task    13 k-point     2 on adag004
   Task    14 k-point     2 on adag004
   Task    15 k-point     2 on adag004
   Task    16 k-point     2 on adag004
   Task    17 k-point     2 on adag004
  K-point:     1 Tasks:     9 split into      3 X      3 BLACS grid
  Calculating block size based on n_basis =         1440  max_nprow =            3  max_npcol =            3
  ScaLAPACK block size set to:           16
  Allocating        1.758 MB for ovlp
  Allocating        1.758 MB for ham
  Allocating        1.758 MB for eigenvec
  Required Scalapack workspace - INTEGER:            1  REAL:             1
  Partitioning the integration grid into batches with parallel hashing+maxmin method.
  | Number of batches:     5376
  | Maximal batch size:     197
  | Minimal batch size:     103
  | Average batch size:     142.083
  | Standard deviation of batch sizes:      30.592

  Integration load balanced across    18 MPI tasks.
  Work distribution over tasks is as follows:
  Task     0 has      42441 integration points.
  Task     1 has      42447 integration points.
  Task     2 has      42534 integration points.
  Task     3 has      42444 integration points.
  Task     4 has      42438 integration points.
  Task     5 has      42415 integration points.
  Task     6 has      42437 integration points.
  Task     7 has      42522 integration points.
  Task     8 has      42497 integration points.
  Task     9 has      42386 integration points.
  Task    10 has      42444 integration points.
  Task    11 has      42351 integration points.
  Task    12 has      42473 integration points.
  Task    13 has      42520 integration points.
  Task    14 has      42338 integration points.
  Task    15 has      42416 integration points.
  Task    16 has      42354 integration points.
  Task    17 has      42383 integration points.
  Initializing partition tables, free-atom densities, potentials, etc. across the integration grid (initialize_grid_storage).
  | initialize_grid_storage: Actual outermost partition radius vs. multipole_radius_free
  | (-- VB: in principle, multipole_radius_free should be larger, hence this output)
  | Species        1: Confinement radius =              4.999999999999999 AA, multipole_radius_free =              5.054417573612229 AA.
  | Species        1: outer_partition_radius set to              5.054417573612229 AA .
  | Species        2: Confinement radius =              4.999999999999999 AA, multipole_radius_free =              5.019602836301480 AA.
  | Species        2: outer_partition_radius set to              5.019602836301480 AA .
  | The sparse table of interatomic distances needs       7623.47 kbyte instead of     35955.20 kbyte of memory.
  | Net number of integration points:   763840
  | of which are non-zero points    :   605287
  | Numerical average free-atom electrostatic potential    :     -8.61470477 eV
  Renormalizing the initial density to the exact electron count on the 3D integration grid.
  | Initial density: Formal number of electrons (from input files) :     544.0000000000
  | Integrated number of electrons on 3D grid     :     543.9982899620
  | Charge integration error                      :      -0.0017100380
  | Normalization factor for density and gradient :       1.0000031435
  Renormalizing the free-atom superposition density to the exact electron count on the 3D integration grid.
  | Formal number of electrons (from input files) :     544.0000000000
  | Integrated number of electrons on 3D grid     :     543.9982899620
  | Charge integration error                      :      -0.0017100380
  | Normalization factor for density and gradient :       1.0000031435
  Obtaining max. number of non-zero basis functions in each batch (get_n_compute_maxes).
  | Maximal number of non-zero basis functions:      545 in task     0
  | Maximal number of non-zero basis functions:      536 in task     1
  | Maximal number of non-zero basis functions:      537 in task     2
  | Maximal number of non-zero basis functions:      542 in task     3
  | Maximal number of non-zero basis functions:      561 in task     4
  | Maximal number of non-zero basis functions:      551 in task     5
  | Maximal number of non-zero basis functions:      530 in task     6
  | Maximal number of non-zero basis functions:      551 in task     7
  | Maximal number of non-zero basis functions:      540 in task     8
  | Maximal number of non-zero basis functions:      548 in task     9
  | Maximal number of non-zero basis functions:      536 in task    10
  | Maximal number of non-zero basis functions:      532 in task    11
  | Maximal number of non-zero basis functions:      548 in task    12
  | Maximal number of non-zero basis functions:      535 in task    13
  | Maximal number of non-zero basis functions:      552 in task    14
  | Maximal number of non-zero basis functions:      536 in task    15
  | Maximal number of non-zero basis functions:      541 in task    16
  | Maximal number of non-zero basis functions:      547 in task    17
  Integrating Hamiltonian matrix: batch-based integration.
  GPU acceleration will be used when integrating the Hamiltonian matrix.
  Reporting GPU memory usage by myid 0.  Note that it is likely not the only MPI task binding to its GPU!
  Allocating        2.376 MB on GPU for hamiltonian_shell
  Allocating        0.859 MB on GPU for wave
  Allocating        0.002 MB on GPU for partition
  Allocating        0.859 MB on GPU for h_times_psi
  Time summed over all CPUs for integration: real work       21.004 s, elapsed       21.675 s
  Deallocating memory used on GPU for Hamiltonian integration.
  Integrating overlap matrix.
  Time summed over all CPUs for integration: real work       17.970 s, elapsed       18.155 s
  Deallocating overlap matrix.

  Updating Kohn-Sham eigenvalues and eigenvectors using ELSI and the ELPA eigensolver.
  Singularity check in k-point 1 (analysis for other k-points may follow below):
  Overlap matrix is not singular
  | Lowest and highest eigenvalues :  0.7755E-03,  0.8274E+01
  Finished singularity check of overlap matrix
  | Time :     0.098 s
  Starting ELPA eigensolver
  Finished Cholesky decomposition
  | Time :     0.018 s
  Finished transformation to standard eigenproblem
  | Time :     0.022 s
  Finished solving standard eigenproblem
  | Time :     0.214 s
  Finished back-transformation of eigenvectors
  | Time :     0.018 s

  Obtaining occupation numbers and electronic chemical potential using ELSI.
  | Note that, for insulating systems, the printed 'chemical potential' value is not uniquely defined.
  | It can be anywhere in the energy gap, as long as it correctly separates occupied and unoccupied states.
  | In systems with a gap, the physically relevant chemical potential is the VBM or HOMO.

  | Chemical potential (Fermi level):    -8.20926003 eV
  Writing Kohn-Sham eigenvalues.
  K-point:       1 at    0.000000    0.000000    0.000000 (in units of recip. lattice)

  State    Occupation    Eigenvalue [Ha]    Eigenvalue [eV]
      1       2.00000         -10.072634         -274.09033
      2       2.00000         -10.070873         -274.04240
      3       2.00000         -10.070780         -274.03986
      4       2.00000         -10.070637         -274.03597
      5       2.00000         -10.070516         -274.03269
      6       2.00000         -10.070495         -274.03210
      7       2.00000         -10.070049         -274.01999
      8       2.00000         -10.069025         -273.99211
      9       2.00000         -10.068010         -273.96448
     10       2.00000         -10.067987         -273.96386
     11       2.00000         -10.067912         -273.96183
     12       2.00000         -10.067822         -273.95938
     13       2.00000         -10.067745         -273.95728
     14       2.00000         -10.067271         -273.94439
     15       2.00000         -10.066948         -273.93560
     16       2.00000         -10.066739         -273.92991
     17       2.00000         -10.066504         -273.92350
     18       2.00000         -10.065997         -273.90973
     19       2.00000         -10.065903         -273.90716
     20       2.00000         -10.065458         -273.89504
     21       2.00000         -10.065426         -273.89417
     22       2.00000         -10.065384         -273.89305
     23       2.00000         -10.065267         -273.88986
     24       2.00000         -10.065149         -273.88665
     25       2.00000         -10.064811         -273.87744
     26       2.00000         -10.064722         -273.87502
     27       2.00000         -10.064662         -273.87338
     28       2.00000         -10.064564         -273.87072
     29       2.00000         -10.064381         -273.86573
     30       2.00000         -10.064348         -273.86484
     31       2.00000         -10.064077         -273.85746
     32       2.00000         -10.063794         -273.84976
     33       2.00000         -10.063406         -273.83922
     34       2.00000         -10.063314         -273.83670
     35       2.00000         -10.063183         -273.83313
     36       2.00000         -10.063087         -273.83054
     37       2.00000         -10.063066         -273.82996
     38       2.00000         -10.062618         -273.81778
     39       2.00000         -10.062560         -273.81620
     40       2.00000         -10.062456         -273.81335
     41       2.00000         -10.062269         -273.80827
     42       2.00000         -10.062138         -273.80470
     43       2.00000         -10.062079         -273.80309
     44       2.00000         -10.061992         -273.80074
     45       2.00000         -10.061959         -273.79983
     46       2.00000         -10.061914         -273.79860
     47       2.00000         -10.061854         -273.79698
     48       2.00000         -10.061643         -273.79124
     49       2.00000         -10.061614         -273.79045
     50       2.00000         -10.061481         -273.78684
     51       2.00000         -10.061261         -273.78084
     52       2.00000         -10.061102         -273.77652
     53       2.00000         -10.061074         -273.77576
     54       2.00000         -10.061066         -273.77553
     55       2.00000         -10.061059         -273.77535
     56       2.00000         -10.061038         -273.77478
     57       2.00000         -10.061017         -273.77420
     58       2.00000         -10.060984         -273.77331
     59       2.00000         -10.060782         -273.76780
     60       2.00000         -10.060447         -273.75870
     61       2.00000         -10.060293         -273.75449
     62       2.00000         -10.059989         -273.74623
     63       2.00000         -10.059257         -273.72631
     64       2.00000         -10.059238         -273.72580
     65       2.00000         -10.058974         -273.71860
     66       2.00000         -10.058706         -273.71130
     67       2.00000         -10.058576         -273.70777
     68       2.00000         -10.058496         -273.70559
     69       2.00000         -10.058369         -273.70213
     70       2.00000         -10.058155         -273.69633
     71       2.00000         -10.057763         -273.68565
     72       2.00000         -10.057183         -273.66987
     73       2.00000         -10.056857         -273.66101
[...]
  |    H      0     4.527807 A      4.583499 A        4.713786E-16 a.u.
  |    H      2     3.678162 A  1.011968E+04 A            0.556529 a.u.
  |    H      1     3.958095 A  1.721251E+06 A            0.841931 a.u.
  |    H      0     4.527807 A  3.866455E+12 A            0.581436 a.u.
  |    C      0     2.562483 A      2.562483 A        6.563029E-17 a.u.
  |    C      0     2.967371 A      2.967371 A        1.352164E-16 a.u.
  |    C      0     3.003870 A      3.003870 A        2.312640E-17 a.u.
  |    C      1     3.272245 A      3.272245 A       -3.835259E-17 a.u.
  |    C      0     3.312494 A      3.312494 A       -2.710381E-16 a.u.
  |    C      3     4.077671 A      4.077671 A       -1.683752E-15 a.u.
  |    C      3     4.077671 A      4.077671 A        1.412852E-15 a.u.
  |    C      1     4.496620 A      4.496620 A       -3.011059E-16 a.u.
  |    C      0     4.496620 A      4.551928 A        2.873903E-17 a.u.
  |    C      2     4.551928 A      4.551928 A       -4.610785E-16 a.u.
  |    C      2     4.551928 A      4.551928 A        7.440584E-16 a.u.
  |    C      2     4.551928 A      4.551928 A       -7.110458E-16 a.u.
  |    C      2     4.551928 A      4.551928 A       -1.935424E-16 a.u.
  |    C      0     4.551928 A      4.607917 A        2.067142E-16 a.u.
  |    C      0     4.551928 A      4.607917 A       -1.109786E-16 a.u.
  |    C      1     4.551928 A      4.607917 A       -9.951742E-17 a.u.
  |    C      1     4.551928 A      4.607917 A        1.937809E-16 a.u.
  |    C      1     4.607917 A      4.607917 A       -2.813308E-16 a.u.
  |    C      1     4.607917 A      4.607917 A       -7.330363E-17 a.u.
  |    C      2     4.607917 A      4.607917 A        1.318462E-15 a.u.
  |    C      2     4.607917 A      4.607917 A       -1.318397E-15 a.u.
  |    C      0     4.607917 A      4.664595 A        3.157826E-16 a.u.
  |    C      1     4.607917 A      4.664595 A        7.356967E-16 a.u.
  |    C      4     3.835889 A  2.962973E+02 A            4.379483 a.u.
  |    C      3     4.127827 A  1.725964E+03 A            9.005588 a.u.
  |    C      2     4.607917 A  2.608475E+04 A            9.531178 a.u.
  |    C      1     4.607917 A  2.736013E+06 A            2.127278 a.u.
  |    C      0     4.607917 A  4.399765E+12 A            0.661635 a.u.

  | Shrink_full_auxil_basis : there are       36  radial auxiliary wave functions
                            accepted and       7 rejected.
  | Shrink_full_auxil_basis : there are totally                8992 partial auxiliary wave functions.
 
  | Maximal number of product basis functions per thread :   512   512
 
  | Minimal total memory requirement for three-center overlap :      72.476 Gbs
  | Number of local auxiliary basis functions on task:      0   512
  | Number of local auxiliary basis functions on task:      1   512
  | Number of local auxiliary basis functions on task:      2   512
  | Number of local auxiliary basis functions on task:      3   512
  | Number of local auxiliary basis functions on task:      4   496
  | Number of local auxiliary basis functions on task:      5   496
  | Number of local auxiliary basis functions on task:      6   496
  | Number of local auxiliary basis functions on task:      7   496
  | Number of local auxiliary basis functions on task:      8   496
  | Number of local auxiliary basis functions on task:      9   496
  | Number of local auxiliary basis functions on task:     10   496
  | Number of local auxiliary basis functions on task:     11   496
  | Number of local auxiliary basis functions on task:     12   496
  | Number of local auxiliary basis functions on task:     13   496
  | Number of local auxiliary basis functions on task:     14   496
  | Number of local auxiliary basis functions on task:     15   496
  | Number of local auxiliary basis functions on task:     16   496
  | Number of local auxiliary basis functions on task:     17   496
  | 2D aux task distribution:      3 X      6
  | 2D block size (nb_aux_2d):     64
 
  Basis pair condensation :   1037520  -->     556349
 
 --------------------------------------------
  Constructing auxiliary basis (full product) ...
 
  Product basis:
  | charge radius: extent of product basis function
  | field radius: extent of its Coulomb potential
  | Species   l  charge radius    field radius  multipol momen
  |    H      1     3.910002 A      3.910002 A       -2.487223E-16 a.u.
  |    H      1     3.958095 A      3.958095 A       -2.441841E-16 a.u.
  |    H      0     4.527807 A      4.527807 A        1.268855E-16 a.u.
  |    H      0     4.527807 A      4.583499 A       -4.900954E-17 a.u.
  |    H      0     4.527807 A      4.583499 A        4.713786E-16 a.u.
  |    H      2     3.678162 A  1.011968E+04 A            0.556529 a.u.
  |    H      1     3.958095 A  1.721251E+06 A            0.841931 a.u.
  |    H      0     4.527807 A  3.866455E+12 A            0.581436 a.u.
  |    C      0     2.562483 A      2.562483 A        6.563029E-17 a.u.
  |    C      0     2.967371 A      2.967371 A        1.352164E-16 a.u.
  |    C      0     3.003870 A      3.003870 A        2.312640E-17 a.u.
  |    C      1     3.272245 A      3.272245 A       -3.835259E-17 a.u.
  |    C      0     3.312494 A      3.312494 A       -2.710381E-16 a.u.
  |    C      3     4.077671 A      4.077671 A       -1.683752E-15 a.u.
  |    C      3     4.077671 A      4.077671 A        1.412852E-15 a.u.
  |    C      1     4.496620 A      4.496620 A       -3.011059E-16 a.u.
  |    C      0     4.496620 A      4.551928 A        2.873903E-17 a.u.
  |    C      2     4.551928 A      4.551928 A       -4.610785E-16 a.u.
  |    C      2     4.551928 A      4.551928 A        7.440584E-16 a.u.
  |    C      2     4.551928 A      4.551928 A       -7.110458E-16 a.u.
  |    C      2     4.551928 A      4.551928 A       -1.935424E-16 a.u.
  |    C      0     4.551928 A      4.607917 A        2.067142E-16 a.u.
  |    C      0     4.551928 A      4.607917 A       -1.109786E-16 a.u.
  |    C      1     4.551928 A      4.607917 A       -9.951742E-17 a.u.
  |    C      1     4.551928 A      4.607917 A        1.937809E-16 a.u.
  |    C      1     4.607917 A      4.607917 A       -2.813308E-16 a.u.
  |    C      1     4.607917 A      4.607917 A       -7.330363E-17 a.u.
  |    C      2     4.607917 A      4.607917 A        1.318462E-15 a.u.
  |    C      2     4.607917 A      4.607917 A       -1.318397E-15 a.u.
  |    C      0     4.607917 A      4.664595 A        3.157826E-16 a.u.
  |    C      1     4.607917 A      4.664595 A        7.356967E-16 a.u.
  |    C      4     3.835889 A  2.962973E+02 A            4.379483 a.u.
  |    C      3     4.127827 A  1.725964E+03 A            9.005588 a.u.
  |    C      2     4.607917 A  2.608475E+04 A            9.531178 a.u.
  |    C      1     4.607917 A  2.736013E+06 A            2.127278 a.u.
  |    C      0     4.607917 A  4.399765E+12 A            0.661635 a.u.

  | Shrink_full_auxil_basis : there are       36  radial auxiliary wave functions
                            accepted and       7 rejected.
  | Shrink_full_auxil_basis : there are totally                8992 partial auxiliary wave functions.
 
  | Maximal number of product basis functions per thread :   512   512
 
  | Minimal total memory requirement for three-center overlap :      72.476 Gbs
  | Number of local auxiliary basis functions on task:      0   512
  | Number of local auxiliary basis functions on task:      1   512
  | Number of local auxiliary basis functions on task:      2   512
  | Number of local auxiliary basis functions on task:      3   512
  | Number of local auxiliary basis functions on task:      4   496
  | Number of local auxiliary basis functions on task:      5   496
  | Number of local auxiliary basis functions on task:      6   496
  | Number of local auxiliary basis functions on task:      7   496
  | Number of local auxiliary basis functions on task:      8   496
  | Number of local auxiliary basis functions on task:      9   496
  | Number of local auxiliary basis functions on task:     10   496
  | Number of local auxiliary basis functions on task:     11   496
  | Number of local auxiliary basis functions on task:     12   496
  | Number of local auxiliary basis functions on task:     13   496
  | Number of local auxiliary basis functions on task:     14   496
  | Number of local auxiliary basis functions on task:     15   496
  | Number of local auxiliary basis functions on task:     16   496
  | Number of local auxiliary basis functions on task:     17   496
  | 2D aux task distribution:      3 X      6
  | 2D block size (nb_aux_2d):     64
 
  Basis pair condensation :   1037520  -->     556349
  Allocating        0.069 MB for t_coeff
  Allocating        0.034 MB for basbas_idx
  Allocating        0.069 MB for wave
  Allocating        0.069 MB for total_wave
  Allocating        0.206 MB for wave_gradient
  Allocating        0.206 MB for total_wave_grad
 HERE1
 HERE2
  Deallocating        0.069 MB for t_coeff
  Deallocating        0.034 MB for basbas_idx
  Deallocating        0.069 MB for wave
  Deallocating        0.206 MB for wave_gradient
  Deallocating        0.206 MB for total_wave_grad
dP_dE (Bohr^3) at every cycle:--->
 (992.950379034775,0.000000000000000E+000) (14.9421939923045,0.000000000000000E+000) (-450.962210024071,0.000000000000000E+000)
 (14.9527830811403,0.000000000000000E+000) (1349.17428536639,0.000000000000000E+000) (2.05114250238451,0.000000000000000E+000)
 (-451.139187641612,0.000000000000000E+000) (2.05082448663141,0.000000000000000E+000) (1712.65423617944,0.000000000000000E+000)
DFPT polarizability (Bohr^3)        xx        yy        zz        xy        xz        yz
  | Polarizability:--->                       992.950379035                 1349.174285366                 1712.654236179                   14.942193992                 -450.962210024                    2.051142502

DFPT for dielectric_constant:--->  # PARSE DFPT_dielectric_tensor
               2.347412484288053             0.020276238524080            -0.611946099783183
               0.020290607691761             2.830800726769676             0.002783356623977
              -0.612186254635177             0.002782925083383             3.324035266838025

                                               :  max(cpu_time)    wall_clock(cpu1)
  | Time for  dielectric calculation            :        0.000 s           0.001 s
===========================================================================

------------------------------------------------------------------------------
  Final output of selected total energy values:

  The following output summarizes some interesting total energy values
  at the end of a run (AFTER all relaxation, molecular dynamics, etc.).

  | Total energy of the DFT / Hartree-Fock s.c.f. calculation      :         -83267.422464501 eV
  | Final zero-broadening corrected energy (caution - metals only) :         -83267.422464501 eV
  | For reference only, the value of 1 Hartree used in FHI-aims is :             27.211384500 eV
  | For reference only, the overall average (free atom contribution
  | + realspace contribution) of the electrostatic potential after
  | s.c.f. convergence is                                          :             -7.700064652 eV

  Before relying on these values, please be sure to understand exactly which
  total energy value is referred to by a given number. Different objects may
  all carry the same name 'total energy'. Definitions:

  Total energy of the DFT / Hartree-Fock s.c.f. calculation:
  | Note that this energy does not include ANY quantities calculated after the
  | s.c.f. cycle, in particular not ANY RPA, MP2, etc. many-body perturbation terms.

  Final zero-broadening corrected energy:
  | For metallic systems only, a broadening of the occupation numbers at the Fermi
  | level can be extrapolated back to zero broadening by an electron-gas inspired
  | formula. For all systems that are not real metals, this value can be
  | meaningless and should be avoided.

------------------------------------------------------------------------------
  Methods described in the following list of references were used in this FHI-aims run.
  If you publish the results, please make sure to cite these reference if they apply.
  FHI-aims is an academic code, and for our developers (often, Ph.D. students
  and postdocs), scientific credit in the community is essential.
  Thank you for helping us!

  For any use of FHI-aims, please cite:

    Volker Blum, Ralf Gehrke, Felix Hanke, Paula Havu, Ville Havu,
    Xinguo Ren, Karsten Reuter, and Matthias Scheffler
    'Ab initio molecular simulations with numeric atom-centered orbitals'
    Computer Physics Communications 180, 2175-2196 (2009)
    http://doi.org/10.1016/j.cpc.2009.06.022


  For Hartree-Fock, hybrid functionals, or many-body perturbation theory used in your run, please cite:

    Xinguo Ren, Patrick Rinke, Volker Blum, Juergen Wieferink, Alex Tkatchenko,
    Andrea Sanfilippo, Karsten Reuter, and Matthias Scheffler,
    'Resolution-of-identity approach to Hartree-Fock, hybrid density functionals,
    RPA, MP2, and GW with numeric atom-centered orbital basis functions'
    New Journal of Physics 14, 053020 (2012).
    http://doi.org/10.1088/1367-2630/14/5/053020


  The provided symmetry information was generated with SPGlib:

    Atsushi Togo, Yusuke Seto, Dimitar Pashov
    SPGlib 1.7.3 obtained from http://spglib.sourceforge.net
    Copyright (C) 2008 Atsushi Togo


  The DFPT (perturbation by an electric field) part of the code was used.
  Here is the corresponding reference:

    Honghui Shang, Nathaniel Raimbault, Mariana Rossi,
    Christian Carbogno, Patrick Rinke and Matthias Scheffler,
    'All-Electron, Real-Space Perturbation Theory for Homogeneous
    Electric Fields: Theory, Implementation, and Application within dft'
    New Journal of Physics, 20(7):073040, 2018


  The ELSI infrastructure was used in your run to solve the Kohn-Sham electronic structure.
  Please check out http://elsi-interchange.org to learn more.
  If scalability is important for your project, please acknowledge ELSI by citing:

    V. W-z. Yu, F. Corsetti, A. Garcia, W. P. Huhn, M. Jacquelin, W. Jia,
    B. Lange, L. Lin, J. Lu, W. Mi, A. Seifitokaldani, A. Vazquez-Mayagoitia,
    C. Yang, H. Yang, and V. Blum
    'ELSI: A unified software interface for Kohn-Sham electronic structure solvers'
    Computer Physics Communications 222, 267-285 (2018).
    http://doi.org/10.1016/j.cpc.2017.09.007


  For the real-space grid partitioning and parallelization used in this calculation, please cite:

    Ville Havu, Volker Blum, Paula Havu, and Matthias Scheffler,
    'Efficient O(N) integration for all-electron electronic structure calculation'
    'using numerically tabulated basis functions'
    Journal of Computational Physics 228, 8367-8379 (2009).
    http://doi.org/10.1016/j.jcp.2009.08.008


  The high-level electronic structure method used in your calculation
  employed our efficient localized resolution of identity for the Coulomb operator.
  Some calculations, especially large-scale hybrid density functional theory,
  are only possible thanks to this development. For this feature, please cite:

    Arvid Ihrig, Juergen Wieferink, Igor Ying Zhang, Matti Ropo, Xinguo Ren,
    Patrick Rinke, Matthias Scheffler, and Volker Blum,
    'Accurate localized resolution of identity approach for linear-scaling
    hybrid density functionals and for many-body perturbation theory'
    New Journal of Physics 117, 093020 (2015).
    http://doi.org/10.1088/1367-2630/17/9/093020

  Of course, there are many other important community references, e.g., those cited in the
  above references. Our list is limited to references that describe implementations in the
  FHI-aims code. The reason is purely practical (length of this list) - please credit others as well.

------------------------------------------------------------
          Leaving FHI-aims.
          Date     :  20230120, Time     :  171908.843

          Computational steps:
          | Number of self-consistency cycles          :           47
          | Number of SCF (re)initializations          :            1
          | Number of coupled perturbed self-consistency cycles          :            0
          | Number of CPSCF (re)initializations          :            0

          Detailed time accounting                     :  max(cpu_time)    wall_clock(cpu1)
          | Total time                                  :     1488.683 s        1500.768 s
          | GPU initialization                          :        1.933 s          12.187 s
          | Preparation time                            :        0.070 s           0.069 s
          | Boundary condition initalization            :        0.966 s           0.965 s
          | Grid partitioning                           :        1.258 s           1.258 s
          | Preloading free-atom quantities on grid     :        3.856 s           3.857 s
          | Free-atom superposition energy              :        0.479 s           0.479 s
          | Total time for integrations                 :       16.920 s          17.250 s
          | Product basis setup: Total time             :        0.000 s           0.000 s
          | Product basis: | 2-center integrations     :(       0.000 s)  (       0.000 s)
          | Product basis: | LVL 3-center & coefficient:(       0.000 s)  (       0.000 s)
          | Total time for solution of K.-S. equations  :        3.262 s           3.264 s
          | Total time for density update               :       11.750 s          12.710 s
          | Total time for mixing & preconditioning     :       11.837 s          11.840 s
          | Total time for Hartree multipole update     :        0.086 s           0.086 s
          | Total time for Hartree multipole sum        :       41.563 s          41.576 s
          | Total time for total energy evaluation      :        0.007 s           0.003 s
          | Total time first_order_DM                   :        1.961 s           1.960 s
          | Total time first_order_density              :      313.362 s         313.448 s
          | Total time first_order_potential            :      121.520 s         121.552 s
          | Total time first_order_H                    :      593.166 s         593.328 s
          | Total time solving of Sternheimer equations :        1.937 s           1.935 s
          | Total time for dielectric constant          :        0.000 s           0.001 s
          | Total time momentum matrix                  :        0.000 s           0.000 s

          GPU acceleration has been used for charge density update.
          GPU acceleration has been used for real-space Hamiltonian integration.
          Due to GPU usage, wall_clock(cpu1) will give a more reliable estimate for timings.

          Partial memory accounting:
          | Residual value for overall tracked memory usage across tasks:     1.234863 MB (should be 0.000000 MB)
          |
          | Largest tracked array allocation:
          |   Minimum:      103.115 MB (DFPT_pulay_mixing::initialize_pulay_mixing::X_in_diffs on task  0)
          |   Maximum:      103.115 MB (DFPT_pulay_mixing::initialize_pulay_mixing::X_in_diffs on task  0)
          |   Average:      103.115 MB
          |
          | Because the residual tracked memory usage was not zero, the peak value for overall
          | tracked memory usage was not output, as it is probably incorrect.  This is likely due
          | to a missing aims_deallocate statement in the source code, which should be otherwise
          | harmless.
          |
          Note:  These values currently only include a subset of arrays which are explicitly tracked.
          The "true" memory usage will be greater.

          Have a nice day.
------------------------------------------------------------
