------------------------------------------------------------
          Invoking FHI-aims ...

          When using FHI-aims, please cite the following reference:

            Volker Blum, Ralf Gehrke, Felix Hanke, Paula Havu,
            Ville Havu, Xinguo Ren, Karsten Reuter, and Matthias Scheffler,
            'Ab Initio Molecular Simulations with Numeric Atom-Centered Orbitals',
            Computer Physics Communications 180, 2175-2196 (2009)

          In addition, many other developments in FHI-aims are likely important for
          your particular application. A partial list of references is given at the end of
          this file. Thank you for giving credit to the authors of these developments.

          For any questions about FHI-aims, please visit our slack channel at

            https://fhi-aims.slack.com

          and our main development and support site at

            https://aims-git.rz-berlin.mpg.de .

          The latter site, in particular, has a wiki to collect information, as well
          as an issue tracker to log discussions, suggest improvements, and report issues
          or bugs. https://aims-git.rz-berlin.mpg.de is also the main development site
          of the project and all new and updated code versions can be obtained there.
          Please send an email to aims-coordinators@fhi-berlin.mpg.de and we will add
          you to these sites. They are for you and everyone is welcome there.

------------------------------------------------------------



  Date     :  20230120, Time     :  163003.064
  Time zero on CPU 1             :   0.381869000000000E+00  s.
  Internal wall clock time zero  :           443464203.064  s.

  FHI-aims created a unique identifier for this run for later identification
  aims_uuid : 78136AB6-7CA5-4F0B-A773-EBA7A0F6A43C

  Build configuration of the current instance of FHI-aims
  -------------------------------------------------------
  FHI-aims version      : 220829
  Commit number         : 9895fc21d
  CMake host system     : Linux-5.3.18-150300.59.68-default
  CMake version         : 3.17.0
  Fortran compiler      : /mpcdf/soft/SLE_15/packages/x86_64/intel_oneapi/2021.3/mpi/2021.3.0/bin/mpiifort (Intel) version 20.2.3.20210609
  Fortran compiler flags: -O3 -ip -fp-model precise
  C compiler            : /mpcdf/soft/SLE_15/packages/x86_64/intel/2021.3.0/bin/icc (Intel) version 20.2.3.20210609
  C compiler flags      : -O3 -ip -fp-model precise -std=gnu99
  CUDA compiler         : /mpcdf/soft/SLE_15/packages/x86_64/cuda/11.6.2/bin/nvcc
  CUDA compiler flags   : -O3 -DAdd_ -lcublas
  ELPA2 kernel          : AVX512
  Using MPI
  Using ScaLAPACK
  Using LibXC
  Using CUDA
  Using i-PI
  Using RLSY
  Linking against: /mpcdf/soft/SLE_15/packages/x86_64/cuda/11.6.2/lib64/libcublas.so
                   /mpcdf/soft/SLE_15/packages/x86_64/cuda/11.6.2/lib64/libcudart.so
                   /mpcdf/soft/SLE_15/packages/x86_64/intel_oneapi/2021.3/mkl/latest/lib/intel64/libmkl_intel_lp64.so
                   /mpcdf/soft/SLE_15/packages/x86_64/intel_oneapi/2021.3/mkl/latest/lib/intel64/libmkl_sequential.so
                   /mpcdf/soft/SLE_15/packages/x86_64/intel_oneapi/2021.3/mkl/latest/lib/intel64/libmkl_core.so
                   /mpcdf/soft/SLE_15/packages/x86_64/intel_oneapi/2021.3/mkl/latest/lib/intel64/libmkl_blacs_intelmpi_lp64.so
                   /mpcdf/soft/SLE_15/packages/x86_64/intel_oneapi/2021.3/mkl/latest/lib/intel64/libmkl_scalapack_lp64.so

  Using       18 parallel tasks.
  Task        0 on host adag005 reporting.
  Task        1 on host adag005 reporting.
  Task        2 on host adag005 reporting.
  Task        3 on host adag005 reporting.
  Task        4 on host adag005 reporting.
  Task        5 on host adag005 reporting.
  Task        6 on host adag005 reporting.
  Task        7 on host adag005 reporting.
  Task        8 on host adag005 reporting.
  Task        9 on host adag005 reporting.
  Task       10 on host adag005 reporting.
  Task       11 on host adag005 reporting.
  Task       12 on host adag005 reporting.
  Task       13 on host adag005 reporting.
  Task       14 on host adag005 reporting.
  Task       15 on host adag005 reporting.
  Task       16 on host adag005 reporting.
  Task       17 on host adag005 reporting.

  Performing system and environment tests:
  | Environment variable OMP_NUM_THREADS correctly set to 1.
  | Checking for ScaLAPACK...
  | Testing pdtran()...
  | All pdtran() tests passed.

  Obtaining array dimensions for all initial allocations:
  
  -----------------------------------------------------------------------
  Parsing control.in (first pass over file, find array dimensions only).
  The contents of control.in will be repeated verbatim below
  unless switched off by setting 'verbatim_writeout .false.' .
  in the first line of control.in .
  -----------------------------------------------------------------------
  
  #
  # Input for polarizability replays on generic oligoacene molecular crystals (light settings,  LDA+MBD).
  #
  #########################################################################################
  #
  #  Physical model
  #
    xc                 pw-lda
    spin               none
    relativistic       none
    charge             0.0
    k_grid 	     2 1 1
    DFPT dielectric
  #
  #  GPU acceleration
  #
  # Turns on GPU acceleration everywhere
    use_gpu
  
  # Turns OFF GPU acceleration of ELPA - may be necessary if GPU ELPA is slow
    elsi_elpa_gpu 0
  #
  #  Relaxation
  #
  #  relax_geometry trm 1E-3
  #  relax_unit_cell fixed_angles
  #
  #  SCF convergence        #
    charge_mix_param   0.75
    #sc_accuracy_rho 1E-4
  #
  # i-PI communication
  #
  compute_forces .false.
  # use_pimd_wrapper 130.183.223.27 26118
  #communicate_pimd_wrapper polarizability
  #output_level MD_light
  #
  # Output SALTED info
    ri_density_restart write
    ri_rho1 write
    ri_full_output .true.
  #  sc_accuracy_rho    1d-6
    default_prodbas_acc 1e-6
    default_max_l_prodbas 6
  #
  #
  ################################################################################
  #
  #  FHI-aims code project
  #  VB, Fritz-Haber Institut, 2009
  #
  #  Suggested "light" defaults for H atom (to be pasted into control.in file)
  #  Be sure to double-check any results obtained with these settings for post-processing,
  #  e.g., with the "tight" defaults and larger basis sets.
  #
  ################################################################################
    species        H
  #     global species definitions
      nucleus             1
      mass                1.00794
  #
      l_hartree           4
  #
      cut_pot             3.5  1.5  1.0
      basis_dep_cutoff    1e-4
  #
      radial_base         24 5.0
      radial_multiplier   1
      angular_grids       specified
        division   0.2421   50
        division   0.3822  110
        division   0.4799  194
        division   0.5341  302
  #      division   0.5626  434
  #      division   0.5922  590
  #      division   0.6542  770
  #      division   0.6868 1202
  #      outer_grid  770
        outer_grid  302
  ################################################################################
  #
  #  Definition of "minimal" basis
  #
  ################################################################################
  #     valence basis states
      valence      1  s   1.
  #     ion occupancy
      ion_occ      1  s   0.5
  ################################################################################
  #
  #  Suggested additional basis functions. For production calculations,
  #  uncomment them one after another (the most important basis functions are
  #  listed first).
  #
  #  Basis constructed for dimers: 0.5 A, 0.7 A, 1.0 A, 1.5 A, 2.5 A
  #
  ################################################################################
  #  "First tier" - improvements: -1014.90 meV to -62.69 meV
       hydro 2 s 2.1
       hydro 2 p 3.5
  #  "Second tier" - improvements: -12.89 meV to -1.83 meV
  #     hydro 1 s 0.85
  #     hydro 2 p 3.7
  #     hydro 2 s 1.2
  #     hydro 3 d 7
  #  "Third tier" - improvements: -0.25 meV to -0.12 meV
  #     hydro 4 f 11.2
  #     hydro 3 p 4.8
  #     hydro 4 d 9
  #     hydro 3 s 3.2
  ################################################################################
  ################################################################################
  #
  #  FHI-aims code project
  #  VB, Fritz-Haber Institut, 2009
  #
  #  Suggested "light" defaults for C atom (to be pasted into control.in file)
  #  Be sure to double-check any results obtained with these settings for post-processing,
  #  e.g., with the "tight" defaults and larger basis sets.
  #
  ################################################################################
    species        C
  #     global species definitions
      nucleus             6
      mass                12.0107
  #
      l_hartree           4
  #
      cut_pot             3.5  1.5  1.0
      basis_dep_cutoff    1e-4
  #
      radial_base         34 5.0
      radial_multiplier   1
      angular_grids specified
        division   0.3326   50
        division   0.5710  110
        division   0.7727  194
        division   0.8772  302
  #      division   0.9334  434
  #      division   0.9625  590
  #      division   0.9924  770
  #      division   1.0230  974
  #      division   1.4589 1202
  #     outer_grid  974
       outer_grid 302
  ################################################################################
  #
  #  Definition of "minimal" basis
  #
  ################################################################################
  #     valence basis states
      valence      2  s   2.
      valence      2  p   2.
  #     ion occupancy
      ion_occ      2  s   1.
      ion_occ      2  p   1.
  ################################################################################
  #
  #  Suggested additional basis functions. For production calculations,
  #  uncomment them one after another (the most important basis functions are
  #  listed first).
  #
  #  Constructed for dimers: 1.0 A, 1.25 A, 1.5 A, 2.0 A, 3.0 A
  #
  ################################################################################
  #  "First tier" - improvements: -1214.57 meV to -155.61 meV
       hydro 2 p 1.7
       hydro 3 d 6
       hydro 2 s 4.9
  #  "Second tier" - improvements: -67.75 meV to -5.23 meV
  #     hydro 4 f 9.8
  #     hydro 3 p 5.2
  #     hydro 3 s 4.3
  #     hydro 5 g 14.4
  #     hydro 3 d 6.2
  #  "Third tier" - improvements: -2.43 meV to -0.60 meV
  #     hydro 2 p 5.6
  #     hydro 2 s 1.4
  #     hydro 3 d 4.9
  #     hydro 4 f 11.2
  #  "Fourth tier" - improvements: -0.39 meV to -0.18 meV
  #     hydro 2 p 2.1
  #     hydro 5 g 16.4
  #     hydro 4 d 13.2
  #     hydro 3 s 13.6
  #     hydro 4 f 17.6
  #  Further basis functions - improvements: -0.08 meV and below
  #     hydro 3 s 2
  #     hydro 3 p 6
  #     hydro 4 d 20
  
  -----------------------------------------------------------------------
  Completed first pass over input file control.in .
  -----------------------------------------------------------------------
  
  
  -----------------------------------------------------------------------
  Parsing geometry.in (first pass over file, find array dimensions only).
  The contents of geometry.in will be repeated verbatim below
  unless switched off by setting 'verbatim_writeout .false.' .
  in the first line of geometry.in .
  -----------------------------------------------------------------------
  
  #=======================================================
  # FHI-aims file: /ada/ptmp/mpsd/alewis/naphthalene/qmdata/data/geoms/285.in
  # Created using the Atomic Simulation Environment (ASE)
  # Thu Jan 19 15:19:17 2023
  #=======================================================
  lattice_vector 8.1020000000000003 0.0000000000000000 0.0000000000000000
  lattice_vector 0.0000000000000000 11.8800000000000008 0.0000000000000000
  lattice_vector -9.7850918486534706 0.0000000000000000 14.2571119625755713
  atom -0.7789740000000001 0.0462423000000000 2.2655200000000000 C
  atom 0.1610520000000000 3.1439699999999999 4.7566100000000002 C
  atom 4.2139499999999996 5.9500900000000003 4.8296700000000001 C
  atom 3.2984800000000001 2.7601700000000000 2.5238299999999998 C
  atom -0.0292339000000000 0.9015339999999999 1.5311300000000001 C
  atom -0.5993050000000000 3.9653900000000002 5.5743499999999999 C
  atom 3.4316300000000002 5.0569800000000003 5.5532000000000004 C
  atom 3.9282300000000001 1.8442099999999999 1.7002999999999999 C
  atom 0.3736930000000000 0.6041540000000000 0.2279660000000000 C
  atom -0.9707209999999999 3.5449799999999998 6.8846299999999996 C
  atom 3.0384699999999998 5.3865699999999999 6.8846400000000001 C
  atom 4.2951300000000003 2.2241900000000001 0.3593580000000000 C
  atom -3.8336600000000001 1.4137500000000001 6.7071899999999998 C
  atom 3.2030300000000000 4.4105800000000004 0.7142010000000000 C
  atom 7.2168799999999997 4.5552900000000003 0.6649180000000000 C
  atom 0.2966860000000000 1.4802700000000000 6.4898499999999997 C
  atom -3.5007299999999999 1.0229400000000000 5.4414800000000003 C
  atom 2.9220199999999998 4.0617000000000001 2.0269100000000000 C
  atom 6.8828699999999996 5.0224599999999997 1.9059299999999999 C
  atom 0.6309550000000000 1.9136200000000001 5.2313999999999998 C
  atom -1.1859999999999999 0.3404360000000000 3.2399800000000001 H
  atom 0.4121800000000000 3.4682300000000001 3.7615799999999999 H
  atom 4.5264499999999996 5.6590299999999996 3.8136700000000001 H
  atom 3.0634899999999998 2.5231800000000000 3.5639400000000001 H
  atom 0.2186910000000000 1.8690599999999999 1.9272600000000000 H
  atom -1.0074600000000000 4.9263300000000001 5.1877100000000000 H
  atom 3.0529000000000002 4.1257599999999996 5.1580800000000000 H
  atom 4.2602500000000001 0.8614440000000000 2.0033200000000000 H
  atom -3.4778899999999999 2.3558800000000000 7.0736499999999998 H
  atom 2.8992700000000000 5.3761200000000002 0.3253980000000000 H
  atom 6.8617299999999997 3.5781700000000001 0.3052990000000000 H
  atom 0.5769170000000000 0.4821310000000000 6.8062300000000002 H
  atom -2.8662500000000000 1.6497999999999999 4.8220700000000001 H
  atom 2.3458100000000002 4.7711199999999998 2.6599400000000002 H
  atom 6.1957000000000004 4.4382200000000003 2.5637900000000000 H
  atom 1.2672600000000001 1.2662300000000000 4.6100899999999996 H
  atom -5.7181499999999996 0.1438370000000000 9.6718499999999992 C
  atom -4.7146200000000000 3.0532100000000000 12.0093999999999994 C
  atom -0.5051770000000000 5.7507799999999998 12.0117999999999991 C
  atom -1.6566399999999999 2.6680899999999999 9.4857999999999993 C
  atom -4.9706400000000004 1.0044999999999999 8.8688199999999995 C
  atom -5.4665600000000003 3.9234100000000001 12.7881000000000000 C
  atom -1.3616500000000000 4.9426899999999998 12.7581000000000007 C
  atom -0.9215580000000000 1.8517300000000001 8.6559399999999993 C
  atom -4.5817899999999998 0.5500330000000000 7.5756199999999998 C
  atom -5.8445799999999997 3.5558299999999998 14.1212000000000000 C
  atom -1.7541800000000001 5.3459899999999996 14.0645000000000007 C
  atom -0.4820570000000000 2.2743099999999998 7.3606999999999996 C
  atom -8.6309500000000003 1.4877499999999999 13.6552000000000007 C
  atom -1.7724200000000001 4.3642300000000001 7.7448199999999998 C
  atom 2.2320500000000001 4.5183200000000001 7.7148899999999996 C
  atom -4.6630099999999999 1.3662500000000000 13.7777999999999992 C
  atom -8.3632500000000007 1.1726000000000001 12.3523999999999994 C
  atom -2.0828600000000002 3.9510299999999998 9.0481700000000007 C
  atom 1.8317300000000001 4.8785800000000004 8.9824999999999999 C
  atom -4.2814100000000002 1.7957500000000000 12.5103000000000009 C
  atom -5.9188999999999998 0.4461470000000000 10.7050000000000001 H
  atom -4.4322600000000003 3.4104899999999998 11.0230999999999995 H
  atom -0.1262360000000000 5.3404699999999998 11.0643999999999991 H
  atom -1.9607399999999999 2.3458199999999998 10.4829000000000008 H
  atom -4.5621099999999997 1.9759599999999999 9.2205499999999994 H
  atom -5.8025799999999998 4.8940799999999998 12.3879999999999999 H
  atom -1.6718599999999999 3.9609899999999998 12.3762000000000008 H
  atom -0.5935350000000000 0.8687950000000000 8.9652200000000004 H
  atom -8.3543199999999995 2.4405000000000001 14.1054999999999993 H
  atom -2.0853199999999998 5.3435199999999998 7.3388799999999996 H
  atom 1.9202399999999999 3.5160499999999999 7.2843799999999996 H
  atom -4.4120999999999997 0.3574700000000000 14.1257999999999999 H
  atom -7.7777599999999998 1.8549700000000000 11.7680000000000007 H
  atom -2.7346499999999998 4.5562199999999997 9.6992899999999995 H
  atom 1.2634200000000000 4.1786300000000001 9.6410499999999999 H
  atom -3.6520299999999999 1.1329899999999999 11.8895999999999997 H
  atom -0.7291510000000000 6.2296500000000004 2.3990300000000002 C
  atom 0.2198080000000000 9.1747899999999998 4.9477599999999997 C
  atom 4.1872299999999996 11.6594999999999995 4.9211900000000002 C
  atom 3.3504399999999999 8.8332800000000002 2.4197199999999999 C
  atom 0.0833646000000000 7.0225700000000000 1.6032900000000001 C
  atom -0.5920280000000000 10.0083000000000002 5.6861499999999996 C
  atom 3.4164400000000001 10.8013999999999992 5.7339700000000002 C
  atom 3.9939900000000002 7.9653600000000004 1.5562199999999999 C
  atom 0.4073730000000000 6.6160199999999998 0.2598200000000000 C
  atom -1.0365000000000000 9.5685699999999994 6.9615600000000004 C
  atom 3.0934599999999999 11.1639999999999997 7.0623199999999997 C
  atom 4.3005500000000003 8.3344000000000005 0.2436650000000000 C
  atom -3.8155999999999999 7.4590600000000000 6.7192600000000002 C
  atom 3.2136499999999999 10.4855000000000000 0.6462260000000000 C
  atom 7.3202499999999997 10.3002000000000002 0.4635380000000000 C
  atom 0.1641630000000000 7.4340299999999999 6.6299099999999997 C
  atom -3.4476399999999998 7.1854899999999997 5.4365600000000001 C
  atom 2.9331000000000000 10.0974000000000004 1.9754799999999999 C
  atom 6.9490400000000001 10.6408000000000005 1.7579800000000001 C
  atom 0.6311750000000000 7.9018699999999997 5.4029900000000000 C
  atom -0.9249480000000000 6.5730500000000003 3.4333499999999999 H
  atom 0.5913160000000000 9.5089900000000007 3.9473300000000000 H
  atom 4.5207300000000004 11.3552999999999997 3.9518900000000001 H
  atom 3.1945700000000001 8.4972100000000008 3.4513300000000000 H
  atom 0.4394960000000000 7.9633599999999998 2.0288800000000000 H
  atom -0.8297450000000000 11.0100999999999996 5.3768000000000002 H
  atom 2.9852400000000001 9.8840699999999995 5.3070000000000004 H
  atom 4.3435600000000001 7.0150100000000002 1.9555899999999999 H
  atom -3.4734200000000000 8.3807799999999997 7.1814299999999998 H
  atom 2.8334800000000002 11.4517000000000007 0.2809940000000000 H
  atom 7.0122999999999998 9.3496400000000008 0.0468250000000000 H
  atom 0.5570790000000000 6.4965799999999998 7.0439699999999998 H
  atom -2.7274600000000002 7.8051300000000001 4.8518400000000002 H
  atom 2.3344499999999999 10.7872000000000003 2.6079100000000000 H
  atom 6.2812599999999996 10.0027000000000008 2.3605499999999999 H
  atom 1.2844300000000000 7.3001399999999999 4.7884599999999997 H
  atom -5.8254500000000000 6.1146500000000001 9.5609199999999994 C
  atom -4.9028200000000002 9.1251499999999997 11.8382000000000005 C
  atom -0.6024020000000000 11.7630999999999997 11.8153000000000006 C
  atom -1.7889200000000001 8.6988099999999999 9.5332000000000008 C
  atom -4.9927700000000002 6.9249599999999996 8.8483999999999998 C
  atom -5.5805800000000003 9.9870199999999993 12.6465999999999994 C
  atom -1.2781100000000001 10.8427000000000007 12.6170000000000009 C
  atom -1.0089600000000001 7.8998799999999996 8.7385699999999993 C
  atom -4.6198199999999998 6.5940300000000001 7.4942500000000001 C
  atom -5.8812499999999996 9.6438400000000009 14.0212000000000003 C
  atom -1.6489400000000001 11.1945999999999994 13.9428000000000001 C
  atom -0.6207560000000000 8.3179099999999995 7.4370099999999999 C
  atom -8.5772800000000000 7.4416500000000001 13.6750000000000007 C
  atom -1.8319700000000001 10.3803000000000001 7.8033999999999999 C
  atom 2.2642199999999999 10.3810000000000002 7.8910900000000002 C
  atom -4.7435900000000002 7.4882700000000000 13.6382999999999992 C
  atom -8.2693899999999996 7.0530400000000002 12.4149999999999991 C
  atom -2.1870400000000001 9.9669100000000004 9.0487699999999993 C
  atom 1.9613499999999999 10.7843000000000000 9.1705500000000004 C
  atom -4.4824200000000003 7.8639700000000001 12.3230000000000004 C
  atom -6.0613900000000003 6.4031399999999996 10.5911000000000008 H
  atom -4.6683100000000000 9.3600999999999992 10.8207000000000004 H
  atom -0.2817370000000000 11.4733999999999998 10.8286999999999995 H
  atom -2.1696599999999999 8.3467400000000005 10.4943000000000008 H
  atom -4.6097900000000003 7.8832300000000002 9.2352399999999992 H
  atom -5.8488600000000002 11.0050000000000008 12.3315000000000001 H
  atom -1.6131899999999999 9.8778900000000007 12.2248000000000001 H
  atom -0.6642080000000000 6.8905300000000000 9.0864799999999999 H
  atom -8.3201699999999992 8.4313300000000009 13.9948999999999995 H
  atom -2.1842400000000000 11.3819999999999997 7.4832900000000002 H
  atom 1.8666900000000000 9.4203700000000001 7.5513800000000000 H
  atom -4.4175399999999998 6.5231100000000000 14.0417000000000005 H
  atom -7.7533899999999996 7.7279999999999998 11.7544000000000004 H
  atom -2.8761199999999998 10.6069999999999993 9.5999599999999994 H
  atom 1.3674599999999999 10.1168999999999993 9.7752199999999991 H
  atom -3.9525199999999998 7.1262800000000004 11.6860999999999997 H
  
  -----------------------------------------------------------------------
  Completed first pass over input file geometry.in .
  -----------------------------------------------------------------------
  

  Basic array size parameters:
  | Number of species                 :        2
  | Number of atoms                   :      144
  | Number of lattice vectors         :        3
  | Max. basis fn. angular momentum   :        2
  | Max. atomic/ionic basis occupied n:        2
  | Max. number of basis fn. types    :        2
  | Max. radial fns per species/type  :        3
  | Max. logarithmic grid size        :     1277
  | Max. radial integration grid size :       34
  | Max. angular integration grid size:      302
  | Max. angular grid division number :        8
  | Radial grid for Hartree potential :     1277
  | Number of spin channels           :        1

------------------------------------------------------------
          Reading file control.in.
------------------------------------------------------------
  XC: Using Perdew-Wang parametrisation of Ceperley-Alder LDA.
  Spin treatment: No spin polarisation.
  Non-relativistic treatment of kinetic energy.
  Charge =   0.000000E+00: Neutral system requested explicitly.
  Found k-point grid:         2         1         1
  DFPT calculation will begin after the DFT/HF calculation.
  Charge density mixing - mixing parameter:     0.7500
  Forces will not be computed.
 
  Reading configuration options for species H                   .
  | Found nuclear charge :   1.0000
  | Found atomic mass :    1.00794000000000      amu
  | Found l_max for Hartree potential  :   4
  | Found cutoff potl. onset [A], width [A], scale factor :    3.50000    1.50000    1.00000
  | Threshold for basis-dependent cutoff potential is   0.100000E-03
  | Found data for basic radial integration grid :    24 points, outermost radius =    5.000 A
  | Found multiplier for basic radial grid :   1
  | Found angular grid specification: user-specified.
  | Specified grid contains     5 separate shells.
  | Check grid settings after all constraints further below.
  | Found free-atom valence shell :  1 s   1.000
  | No ionic wave fns used. Skipping ion_occ.
  | Found hydrogenic basis function :  2 s   2.100
  | Found hydrogenic basis function :  2 p   3.500
  Species H                   : Missing cutoff potential type.
  Defaulting to exp(1/x)/(1-x)^2 type cutoff potential.
  Species H : No 'logarithmic' tag. Using default grid for free atom:
  | Default logarithmic grid data [bohr] : 0.1000E-03 0.1000E+03 0.1012E+01
  Species H : On-site basis accuracy parameter (for Gram-Schmidt orthonormalisation) not specified.
  Using default value basis_acc =  0.1000000E-03.
  Species H                   : Using default innermost maximum threshold i_radial=  2 for radial functions.
  Species H                   : Default cutoff onset for free atom density etc. : 0.35000000E+01 AA.
  Species H                   : Basic radial grid will be enhanced according to radial_multiplier =   1, to contain    24 grid points.
 
  Reading configuration options for species C                   .
  | Found nuclear charge :   6.0000
  | Found atomic mass :    12.0107000000000      amu
  | Found l_max for Hartree potential  :   4
  | Found cutoff potl. onset [A], width [A], scale factor :    3.50000    1.50000    1.00000
  | Threshold for basis-dependent cutoff potential is   0.100000E-03
  | Found data for basic radial integration grid :    34 points, outermost radius =    5.000 A
  | Found multiplier for basic radial grid :   1
  | Found angular grid specification: user-specified.
  | Specified grid contains     5 separate shells.
  | Check grid settings after all constraints further below.
  | Found free-atom valence shell :  2 s   2.000
  | Found free-atom valence shell :  2 p   2.000
  | No ionic wave fns used. Skipping ion_occ.
  | No ionic wave fns used. Skipping ion_occ.
  | Found hydrogenic basis function :  2 p   1.700
  | Found hydrogenic basis function :  3 d   6.000
  | Found hydrogenic basis function :  2 s   4.900
  Species C                   : Missing cutoff potential type.
  Defaulting to exp(1/x)/(1-x)^2 type cutoff potential.
  Species C : No 'logarithmic' tag. Using default grid for free atom:
  | Default logarithmic grid data [bohr] : 0.1000E-03 0.1000E+03 0.1012E+01
  Species C : On-site basis accuracy parameter (for Gram-Schmidt orthonormalisation) not specified.
  Using default value basis_acc =  0.1000000E-03.
  Species C                   : Using default innermost maximum threshold i_radial=  2 for radial functions.
  Species C                   : Default cutoff onset for free atom density etc. : 0.35000000E+01 AA.
  Species C                   : Basic radial grid will be enhanced according to radial_multiplier =   1, to contain    34 grid points.
 
  Finished reading input file 'control.in'.
 
------------------------------------------------------------


------------------------------------------------------------
          Reading geometry description geometry.in.
------------------------------------------------------------
  | The smallest distance between any two atoms is         1.06925319 AA.
  | The first atom of this pair is atom number                     75 .
  | The second atom of this pair is atom number                    95 .
  | Wigner-Seitz cell of the first atom image           0     0     0 .
  | (The Wigner-Seitz cell of the second atom is 0 0 0  by definition.)

  Symmetry information by spglib:
  | Precision set to  0.1E-04
  | Number of Operations  : 1
  | Space group           : 1
  | International         : P1
  | Schoenflies           : C1^1
  Input structure read successfully.
  The structure contains      144 atoms,  and a total of        544.000 electrons.

  Input geometry:
  | Unit cell:
  |        8.10200000        0.00000000        0.00000000
  |        0.00000000       11.88000000        0.00000000
  |       -9.78509185        0.00000000       14.25711196
  | Atomic structure:
  |       Atom                x [A]            y [A]            z [A]
  |    1: Species C            -0.77897400        0.04624230        2.26552000
  |    2: Species C             0.16105200        3.14397000        4.75661000
  |    3: Species C             4.21395000        5.95009000        4.82967000
  |    4: Species C             3.29848000        2.76017000        2.52383000
  |    5: Species C            -0.02923390        0.90153400        1.53113000
  |    6: Species C            -0.59930500        3.96539000        5.57435000
  |    7: Species C             3.43163000        5.05698000        5.55320000
  |    8: Species C             3.92823000        1.84421000        1.70030000
  |    9: Species C             0.37369300        0.60415400        0.22796600
  |   10: Species C            -0.97072100        3.54498000        6.88463000
  |   11: Species C             3.03847000        5.38657000        6.88464000
  |   12: Species C             4.29513000        2.22419000        0.35935800
  |   13: Species C            -3.83366000        1.41375000        6.70719000
  |   14: Species C             3.20303000        4.41058000        0.71420100
  |   15: Species C             7.21688000        4.55529000        0.66491800
  |   16: Species C             0.29668600        1.48027000        6.48985000
  |   17: Species C            -3.50073000        1.02294000        5.44148000
  |   18: Species C             2.92202000        4.06170000        2.02691000
  |   19: Species C             6.88287000        5.02246000        1.90593000
  |   20: Species C             0.63095500        1.91362000        5.23140000
  |   21: Species H            -1.18600000        0.34043600        3.23998000
  |   22: Species H             0.41218000        3.46823000        3.76158000
  |   23: Species H             4.52645000        5.65903000        3.81367000
  |   24: Species H             3.06349000        2.52318000        3.56394000
  |   25: Species H             0.21869100        1.86906000        1.92726000
  |   26: Species H            -1.00746000        4.92633000        5.18771000
  |   27: Species H             3.05290000        4.12576000        5.15808000
  |   28: Species H             4.26025000        0.86144400        2.00332000
  |   29: Species H            -3.47789000        2.35588000        7.07365000
  |   30: Species H             2.89927000        5.37612000        0.32539800
  |   31: Species H             6.86173000        3.57817000        0.30529900
  |   32: Species H             0.57691700        0.48213100        6.80623000
  |   33: Species H            -2.86625000        1.64980000        4.82207000
  |   34: Species H             2.34581000        4.77112000        2.65994000
  |   35: Species H             6.19570000        4.43822000        2.56379000
  |   36: Species H             1.26726000        1.26623000        4.61009000
  |   37: Species C            -5.71815000        0.14383700        9.67185000
  |   38: Species C            -4.71462000        3.05321000       12.00940000
  |   39: Species C            -0.50517700        5.75078000       12.01180000
  |   40: Species C            -1.65664000        2.66809000        9.48580000
  |   41: Species C            -4.97064000        1.00450000        8.86882000
  |   42: Species C            -5.46656000        3.92341000       12.78810000
  |   43: Species C            -1.36165000        4.94269000       12.75810000
  |   44: Species C            -0.92155800        1.85173000        8.65594000
  |   45: Species C            -4.58179000        0.55003300        7.57562000
  |   46: Species C            -5.84458000        3.55583000       14.12120000
  |   47: Species C            -1.75418000        5.34599000       14.06450000
  |   48: Species C            -0.48205700        2.27431000        7.36070000
  |   49: Species C            -8.63095000        1.48775000       13.65520000
  |   50: Species C            -1.77242000        4.36423000        7.74482000
  |   51: Species C             2.23205000        4.51832000        7.71489000
  |   52: Species C            -4.66301000        1.36625000       13.77780000
  |   53: Species C            -8.36325000        1.17260000       12.35240000
  |   54: Species C            -2.08286000        3.95103000        9.04817000
  |   55: Species C             1.83173000        4.87858000        8.98250000
  |   56: Species C            -4.28141000        1.79575000       12.51030000
  |   57: Species H            -5.91890000        0.44614700       10.70500000
  |   58: Species H            -4.43226000        3.41049000       11.02310000
  |   59: Species H            -0.12623600        5.34047000       11.06440000
  |   60: Species H            -1.96074000        2.34582000       10.48290000
  |   61: Species H            -4.56211000        1.97596000        9.22055000
  |   62: Species H            -5.80258000        4.89408000       12.38800000
  |   63: Species H            -1.67186000        3.96099000       12.37620000
  |   64: Species H            -0.59353500        0.86879500        8.96522000
  |   65: Species H            -8.35432000        2.44050000       14.10550000
  |   66: Species H            -2.08532000        5.34352000        7.33888000
  |   67: Species H             1.92024000        3.51605000        7.28438000
  |   68: Species H            -4.41210000        0.35747000       14.12580000
  |   69: Species H            -7.77776000        1.85497000       11.76800000
  |   70: Species H            -2.73465000        4.55622000        9.69929000
  |   71: Species H             1.26342000        4.17863000        9.64105000
  |   72: Species H            -3.65203000        1.13299000       11.88960000
  |   73: Species C            -0.72915100        6.22965000        2.39903000
  |   74: Species C             0.21980800        9.17479000        4.94776000
  |   75: Species C             4.18723000       11.65950000        4.92119000
  |   76: Species C             3.35044000        8.83328000        2.41972000
  |   77: Species C             0.08336460        7.02257000        1.60329000
  |   78: Species C            -0.59202800       10.00830000        5.68615000
  |   79: Species C             3.41644000       10.80140000        5.73397000
  |   80: Species C             3.99399000        7.96536000        1.55622000
  |   81: Species C             0.40737300        6.61602000        0.25982000
  |   82: Species C            -1.03650000        9.56857000        6.96156000
  |   83: Species C             3.09346000       11.16400000        7.06232000
  |   84: Species C             4.30055000        8.33440000        0.24366500
  |   85: Species C            -3.81560000        7.45906000        6.71926000
  |   86: Species C             3.21365000       10.48550000        0.64622600
  |   87: Species C             7.32025000       10.30020000        0.46353800
  |   88: Species C             0.16416300        7.43403000        6.62991000
  |   89: Species C            -3.44764000        7.18549000        5.43656000
  |   90: Species C             2.93310000       10.09740000        1.97548000
  |   91: Species C             6.94904000       10.64080000        1.75798000
  |   92: Species C             0.63117500        7.90187000        5.40299000
  |   93: Species H            -0.92494800        6.57305000        3.43335000
  |   94: Species H             0.59131600        9.50899000        3.94733000
  |   95: Species H             4.52073000       11.35530000        3.95189000
  |   96: Species H             3.19457000        8.49721000        3.45133000
  |   97: Species H             0.43949600        7.96336000        2.02888000
  |   98: Species H            -0.82974500       11.01010000        5.37680000
  |   99: Species H             2.98524000        9.88407000        5.30700000
  |  100: Species H             4.34356000        7.01501000        1.95559000
  |  101: Species H            -3.47342000        8.38078000        7.18143000
  |  102: Species H             2.83348000       11.45170000        0.28099400
  |  103: Species H             7.01230000        9.34964000        0.04682500
  |  104: Species H             0.55707900        6.49658000        7.04397000
  |  105: Species H            -2.72746000        7.80513000        4.85184000
  |  106: Species H             2.33445000       10.78720000        2.60791000
  |  107: Species H             6.28126000       10.00270000        2.36055000
  |  108: Species H             1.28443000        7.30014000        4.78846000
  |  109: Species C            -5.82545000        6.11465000        9.56092000
  |  110: Species C            -4.90282000        9.12515000       11.83820000
  |  111: Species C            -0.60240200       11.76310000       11.81530000
  |  112: Species C            -1.78892000        8.69881000        9.53320000
  |  113: Species C            -4.99277000        6.92496000        8.84840000
  |  114: Species C            -5.58058000        9.98702000       12.64660000
  |  115: Species C            -1.27811000       10.84270000       12.61700000
  |  116: Species C            -1.00896000        7.89988000        8.73857000
  |  117: Species C            -4.61982000        6.59403000        7.49425000
  |  118: Species C            -5.88125000        9.64384000       14.02120000
  |  119: Species C            -1.64894000       11.19460000       13.94280000
  |  120: Species C            -0.62075600        8.31791000        7.43701000
  |  121: Species C            -8.57728000        7.44165000       13.67500000
  |  122: Species C            -1.83197000       10.38030000        7.80340000
  |  123: Species C             2.26422000       10.38100000        7.89109000
  |  124: Species C            -4.74359000        7.48827000       13.63830000
  |  125: Species C            -8.26939000        7.05304000       12.41500000
  |  126: Species C            -2.18704000        9.96691000        9.04877000
  |  127: Species C             1.96135000       10.78430000        9.17055000
  |  128: Species C            -4.48242000        7.86397000       12.32300000
  |  129: Species H            -6.06139000        6.40314000       10.59110000
  |  130: Species H            -4.66831000        9.36010000       10.82070000
  |  131: Species H            -0.28173700       11.47340000       10.82870000
  |  132: Species H            -2.16966000        8.34674000       10.49430000
  |  133: Species H            -4.60979000        7.88323000        9.23524000
  |  134: Species H            -5.84886000       11.00500000       12.33150000
  |  135: Species H            -1.61319000        9.87789000       12.22480000
  |  136: Species H            -0.66420800        6.89053000        9.08648000
  |  137: Species H            -8.32017000        8.43133000       13.99490000
  |  138: Species H            -2.18424000       11.38200000        7.48329000
  |  139: Species H             1.86669000        9.42037000        7.55138000
  |  140: Species H            -4.41754000        6.52311000       14.04170000
  |  141: Species H            -7.75339000        7.72800000       11.75440000
  |  142: Species H            -2.87612000       10.60700000        9.59996000
  |  143: Species H             1.36746000       10.11690000        9.77522000
  |  144: Species H            -3.95252000        7.12628000       11.68610000

  Lattice parameters for 3D lattice (in Angstroms) :     8.102000   11.880000   17.292000
  Angle(s) between unit vectors (in degrees)       :    90.000000  124.463000   90.000000


  Quantities derived from the lattice vectors (in Angstrom^-1):
  | Reciprocal lattice vector 1:  0.775510  0.000000  0.532257
  | Reciprocal lattice vector 2:  0.000000  0.528888  0.000000
  | Reciprocal lattice vector 3: -0.000000  0.000000  0.440705
  | Unit cell volume                               :   0.137227E+04  Angstrom^3

  Fractional coordinates:
                         L1                L2                L3
       atom_frac         0.09576915        0.00389245        0.15890455  C
       atom_frac         0.42281645        0.26464394        0.33363068  C
       atom_frac         0.92923972        0.50084933        0.33875514  C
       atom_frac         0.62091603        0.23233754        0.17702253  C
       atom_frac         0.12609571        0.07588670        0.10739412  C
       atom_frac         0.39824017        0.33378704        0.39098732  C
       atom_frac         0.89397198        0.42567172        0.38950385  C
       atom_frac         0.62888150        0.15523653        0.11925978  C
       atom_frac         0.06543484        0.05085471        0.01598963  C
       atom_frac         0.46339312        0.29839899        0.48289093  C
       atom_frac         0.95823364        0.45341498        0.48289163  C
       atom_frac         0.56057373        0.18722138        0.02520553  C
       atom_frac         0.09499995        0.11900253        0.47044521  C
       atom_frac         0.45583905        0.37126094        0.05009437  C
       atom_frac         0.94707894        0.38344192        0.04663764  C
       atom_frac         0.58638219        0.12460185        0.45520089  C
       atom_frac         0.02887239        0.08610606        0.38166776  C
       atom_frac         0.53235625        0.34189394        0.14216834  C
       atom_frac         1.01098100        0.42276599        0.13368275  C
       atom_frac         0.52103490        0.16107912        0.36693266  C
       atom_frac         0.12807916        0.02865623        0.22725360  H
       atom_frac         0.36952201        0.29193855        0.26383885  H
       atom_frac         0.88174381        0.47634933        0.26749246  H
       atom_frac         0.68002110        0.21238889        0.24997629  H
       atom_frac         0.19025283        0.15732828        0.13517885  H
       atom_frac         0.31511034        0.41467424        0.36386822  H
       atom_frac         0.81375562        0.34728620        0.36178996  H
       atom_frac         0.69553070        0.07251212        0.14051373  H
       atom_frac         0.16995461        0.19830640        0.49614887  H
       atom_frac         0.38541108        0.45253535        0.02282356  H
       atom_frac         0.87278031        0.30119276        0.02141380  H
       atom_frac         0.64777101        0.04058342        0.47739192  H
       atom_frac         0.05471292        0.13887205        0.33822208  H
       atom_frac         0.51486153        0.40160943        0.18656934  H
       atom_frac         0.98189428        0.37358754        0.17982534  H
       atom_frac         0.54693973        0.10658502        0.32335371  H
       atom_frac         0.11354436        0.01210749        0.67838774  C
       atom_frac         0.43542316        0.25700421        0.84234451  C
       atom_frac         0.95518250        0.48407239        0.84251285  C
       atom_frac         0.59908104        0.22458670        0.66533812  C
       atom_frac         0.13778108        0.08455387        0.62206287  C
       atom_frac         0.40857863        0.33025337        0.89696287  C
       atom_frac         0.91269120        0.41605135        0.89485865  C
       atom_frac         0.61951102        0.15586953        0.60713138  C
       atom_frac         0.07622681        0.04629907        0.53135726  C
       atom_frac         0.47484958        0.29931229        0.99046708  C
       atom_frac         0.97490945        0.44999916        0.98649011  C
       atom_frac         0.56403560        0.19144024        0.51628268  C
       atom_frac         0.09146276        0.12523148        0.95778163  C
       atom_frac         0.43731014        0.36735943        0.54322502  C
       atom_frac         0.92903171        0.38032997        0.54112572  C
       atom_frac         0.59159657        0.11500421        0.96638085  C
       atom_frac         0.01414216        0.09870370        0.86640268  C
       atom_frac         0.50940209        0.33257828        0.63464256  C
       atom_frac         0.98700252        0.41065488        0.63003644  C
       atom_frac         0.53132454        0.15115741        0.87747785  C
       atom_frac         0.17628595        0.03755446        0.75085333  H
       atom_frac         0.38672310        0.28707828        0.77316500  H
       atom_frac         0.92169835        0.44953451        0.77606180  H
       atom_frac         0.64601269        0.19745960        0.73527514  H
       atom_frac         0.21799992        0.16632660        0.64673337  H
       atom_frac         0.33321194        0.41195960        0.86889968  H
       atom_frac         0.84205190        0.33341667        0.86807202  H
       atom_frac         0.68619719        0.07313089        0.62882441  H
       atom_frac         0.16375166        0.20542929        0.98936587  H
       atom_frac         0.36430236        0.44979125        0.51475222  H
       atom_frac         0.85407711        0.29596380        0.51092956  H
       atom_frac         0.65204498        0.03009007        0.99078972  H
       atom_frac         0.03690178        0.15614226        0.82541261  H
       atom_frac         0.48411124        0.38352020        0.68031240  H
       atom_frac         0.97264470        0.35173653        0.67622742  H
       atom_frac         0.55642631        0.09536953        0.83394169  H
       atom_frac         0.11322842        0.52438131        0.16826900  C
       atom_frac         0.44626104        0.77228872        0.34703803  C
       atom_frac         0.93369454        0.98143939        0.34517440  C
       atom_frac         0.61850998        0.74354209        0.16972021  C
       atom_frac         0.14610609        0.59112542        0.11245545  C
       atom_frac         0.40860906        0.84244949        0.39882902  C
       atom_frac         0.90741038        0.90920875        0.40218314  C
       atom_frac         0.62479281        0.67048485        0.10915394  C
       atom_frac         0.07229023        0.55690404        0.01822389  C
       atom_frac         0.46179110        0.80543519        0.48828683  C
       atom_frac         0.98007235        0.93973064        0.49535418  C
       atom_frac         0.55144220        0.70154882        0.01709077  C
       atom_frac         0.09825149        0.62786700        0.47129180  C
       atom_frac         0.45139159        0.88261785        0.04532657  C
       atom_frac         0.94277836        0.86702020        0.03251276  C
       atom_frac         0.58189002        0.62576010        0.46502476  C
       atom_frac         0.03500831        0.60483923        0.38132267  C
       atom_frac         0.52936711        0.84994949        0.13856102  C
       atom_frac         1.00661509        0.89569024        0.12330548  C
       atom_frac         0.53559766        0.66514057        0.37896806  C
       atom_frac         0.17668046        0.55328704        0.24081665  H
       atom_frac         0.40736723        0.80042003        0.27686743  H
       atom_frac         0.89274660        0.95583333        0.27718727  H
       atom_frac         0.68666049        0.71525337        0.24207778  H
       atom_frac         0.22611434        0.67031650        0.14230652  H
       atom_frac         0.35306310        0.92677609        0.37713108  H
       atom_frac         0.81801979        0.83199242        0.37223528  H
       atom_frac         0.70177008        0.59048906        0.13716593  H
       atom_frac         0.17963651        0.70545286        0.50370861  H
       atom_frac         0.37352935        0.96394781        0.01970904  H
       atom_frac         0.86946895        0.78700673        0.00328433  H
       atom_frac         0.66546174        0.54685017        0.49406710  H
       atom_frac         0.07436511        0.65699747        0.34031016  H
       atom_frac         0.50905188        0.90801347        0.18291994  H
       atom_frac         0.97523792        0.84197811        0.16557000  H
       atom_frac         0.56416891        0.61448990        0.33586466  H
       atom_frac         0.09090369        0.51470118        0.67060706  C
       atom_frac         0.39769176        0.76811027        0.83033647  C
       atom_frac         0.92653661        0.99015993        0.82873025  C
       atom_frac         0.58676952        0.73222306        0.66866277  C
       atom_frac         0.13331985        0.58290909        0.62063060  C
       atom_frac         0.38251891        0.84065825        0.88703799  C
       atom_frac         0.91104948        0.91268519        0.88496184  C
       atom_frac         0.61572300        0.66497306        0.61292708  C
       atom_frac         0.06463995        0.55505303        0.52564994  C
       atom_frac         0.46185241        0.81177104        0.98345303  C
       atom_frac         0.97758948        0.94230640        0.97795402  C
       atom_frac         0.55338081        0.70016077        0.52163510  C
       atom_frac         0.09976433        0.62640152        0.95917042  C
       atom_frac         0.43492249        0.87376263        0.54733385  C
       atom_frac         0.94792845        0.87382155        0.55348447  C
       atom_frac         0.56983366        0.63032576        0.95659626  C
       atom_frac         0.03102988        0.59369024        0.87079347  C
       atom_frac         0.49659436        0.83896549        0.63468464  C
       atom_frac         1.01893099        0.90776936        0.64322634  C
       atom_frac         0.49064819        0.66195034        0.86434055  C
       atom_frac         0.14905033        0.53898485        0.74286434  H
       atom_frac         0.34044276        0.78788721        0.75896858  H
       atom_frac         0.88253899        0.96577441        0.75952970  H
       atom_frac         0.62119217        0.70258754        0.73607474  H
       atom_frac         0.21335937        0.66357155        0.64776373  H
       atom_frac         0.32271359        0.92634680        0.86493674  H
       atom_frac         0.83646803        0.83147222        0.85745276  H
       atom_frac         0.68774636        0.58001094        0.63732964  H
       atom_frac         0.15859760        0.70970791        0.98160834  H
       atom_frac         0.36432618        0.95808081        0.52488120  H
       atom_frac         0.87008553        0.79296044        0.52965706  H
       atom_frac         0.64424933        0.54908333        0.98489091  H
       atom_frac         0.03875760        0.65050505        0.82445870  H
       atom_frac         0.45823575        0.89284512        0.67334535  H
       atom_frac         0.99685169        0.85159091        0.68563816  H
       atom_frac         0.50209920        0.59985522        0.81966811  H

 
  Finished reading input file 'geometry.in'.
 

 
  Consistency checks for stacksize environment parameter are next.
 
  | Maximum stacksize for task 0: unlimited
  | Maximum stacksize for task 1: unlimited
  | Maximum stacksize for task 2: unlimited
  | Maximum stacksize for task 3: unlimited
  | Maximum stacksize for task 4: unlimited
  | Maximum stacksize for task 5: unlimited
  | Maximum stacksize for task 6: unlimited
  | Maximum stacksize for task 7: unlimited
  | Maximum stacksize for task 8: unlimited
  | Maximum stacksize for task 9: unlimited
  | Maximum stacksize for task 10: unlimited
  | Maximum stacksize for task 11: unlimited
  | Maximum stacksize for task 12: unlimited
  | Maximum stacksize for task 13: unlimited
  | Maximum stacksize for task 14: unlimited
  | Maximum stacksize for task 15: unlimited
  | Maximum stacksize for task 16: unlimited
  | Maximum stacksize for task 17: unlimited
  | Current stacksize for task 0: unlimited
  | Current stacksize for task 1: unlimited
  | Current stacksize for task 2: unlimited
  | Current stacksize for task 3: unlimited
  | Current stacksize for task 4: unlimited
  | Current stacksize for task 5: unlimited
  | Current stacksize for task 6: unlimited
  | Current stacksize for task 7: unlimited
  | Current stacksize for task 8: unlimited
  | Current stacksize for task 9: unlimited
  | Current stacksize for task 10: unlimited
  | Current stacksize for task 11: unlimited
  | Current stacksize for task 12: unlimited
  | Current stacksize for task 13: unlimited
  | Current stacksize for task 14: unlimited
  | Current stacksize for task 15: unlimited
  | Current stacksize for task 16: unlimited
  | Current stacksize for task 17: unlimited
 
  Consistency checks for the contents of control.in are next.
 
  MPI_IN_PLACE appears to work with this MPI implementation.
  | Keeping use_mpi_in_place .true. (see manual).
  Explicit treatment of the Coulomb operator is needed, but the RI method is not specified.
  Coulomb operator: Defaulting to 'LVL fast' resolution of identity - RI_type = LVL_fast
  Species H: Using default value for prodbas_acc =   1.000000E-06.
  Species H: Using default value max_l_prodbas =     6.
  Species C: Using default value for prodbas_acc =   1.000000E-06.
  Species C: Using default value max_l_prodbas =     6.
  Target number of points in a grid batch is not set.  Since GPU acceleration is enabled, defaulting to  200
  Method for grid partitioning is not set. Defaulting to parallel hash+maxmin partitioning.
  Batch size limit is not set. Defaulting to    200
  By default, will store active basis functions for each batch.
  If in need of memory, prune_basis_once .false. can be used to disable this option.
  communication_type for Hartree potential was not specified.
  Defaulting to calc_hartree .
  Defaulting to Pulay charge density mixer.
  Pulay mixer: Number of relevant iterations not set.
  Defaulting to    8 iterations.
  Pulay mixer: Number of initial linear mixing iterations not set.
  Defaulting to    0 iterations.
  Work space size for distributed Hartree potential not set.
  Defaulting to   0.200000E+03 MB.
  Algorithm-dependent basis array size parameters:
  | n_max_pulay                         :        8
  Maximum number of self-consistency iterations not provided.
  Presetting  1000 iterations.
  Presetting      1001 iterations before the initial mixing cycle
  is restarted anyway using the sc_init_iter criterion / keyword.
  Presetting a factor      1.000 between actual scf density residual
  and density convergence criterion sc_accuracy_rho below which sc_init_iter
  takes no effect.
 * No s.c.f. convergence criteria (sc_accuracy_*) were provided in control.in.
 * The run will proceed with a reasonable default guess, but please check whether.
 * the s.c.f. cycles seem to take too much or too little time.
  Geometry relaxation not requested: no relaxation will be performed.
 * Notice: The s.c.f. convergence criterion sc_accuracy_rho was not provided.
 * We used to stop in this case, and ask the user to provide reasonable
 * scf convergence criteria. However, this led some users to employ criteria
 * that led to extremely long run times, e.g., for simple relaxation.
 * We now preset a default value for sc_accuracy_rho if it is not set.
 * You may still wish to check if this setting is too tight or too loose for your needs.
 * Based on n_atoms and forces and force-correction status, FHI-aims chose sc_accuracy_rho =  0.391918E-04 .
  No accuracy limit for integral partition fn. given. Defaulting to  0.1000E-14.
  No threshold value for u(r) in integrations given. Defaulting to  0.1000E-05.
  No occupation type (smearing scheme) given. Defaulting to Gaussian broadening, width =  0.1000E-01 eV.
  The width will be adjusted in iteration number     2 of the first full s.c.f. cycle only.
  S.C.F. convergence parameters will be adjusted in iteration number     2 of the first full s.c.f. cycle only.
  No accuracy for occupation numbers given. Defaulting to  0.1000E-12.
  No threshold value for occupation numbers given. Defaulting to  0.0000E+00.
  No accuracy for fermi level given. Defaulting to  0.1000E-19.
  Maximum # of iterations to find E_F not set. Defaulting to  200.
  Preferred method for the eigenvalue solver ('KS_method') not specified in 'control.in'.
  Calling BLACS routine to test compilation state
  Since ScaLAPACK support is enabled, defaulting to ELPA (via ELSI).
  Will not use alltoall communication since running on < 1024 CPUs.
  Threshold for basis singularities not set.
  Default threshold for basis singularities:  0.1000E-04
  partition_type (choice of integration weights) for integrals was not specified.
  | Using a version of the partition function of Stratmann and coworkers ('stratmann_sparse').
  | At each grid point, the set of atoms used to build the partition table is smoothly restricted to
  | only those atoms whose free-atom density would be non-zero at that grid point.
  Partitioning for Hartree potential was not defined. Using partition_type for integrals.
  | Adjusted default value of keyword multip_moments_threshold to:       0.10000000E-11
  | This value may affect high angular momentum components of the Hartree potential in periodic systems.
  Angular momentum expansion for Kerker preconditioner not set explicitly.
  | Using default value of   0
  No explicit requirement for turning off preconditioner.
  | By default, it will be turned off when the charge convergence reaches
  | sc_accuracy_rho  =   0.391918E-04
  No special mixing parameter while Kerker preconditioner is on.
  Using default: charge_mix_param =     0.7500.
  Threshold for auxiliary basis singularities not set.
  Default threshold for auxiliary basis singularities:  0.1000E-04
  No q(lm)/r^(l+1) cutoff set for long-range Hartree potential.
  | Using default value of  0.100000E-09 .
  | Verify using the multipole_threshold keyword.
  Defaulting to new monopole extrapolation.
  Density update method: automatic selection selected.
  Using density matrix based charge density update.
  Using density matrix based charge density update.
  Using packed matrix style: index .
  Defaulting to use time-reversal symmetry for k-point grid.
  Charge integration errors on the 3D integration grid will be compensated
  by explicit normalization and distribution of residual charges.
  Use the "compensate_multipole_errors" flag to change this behaviour.
  Default to 1D ("use_logsbt") integrations for auxiliary 2-center integrals.
  Default onset of logarithmic r-grid for SBT is -38.000000000000
  Default onset of logarithmic k-grid for SBT is -25.000000000000
  Default range of logarithmic r- and k-grid for SBT is  45.000000000000
  Default number of logarithmic r- and k-grid for SBT is   4096
  Default of use_2d_corr is to use the efficient 2D distribution where possible
 
  Consistency checks for the contents of geometry.in are next.
 

  Range separation radius for Ewald summation (hartree_convergence_parameter):      2.91768261 bohr.
  Number of empty states per atom not set in control.in .
  | Since you are using a method that relies on the unoccupied spectrum
  | (MP2,GW,RPA et al.), will use the full Hamiltonian size (see below)
  | as the max. possible number of states (occupied plus empty).

  Structure-dependent array size parameters: 
  | Maximum number of distinct radial functions  :        9
  | Maximum number of basis functions            :     1440
  | Number of Kohn-Sham states (occupied + empty):     1440
------------------------------------------------------------
CUDA runtime version: 11060
CUDA driver version: 11060
  Initializing GPUs...

  Number of GPUs available to MPI task         0 :   1
  Number of GPUs available to MPI task         1 :   1
  Number of GPUs available to MPI task         2 :   1
  Number of GPUs available to MPI task         3 :   1
  Number of GPUs available to MPI task         4 :   1
  Number of GPUs available to MPI task         5 :   1
  Number of GPUs available to MPI task         6 :   1
  Number of GPUs available to MPI task         7 :   1
  Number of GPUs available to MPI task         8 :   1
  Number of GPUs available to MPI task         9 :   1
  Number of GPUs available to MPI task        10 :   1
  Number of GPUs available to MPI task        11 :   1
  Number of GPUs available to MPI task        12 :   1
  Number of GPUs available to MPI task        13 :   1
  Number of GPUs available to MPI task        14 :   1
  Number of GPUs available to MPI task        15 :   1
  Number of GPUs available to MPI task        16 :   1
  Number of GPUs available to MPI task        17 :   1

  | MPI task         0, GPU activated = T, Device Name = NVIDIA A100-SXM4-80GB
  | MPI task         1, GPU activated = T, Device Name = NVIDIA A100-SXM4-80GB
  | MPI task         2, GPU activated = T, Device Name = NVIDIA A100-SXM4-80GB
  | MPI task         3, GPU activated = T, Device Name = NVIDIA A100-SXM4-80GB
  | MPI task         4, GPU activated = T, Device Name = NVIDIA A100-SXM4-80GB
  | MPI task         5, GPU activated = T, Device Name = NVIDIA A100-SXM4-80GB
  | MPI task         6, GPU activated = T, Device Name = NVIDIA A100-SXM4-80GB
  | MPI task         7, GPU activated = T, Device Name = NVIDIA A100-SXM4-80GB
  | MPI task         8, GPU activated = T, Device Name = NVIDIA A100-SXM4-80GB
  | MPI task         9, GPU activated = T, Device Name = NVIDIA A100-SXM4-80GB
  | MPI task        10, GPU activated = T, Device Name = NVIDIA A100-SXM4-80GB
  | MPI task        11, GPU activated = T, Device Name = NVIDIA A100-SXM4-80GB
  | MPI task        12, GPU activated = T, Device Name = NVIDIA A100-SXM4-80GB
  | MPI task        13, GPU activated = T, Device Name = NVIDIA A100-SXM4-80GB
  | MPI task        14, GPU activated = T, Device Name = NVIDIA A100-SXM4-80GB
  | MPI task        15, GPU activated = T, Device Name = NVIDIA A100-SXM4-80GB
  | MPI task        16, GPU activated = T, Device Name = NVIDIA A100-SXM4-80GB
  | MPI task        17, GPU activated = T, Device Name = NVIDIA A100-SXM4-80GB

------------------------------------------------------------
          Preparing all fixed parts of the calculation.
------------------------------------------------------------
  Determining machine precision:
    2.225073858507201E-308
  Setting up grids for atomic and cluster calculations.

  Creating wave function, potential, and density for free atoms.
  Runtime choices for atomic solver:
  | atomic solver xc        : PW-LDA
  | compute density gradient: 0
  | compute kinetic density : F

  Species: H

  List of occupied orbitals and eigenvalues:
    n    l              occ      energy [Ha]    energy [eV]
    1    0           1.0000        -0.232375        -6.3233


  Species: C

  List of occupied orbitals and eigenvalues:
    n    l              occ      energy [Ha]    energy [eV]
    1    0           2.0000        -9.944615      -270.6068
    2    0           2.0000        -0.498807       -13.5732
    2    1           2.0000        -0.196968        -5.3598


  Adding cutoff potential to free-atom effective potential.
  Creating fixed part of basis set: Ionic, confined, hydrogenic.
 
  H                    hydrogenic:
 
  List of hydrogenic basis orbitals: 
    n    l      effective z      eigenvalue [eV]  inner max. [A]     outer max. [A]     outer radius [A]   
    2    0         2.100000       -14.9728           0.193243           1.317208           4.583499
    2    1         3.500000       -41.6669           0.602369           0.602369           3.723403
 
 
  C                    hydrogenic:
 
  List of hydrogenic basis orbitals: 
    n    l      effective z      eigenvalue [eV]  inner max. [A]     outer max. [A]     outer radius [A]   
    2    1         1.700000        -9.7616           1.230570           1.230570           4.607917
    3    2         6.000000       -54.4224           0.792453           0.792453           3.883070
    2    0         4.900000       -81.6679           0.082559           0.562749           3.078220
 
  Creating atomic-like basis functions for current effective potential.

  Species H                   :

  List of atomic basis orbitals and eigenvalues:
    n    l      energy [Ha]    energy [eV]    outer radius [A]
    1    0        -0.232375        -6.3233       4.527807


  Species C                   :

  List of atomic basis orbitals and eigenvalues:
    n    l      energy [Ha]    energy [eV]    outer radius [A]
    1    0        -9.944615      -270.6068       1.934409
    2    0        -0.498807       -13.5732       4.496620
    2    1        -0.196968        -5.3598       4.551928

  Assembling full basis from fixed parts.
  | Species H :   atomic orbital   1 s accepted.
  | Species H :    hydro orbital   2 s accepted.
  | Species H :    hydro orbital   2 p accepted.
  | Species C :   atomic orbital   1 s accepted.
  | Species C :    hydro orbital   2 s accepted.
  | Species C :   atomic orbital   2 s accepted.
  | Species C :   atomic orbital   2 p accepted.
  | Species C :    hydro orbital   2 p accepted.
  | Species C :    hydro orbital   3 d accepted.
 
  Basis size parameters after reduction:
  | Total number of radial functions:        9
  | Total number of basis functions :     1440
 
  Per-task memory consumption for arrays in subroutine allocate_ext:
  |           2.242384MB.
  Testing on-site integration grid accuracy.
  |  Species  Function  <phi|h_atom|phi> (log., in eV)  <phi|h_atom|phi> (rad., in eV)
           1        1                 -6.3245358373                 -6.3232436907
           1        2                 14.1326137532                 14.1384481100
           1        3                 25.3627025200                 25.3628451197
           2        4               -270.6067544938               -270.6067222788
           2        5                -10.5634280949                -10.5635685736
           2        6                 16.2089822398                 16.2052121796
           2        7                 -5.3613872565                 -5.3627872378
           2        8                  8.5292058327                  8.5051734780
           2        9                 27.4884461005                 27.4884542459

  Preparing densities etc. for the partition functions (integrals / Hartree potential).

  Preparations completed.
  max(cpu_time)          :      0.073 s.
  Wall clock time (cpu1) :      0.070 s.
------------------------------------------------------------

  Initializing index lists of integration centers etc. from given atomic structure:
  Mapping all atomic coordinates to central unit cell.

  Initializing the k-points
  Using symmetry for reducing the k-points
  | k-points reduced from:        2 to        2
  | Number of k-points                             :         2
  | Consuming          0 KiB for k_phase_exx.
  The eigenvectors in the calculations are REAL.
  | Number of basis functions in the Hamiltonian integrals :      8008
  | Number of basis functions in a single unit cell        :      1440
  | Number of centers in hartree potential         :      3337
  | Number of centers in hartree multipole         :      2574
  | Number of centers in electron density summation:      2005
  | Number of centers in basis integrals           :      2132
  | Number of centers in integrals                 :       951
  | Number of centers in hamiltonian               :      2012
  | Consuming          1 KiB for k_phase.
  | Number of super-cells (origin) [n_cells]                     :         175
  | Number of super-cells (after PM_index) [n_cells]             :          40
  | Number of super-cells in hamiltonian [n_cells_in_hamiltonian]:          40
  | Size of matrix packed + index [n_hamiltonian_matrix_size] :     1931700
  | Size of matrix packed + index (no_symmetry):     3860583

------------------------------------------------------------
          Begin self-consistency loop: Initialization.

          Date     :  20230120, Time     :  163014.242
------------------------------------------------------------
  | Estimated reciprocal-space cutoff momentum G_max:         3.24344278 bohr^-1 .
  | Reciprocal lattice points for long-range Hartree potential:    5310
  Using simple linear distribution as default method for k-point parallelism.
  * Using 18 tasks for Scalapack Eigenvalue solver.
  Detailed listing of tasks and assigned k-points:
   Task     0 k-point     1 on adag005
   Task     1 k-point     1 on adag005
   Task     2 k-point     1 on adag005
   Task     3 k-point     1 on adag005
   Task     4 k-point     1 on adag005
   Task     5 k-point     1 on adag005
   Task     6 k-point     1 on adag005
   Task     7 k-point     1 on adag005
   Task     8 k-point     1 on adag005
   Task     9 k-point     2 on adag005
   Task    10 k-point     2 on adag005
   Task    11 k-point     2 on adag005
   Task    12 k-point     2 on adag005
   Task    13 k-point     2 on adag005
   Task    14 k-point     2 on adag005
   Task    15 k-point     2 on adag005
   Task    16 k-point     2 on adag005
   Task    17 k-point     2 on adag005
  K-point:     1 Tasks:     9 split into      3 X      3 BLACS grid
  Calculating block size based on n_basis =         1440  max_nprow =            3  max_npcol =            3
  ScaLAPACK block size set to:           16
  Allocating        1.758 MB for ovlp
  Allocating        1.758 MB for ham
  Allocating        1.758 MB for eigenvec
  Required Scalapack workspace - INTEGER:            1  REAL:             1
  Partitioning the integration grid into batches with parallel hashing+maxmin method.
  | Number of batches:     5313
  | Maximal batch size:     200
  | Minimal batch size:      99
  | Average batch size:     143.768
  | Standard deviation of batch sizes:      31.191

  Integration load balanced across    18 MPI tasks.
  Work distribution over tasks is as follows:
  Task     0 has      42437 integration points.
  Task     1 has      42436 integration points.
  Task     2 has      42525 integration points.
  Task     3 has      42528 integration points.
  Task     4 has      42414 integration points.
  Task     5 has      42465 integration points.
  Task     6 has      42436 integration points.
  Task     7 has      42451 integration points.
  Task     8 has      42405 integration points.
  Task     9 has      42397 integration points.
  Task    10 has      42444 integration points.
  Task    11 has      42348 integration points.
  Task    12 has      42378 integration points.
  Task    13 has      42521 integration points.
  Task    14 has      42413 integration points.
  Task    15 has      42425 integration points.
  Task    16 has      42464 integration points.
  Task    17 has      42353 integration points.
  Initializing partition tables, free-atom densities, potentials, etc. across the integration grid (initialize_grid_storage).
  | initialize_grid_storage: Actual outermost partition radius vs. multipole_radius_free
  | (-- VB: in principle, multipole_radius_free should be larger, hence this output)
  | Species        1: Confinement radius =              4.999999999999999 AA, multipole_radius_free =              5.054417573612229 AA.
  | Species        1: outer_partition_radius set to              5.054417573612229 AA .
  | Species        2: Confinement radius =              4.999999999999999 AA, multipole_radius_free =              5.019602836301480 AA.
  | Species        2: outer_partition_radius set to              5.019602836301480 AA .
  | The sparse table of interatomic distances needs       7679.00 kbyte instead of     36363.39 kbyte of memory.
  | Net number of integration points:   763840
  | of which are non-zero points    :   605367
  | Numerical average free-atom electrostatic potential    :     -8.61471025 eV
  Renormalizing the initial density to the exact electron count on the 3D integration grid.
  | Initial density: Formal number of electrons (from input files) :     544.0000000000
  | Integrated number of electrons on 3D grid     :     543.9988517253
  | Charge integration error                      :      -0.0011482747
  | Normalization factor for density and gradient :       1.0000021108
  Renormalizing the free-atom superposition density to the exact electron count on the 3D integration grid.
  | Formal number of electrons (from input files) :     544.0000000000
  | Integrated number of electrons on 3D grid     :     543.9988517253
  | Charge integration error                      :      -0.0011482747
  | Normalization factor for density and gradient :       1.0000021108
  Obtaining max. number of non-zero basis functions in each batch (get_n_compute_maxes).
  | Maximal number of non-zero basis functions:      541 in task     0
  | Maximal number of non-zero basis functions:      549 in task     1
  | Maximal number of non-zero basis functions:      542 in task     2
  | Maximal number of non-zero basis functions:      526 in task     3
  | Maximal number of non-zero basis functions:      546 in task     4
  | Maximal number of non-zero basis functions:      545 in task     5
  | Maximal number of non-zero basis functions:      531 in task     6
  | Maximal number of non-zero basis functions:      553 in task     7
  | Maximal number of non-zero basis functions:      537 in task     8
  | Maximal number of non-zero basis functions:      538 in task     9
  | Maximal number of non-zero basis functions:      540 in task    10
  | Maximal number of non-zero basis functions:      533 in task    11
  | Maximal number of non-zero basis functions:      534 in task    12
  | Maximal number of non-zero basis functions:      543 in task    13
  | Maximal number of non-zero basis functions:      543 in task    14
  | Maximal number of non-zero basis functions:      548 in task    15
  | Maximal number of non-zero basis functions:      538 in task    16
  | Maximal number of non-zero basis functions:      549 in task    17
  Integrating Hamiltonian matrix: batch-based integration.
  GPU acceleration will be used when integrating the Hamiltonian matrix.
  Reporting GPU memory usage by myid 0.  Note that it is likely not the only MPI task binding to its GPU!
  Allocating        2.341 MB on GPU for hamiltonian_shell
  Allocating        0.866 MB on GPU for wave
  Allocating        0.002 MB on GPU for partition
  Allocating        0.866 MB on GPU for h_times_psi
  Time summed over all CPUs for integration: real work       24.056 s, elapsed       25.360 s
  Deallocating memory used on GPU for Hamiltonian integration.
  Integrating overlap matrix.
  Time summed over all CPUs for integration: real work       19.844 s, elapsed       20.570 s
  Deallocating overlap matrix.

  Updating Kohn-Sham eigenvalues and eigenvectors using ELSI and the ELPA eigensolver.
  Singularity check in k-point 1 (analysis for other k-points may follow below):
  Overlap matrix is not singular
  | Lowest and highest eigenvalues :  0.7908E-03,  0.8284E+01
  Finished singularity check of overlap matrix
  | Time :     0.103 s
  Starting ELPA eigensolver
  Finished Cholesky decomposition
  | Time :     0.017 s
  Finished transformation to standard eigenproblem
  | Time :     0.022 s
  Finished solving standard eigenproblem
  | Time :     0.205 s
  Finished back-transformation of eigenvectors
  | Time :     0.016 s

  Obtaining occupation numbers and electronic chemical potential using ELSI.
  | Note that, for insulating systems, the printed 'chemical potential' value is not uniquely defined.
  | It can be anywhere in the energy gap, as long as it correctly separates occupied and unoccupied states.
  | In systems with a gap, the physically relevant chemical potential is the VBM or HOMO.

  | Chemical potential (Fermi level):    -8.18122588 eV
  Writing Kohn-Sham eigenvalues.
  K-point:       1 at    0.000000    0.000000    0.000000 (in units of recip. lattice)

  State    Occupation    Eigenvalue [Ha]    Eigenvalue [eV]
      1       2.00000         -10.073912         -274.12509
      2       2.00000         -10.072646         -274.09063
      3       2.00000         -10.070408         -274.02975
      4       2.00000         -10.070193         -274.02390
      5       2.00000         -10.069174         -273.99617
      6       2.00000         -10.068612         -273.98088
      7       2.00000         -10.068563         -273.97955
      8       2.00000         -10.068460         -273.97675
      9       2.00000         -10.067759         -273.95767
     10       2.00000         -10.067373         -273.94715
     11       2.00000         -10.067080         -273.93919
     12       2.00000         -10.066927         -273.93501
     13       2.00000         -10.066796         -273.93145
     14       2.00000         -10.066726         -273.92956
     15       2.00000         -10.066220         -273.91580
     16       2.00000         -10.066186         -273.91487
     17       2.00000         -10.066186         -273.91486
     18       2.00000         -10.066146         -273.91376
     19       2.00000         -10.066009         -273.91003
     20       2.00000         -10.065901         -273.90709
     21       2.00000         -10.065024         -273.88324
     22       2.00000         -10.064748         -273.87573
     23       2.00000         -10.064364         -273.86528
     24       2.00000         -10.064311         -273.86383
     25       2.00000         -10.064212         -273.86116
     26       2.00000         -10.064200         -273.86082
     27       2.00000         -10.063953         -273.85409
     28       2.00000         -10.063791         -273.84968
     29       2.00000         -10.063587         -273.84413
     30       2.00000         -10.063537         -273.84278
     31       2.00000         -10.063382         -273.83856
     32       2.00000         -10.062959         -273.82706
     33       2.00000         -10.062708         -273.82022
     34       2.00000         -10.062617         -273.81773
     35       2.00000         -10.062450         -273.81320
     36       2.00000         -10.062183         -273.80594
     37       2.00000         -10.061967         -273.80004
     38       2.00000         -10.061856         -273.79702
     39       2.00000         -10.061697         -273.79271
     40       2.00000         -10.061577         -273.78944
     41       2.00000         -10.061458         -273.78620
     42       2.00000         -10.061062         -273.77544
     43       2.00000         -10.060972         -273.77299
     44       2.00000         -10.060620         -273.76339
     45       2.00000         -10.060350         -273.75604
     46       2.00000         -10.060347         -273.75596
     47       2.00000         -10.060304         -273.75480
     48       2.00000         -10.060293         -273.75451
     49       2.00000         -10.060283         -273.75423
     50       2.00000         -10.059944         -273.74501
     51       2.00000         -10.059829         -273.74186
     52       2.00000         -10.059698         -273.73831
     53       2.00000         -10.059607         -273.73585
     54       2.00000         -10.059329         -273.72827
     55       2.00000         -10.059278         -273.72688
     56       2.00000         -10.059262         -273.72645
     57       2.00000         -10.058947         -273.71787
     58       2.00000         -10.058795         -273.71373
     59       2.00000         -10.058794         -273.71371
     60       2.00000         -10.058662         -273.71012
     61       2.00000         -10.058602         -273.70848
     62       2.00000         -10.058593         -273.70824
     63       2.00000         -10.058251         -273.69894
     64       2.00000         -10.057390         -273.67550
     65       2.00000         -10.057156         -273.66915
     66       2.00000         -10.056930         -273.66298
     67       2.00000         -10.056797         -273.65936
     68       2.00000         -10.056625         -273.65469
     69       2.00000         -10.056601         -273.65403
     70       2.00000         -10.056245         -273.64435
     71       2.00000         -10.055613         -273.62715
     72       2.00000         -10.055279         -273.61807
     73       2.00000         -10.055055         -273.61198
[...]
  |    H      0     4.527807 A      4.583499 A        4.713786E-16 a.u.
  |    H      2     3.678162 A  1.011968E+04 A            0.556529 a.u.
  |    H      1     3.958095 A  1.721251E+06 A            0.841931 a.u.
  |    H      0     4.527807 A  3.866455E+12 A            0.581436 a.u.
  |    C      0     2.562483 A      2.562483 A        6.563029E-17 a.u.
  |    C      0     2.967371 A      2.967371 A        1.352164E-16 a.u.
  |    C      0     3.003870 A      3.003870 A        2.312640E-17 a.u.
  |    C      1     3.272245 A      3.272245 A       -3.835259E-17 a.u.
  |    C      0     3.312494 A      3.312494 A       -2.710381E-16 a.u.
  |    C      3     4.077671 A      4.077671 A       -1.683752E-15 a.u.
  |    C      3     4.077671 A      4.077671 A        1.412852E-15 a.u.
  |    C      1     4.496620 A      4.496620 A       -3.011059E-16 a.u.
  |    C      0     4.496620 A      4.551928 A        2.873903E-17 a.u.
  |    C      2     4.551928 A      4.551928 A       -4.610785E-16 a.u.
  |    C      2     4.551928 A      4.551928 A        7.440584E-16 a.u.
  |    C      2     4.551928 A      4.551928 A       -7.110458E-16 a.u.
  |    C      2     4.551928 A      4.551928 A       -1.935424E-16 a.u.
  |    C      0     4.551928 A      4.607917 A        2.067142E-16 a.u.
  |    C      0     4.551928 A      4.607917 A       -1.109786E-16 a.u.
  |    C      1     4.551928 A      4.607917 A       -9.951742E-17 a.u.
  |    C      1     4.551928 A      4.607917 A        1.937809E-16 a.u.
  |    C      1     4.607917 A      4.607917 A       -2.813308E-16 a.u.
  |    C      1     4.607917 A      4.607917 A       -7.330363E-17 a.u.
  |    C      2     4.607917 A      4.607917 A        1.318462E-15 a.u.
  |    C      2     4.607917 A      4.607917 A       -1.318397E-15 a.u.
  |    C      0     4.607917 A      4.664595 A        3.157826E-16 a.u.
  |    C      1     4.607917 A      4.664595 A        7.356967E-16 a.u.
  |    C      4     3.835889 A  2.962973E+02 A            4.379483 a.u.
  |    C      3     4.127827 A  1.725964E+03 A            9.005588 a.u.
  |    C      2     4.607917 A  2.608475E+04 A            9.531178 a.u.
  |    C      1     4.607917 A  2.736013E+06 A            2.127278 a.u.
  |    C      0     4.607917 A  4.399765E+12 A            0.661635 a.u.

  | Shrink_full_auxil_basis : there are       36  radial auxiliary wave functions
                            accepted and       7 rejected.
  | Shrink_full_auxil_basis : there are totally                8992 partial auxiliary wave functions.
 
  | Maximal number of product basis functions per thread :   512   512
 
  | Minimal total memory requirement for three-center overlap :      72.476 Gbs
  | Number of local auxiliary basis functions on task:      0   512
  | Number of local auxiliary basis functions on task:      1   512
  | Number of local auxiliary basis functions on task:      2   512
  | Number of local auxiliary basis functions on task:      3   512
  | Number of local auxiliary basis functions on task:      4   496
  | Number of local auxiliary basis functions on task:      5   496
  | Number of local auxiliary basis functions on task:      6   496
  | Number of local auxiliary basis functions on task:      7   496
  | Number of local auxiliary basis functions on task:      8   496
  | Number of local auxiliary basis functions on task:      9   496
  | Number of local auxiliary basis functions on task:     10   496
  | Number of local auxiliary basis functions on task:     11   496
  | Number of local auxiliary basis functions on task:     12   496
  | Number of local auxiliary basis functions on task:     13   496
  | Number of local auxiliary basis functions on task:     14   496
  | Number of local auxiliary basis functions on task:     15   496
  | Number of local auxiliary basis functions on task:     16   496
  | Number of local auxiliary basis functions on task:     17   496
  | 2D aux task distribution:      3 X      6
  | 2D block size (nb_aux_2d):     64
 
  Basis pair condensation :   1037520  -->     540524
 
 --------------------------------------------
  Constructing auxiliary basis (full product) ...
 
  Product basis:
  | charge radius: extent of product basis function
  | field radius: extent of its Coulomb potential
  | Species   l  charge radius    field radius  multipol momen
  |    H      1     3.910002 A      3.910002 A       -2.487223E-16 a.u.
  |    H      1     3.958095 A      3.958095 A       -2.441841E-16 a.u.
  |    H      0     4.527807 A      4.527807 A        1.268855E-16 a.u.
  |    H      0     4.527807 A      4.583499 A       -4.900954E-17 a.u.
  |    H      0     4.527807 A      4.583499 A        4.713786E-16 a.u.
  |    H      2     3.678162 A  1.011968E+04 A            0.556529 a.u.
  |    H      1     3.958095 A  1.721251E+06 A            0.841931 a.u.
  |    H      0     4.527807 A  3.866455E+12 A            0.581436 a.u.
  |    C      0     2.562483 A      2.562483 A        6.563029E-17 a.u.
  |    C      0     2.967371 A      2.967371 A        1.352164E-16 a.u.
  |    C      0     3.003870 A      3.003870 A        2.312640E-17 a.u.
  |    C      1     3.272245 A      3.272245 A       -3.835259E-17 a.u.
  |    C      0     3.312494 A      3.312494 A       -2.710381E-16 a.u.
  |    C      3     4.077671 A      4.077671 A       -1.683752E-15 a.u.
  |    C      3     4.077671 A      4.077671 A        1.412852E-15 a.u.
  |    C      1     4.496620 A      4.496620 A       -3.011059E-16 a.u.
  |    C      0     4.496620 A      4.551928 A        2.873903E-17 a.u.
  |    C      2     4.551928 A      4.551928 A       -4.610785E-16 a.u.
  |    C      2     4.551928 A      4.551928 A        7.440584E-16 a.u.
  |    C      2     4.551928 A      4.551928 A       -7.110458E-16 a.u.
  |    C      2     4.551928 A      4.551928 A       -1.935424E-16 a.u.
  |    C      0     4.551928 A      4.607917 A        2.067142E-16 a.u.
  |    C      0     4.551928 A      4.607917 A       -1.109786E-16 a.u.
  |    C      1     4.551928 A      4.607917 A       -9.951742E-17 a.u.
  |    C      1     4.551928 A      4.607917 A        1.937809E-16 a.u.
  |    C      1     4.607917 A      4.607917 A       -2.813308E-16 a.u.
  |    C      1     4.607917 A      4.607917 A       -7.330363E-17 a.u.
  |    C      2     4.607917 A      4.607917 A        1.318462E-15 a.u.
  |    C      2     4.607917 A      4.607917 A       -1.318397E-15 a.u.
  |    C      0     4.607917 A      4.664595 A        3.157826E-16 a.u.
  |    C      1     4.607917 A      4.664595 A        7.356967E-16 a.u.
  |    C      4     3.835889 A  2.962973E+02 A            4.379483 a.u.
  |    C      3     4.127827 A  1.725964E+03 A            9.005588 a.u.
  |    C      2     4.607917 A  2.608475E+04 A            9.531178 a.u.
  |    C      1     4.607917 A  2.736013E+06 A            2.127278 a.u.
  |    C      0     4.607917 A  4.399765E+12 A            0.661635 a.u.

  | Shrink_full_auxil_basis : there are       36  radial auxiliary wave functions
                            accepted and       7 rejected.
  | Shrink_full_auxil_basis : there are totally                8992 partial auxiliary wave functions.
 
  | Maximal number of product basis functions per thread :   512   512
 
  | Minimal total memory requirement for three-center overlap :      72.476 Gbs
  | Number of local auxiliary basis functions on task:      0   512
  | Number of local auxiliary basis functions on task:      1   512
  | Number of local auxiliary basis functions on task:      2   512
  | Number of local auxiliary basis functions on task:      3   512
  | Number of local auxiliary basis functions on task:      4   496
  | Number of local auxiliary basis functions on task:      5   496
  | Number of local auxiliary basis functions on task:      6   496
  | Number of local auxiliary basis functions on task:      7   496
  | Number of local auxiliary basis functions on task:      8   496
  | Number of local auxiliary basis functions on task:      9   496
  | Number of local auxiliary basis functions on task:     10   496
  | Number of local auxiliary basis functions on task:     11   496
  | Number of local auxiliary basis functions on task:     12   496
  | Number of local auxiliary basis functions on task:     13   496
  | Number of local auxiliary basis functions on task:     14   496
  | Number of local auxiliary basis functions on task:     15   496
  | Number of local auxiliary basis functions on task:     16   496
  | Number of local auxiliary basis functions on task:     17   496
  | 2D aux task distribution:      3 X      6
  | 2D block size (nb_aux_2d):     64
 
  Basis pair condensation :   1037520  -->     540524
  Allocating        0.069 MB for t_coeff
  Allocating        0.034 MB for basbas_idx
  Allocating        0.069 MB for wave
  Allocating        0.069 MB for total_wave
  Allocating        0.206 MB for wave_gradient
  Allocating        0.206 MB for total_wave_grad
 HERE1
 HERE2
  Deallocating        0.069 MB for t_coeff
  Deallocating        0.034 MB for basbas_idx
  Deallocating        0.069 MB for wave
  Deallocating        0.206 MB for wave_gradient
  Deallocating        0.206 MB for total_wave_grad
dP_dE (Bohr^3) at every cycle:--->
 (993.950632631762,0.000000000000000E+000) (10.9036578129822,0.000000000000000E+000) (-465.864006197724,0.000000000000000E+000)
 (10.9611413369430,0.000000000000000E+000) (1383.65712677546,0.000000000000000E+000) (6.15332812392224,0.000000000000000E+000)
 (-466.043650732138,0.000000000000000E+000) (6.15028896784091,0.000000000000000E+000) (1712.94540882450,0.000000000000000E+000)
DFPT polarizability (Bohr^3)        xx        yy        zz        xy        xz        yz
  | Polarizability:--->                       993.950632632                 1383.657126775                 1712.945408825                   10.903657813                 -465.864006198                    6.153328124

DFPT for dielectric_constant:--->  # PARSE DFPT_dielectric_tensor
               2.348769807083321             0.014796031072468            -0.632167519329056
               0.014874034988334             2.877593207027817             0.008349935011005
              -0.632411293130360             0.008345810941030             3.324430381906530

                                               :  max(cpu_time)    wall_clock(cpu1)
  | Time for  dielectric calculation            :        0.000 s           0.000 s
===========================================================================

------------------------------------------------------------------------------
  Final output of selected total energy values:

  The following output summarizes some interesting total energy values
  at the end of a run (AFTER all relaxation, molecular dynamics, etc.).

  | Total energy of the DFT / Hartree-Fock s.c.f. calculation      :         -83267.323872167 eV
  | Final zero-broadening corrected energy (caution - metals only) :         -83267.323872167 eV
  | For reference only, the value of 1 Hartree used in FHI-aims is :             27.211384500 eV
  | For reference only, the overall average (free atom contribution
  | + realspace contribution) of the electrostatic potential after
  | s.c.f. convergence is                                          :             -7.706777494 eV

  Before relying on these values, please be sure to understand exactly which
  total energy value is referred to by a given number. Different objects may
  all carry the same name 'total energy'. Definitions:

  Total energy of the DFT / Hartree-Fock s.c.f. calculation:
  | Note that this energy does not include ANY quantities calculated after the
  | s.c.f. cycle, in particular not ANY RPA, MP2, etc. many-body perturbation terms.

  Final zero-broadening corrected energy:
  | For metallic systems only, a broadening of the occupation numbers at the Fermi
  | level can be extrapolated back to zero broadening by an electron-gas inspired
  | formula. For all systems that are not real metals, this value can be
  | meaningless and should be avoided.

------------------------------------------------------------------------------
  Methods described in the following list of references were used in this FHI-aims run.
  If you publish the results, please make sure to cite these reference if they apply.
  FHI-aims is an academic code, and for our developers (often, Ph.D. students
  and postdocs), scientific credit in the community is essential.
  Thank you for helping us!

  For any use of FHI-aims, please cite:

    Volker Blum, Ralf Gehrke, Felix Hanke, Paula Havu, Ville Havu,
    Xinguo Ren, Karsten Reuter, and Matthias Scheffler
    'Ab initio molecular simulations with numeric atom-centered orbitals'
    Computer Physics Communications 180, 2175-2196 (2009)
    http://doi.org/10.1016/j.cpc.2009.06.022


  For Hartree-Fock, hybrid functionals, or many-body perturbation theory used in your run, please cite:

    Xinguo Ren, Patrick Rinke, Volker Blum, Juergen Wieferink, Alex Tkatchenko,
    Andrea Sanfilippo, Karsten Reuter, and Matthias Scheffler,
    'Resolution-of-identity approach to Hartree-Fock, hybrid density functionals,
    RPA, MP2, and GW with numeric atom-centered orbital basis functions'
    New Journal of Physics 14, 053020 (2012).
    http://doi.org/10.1088/1367-2630/14/5/053020


  The provided symmetry information was generated with SPGlib:

    Atsushi Togo, Yusuke Seto, Dimitar Pashov
    SPGlib 1.7.3 obtained from http://spglib.sourceforge.net
    Copyright (C) 2008 Atsushi Togo


  The DFPT (perturbation by an electric field) part of the code was used.
  Here is the corresponding reference:

    Honghui Shang, Nathaniel Raimbault, Mariana Rossi,
    Christian Carbogno, Patrick Rinke and Matthias Scheffler,
    'All-Electron, Real-Space Perturbation Theory for Homogeneous
    Electric Fields: Theory, Implementation, and Application within dft'
    New Journal of Physics, 20(7):073040, 2018


  The ELSI infrastructure was used in your run to solve the Kohn-Sham electronic structure.
  Please check out http://elsi-interchange.org to learn more.
  If scalability is important for your project, please acknowledge ELSI by citing:

    V. W-z. Yu, F. Corsetti, A. Garcia, W. P. Huhn, M. Jacquelin, W. Jia,
    B. Lange, L. Lin, J. Lu, W. Mi, A. Seifitokaldani, A. Vazquez-Mayagoitia,
    C. Yang, H. Yang, and V. Blum
    'ELSI: A unified software interface for Kohn-Sham electronic structure solvers'
    Computer Physics Communications 222, 267-285 (2018).
    http://doi.org/10.1016/j.cpc.2017.09.007


  For the real-space grid partitioning and parallelization used in this calculation, please cite:

    Ville Havu, Volker Blum, Paula Havu, and Matthias Scheffler,
    'Efficient O(N) integration for all-electron electronic structure calculation'
    'using numerically tabulated basis functions'
    Journal of Computational Physics 228, 8367-8379 (2009).
    http://doi.org/10.1016/j.jcp.2009.08.008


  The high-level electronic structure method used in your calculation
  employed our efficient localized resolution of identity for the Coulomb operator.
  Some calculations, especially large-scale hybrid density functional theory,
  are only possible thanks to this development. For this feature, please cite:

    Arvid Ihrig, Juergen Wieferink, Igor Ying Zhang, Matti Ropo, Xinguo Ren,
    Patrick Rinke, Matthias Scheffler, and Volker Blum,
    'Accurate localized resolution of identity approach for linear-scaling
    hybrid density functionals and for many-body perturbation theory'
    New Journal of Physics 117, 093020 (2015).
    http://doi.org/10.1088/1367-2630/17/9/093020

  Of course, there are many other important community references, e.g., those cited in the
  above references. Our list is limited to references that describe implementations in the
  FHI-aims code. The reason is purely practical (length of this list) - please credit others as well.

------------------------------------------------------------
          Leaving FHI-aims.
          Date     :  20230120, Time     :  165633.554

          Computational steps:
          | Number of self-consistency cycles          :           48
          | Number of SCF (re)initializations          :            1
          | Number of coupled perturbed self-consistency cycles          :            0
          | Number of CPSCF (re)initializations          :            0

          Detailed time accounting                     :  max(cpu_time)    wall_clock(cpu1)
          | Total time                                  :     1581.421 s        1590.490 s
          | GPU initialization                          :        1.807 s          10.017 s
          | Preparation time                            :        0.073 s           0.070 s
          | Boundary condition initalization            :        0.987 s           0.987 s
          | Grid partitioning                           :        1.283 s           1.283 s
          | Preloading free-atom quantities on grid     :        3.870 s           3.871 s
          | Free-atom superposition energy              :        0.505 s           0.505 s
          | Total time for integrations                 :       18.126 s          18.229 s
          | Product basis setup: Total time             :        0.000 s           0.000 s
          | Product basis: | 2-center integrations     :(       0.000 s)  (       0.000 s)
          | Product basis: | LVL 3-center & coefficient:(       0.000 s)  (       0.000 s)
          | Total time for solution of K.-S. equations  :        3.426 s           3.426 s
          | Total time for density update               :       13.225 s          13.350 s
          | Total time for mixing & preconditioning     :       12.265 s          12.268 s
          | Total time for Hartree multipole update     :        0.088 s           0.089 s
          | Total time for Hartree multipole sum        :       44.540 s          44.553 s
          | Total time for total energy evaluation      :        0.006 s           0.001 s
          | Total time first_order_DM                   :        2.060 s           2.058 s
          | Total time first_order_density              :      324.666 s         324.681 s
          | Total time first_order_potential            :      128.935 s         128.976 s
          | Total time first_order_H                    :      620.065 s         620.234 s
          | Total time solving of Sternheimer equations :        1.987 s           1.986 s
          | Total time for dielectric constant          :        0.000 s           0.000 s
          | Total time momentum matrix                  :        0.000 s           0.000 s

          GPU acceleration has been used for charge density update.
          GPU acceleration has been used for real-space Hamiltonian integration.
          Due to GPU usage, wall_clock(cpu1) will give a more reliable estimate for timings.

          Partial memory accounting:
          | Residual value for overall tracked memory usage across tasks:     1.234863 MB (should be 0.000000 MB)
          |
          | Largest tracked array allocation:
          |   Minimum:      103.164 MB (DFPT_pulay_mixing::initialize_pulay_mixing::X_in_diffs on task  0)
          |   Maximum:      103.164 MB (DFPT_pulay_mixing::initialize_pulay_mixing::X_in_diffs on task  0)
          |   Average:      103.164 MB
          |
          | Because the residual tracked memory usage was not zero, the peak value for overall
          | tracked memory usage was not output, as it is probably incorrect.  This is likely due
          | to a missing aims_deallocate statement in the source code, which should be otherwise
          | harmless.
          |
          Note:  These values currently only include a subset of arrays which are explicitly tracked.
          The "true" memory usage will be greater.

          Have a nice day.
------------------------------------------------------------
