------------------------------------------------------------
          Invoking FHI-aims ...

          When using FHI-aims, please cite the following reference:

            Volker Blum, Ralf Gehrke, Felix Hanke, Paula Havu,
            Ville Havu, Xinguo Ren, Karsten Reuter, and Matthias Scheffler,
            'Ab Initio Molecular Simulations with Numeric Atom-Centered Orbitals',
            Computer Physics Communications 180, 2175-2196 (2009)

          In addition, many other developments in FHI-aims are likely important for
          your particular application. A partial list of references is given at the end of
          this file. Thank you for giving credit to the authors of these developments.

          For any questions about FHI-aims, please visit our slack channel at

            https://fhi-aims.slack.com

          and our main development and support site at

            https://aims-git.rz-berlin.mpg.de .

          The latter site, in particular, has a wiki to collect information, as well
          as an issue tracker to log discussions, suggest improvements, and report issues
          or bugs. https://aims-git.rz-berlin.mpg.de is also the main development site
          of the project and all new and updated code versions can be obtained there.
          Please send an email to aims-coordinators@fhi-berlin.mpg.de and we will add
          you to these sites. They are for you and everyone is welcome there.

------------------------------------------------------------



  Date     :  20230120, Time     :  132440.020
  Time zero on CPU 1             :   0.392988000000000E+00  s.
  Internal wall clock time zero  :           443453080.020  s.

  FHI-aims created a unique identifier for this run for later identification
  aims_uuid : 28C29440-C6A4-4323-A8D0-2031BDBF0BDC

  Build configuration of the current instance of FHI-aims
  -------------------------------------------------------
  FHI-aims version      : 220829
  Commit number         : 9895fc21d
  CMake host system     : Linux-5.3.18-150300.59.68-default
  CMake version         : 3.17.0
  Fortran compiler      : /mpcdf/soft/SLE_15/packages/x86_64/intel_oneapi/2021.3/mpi/2021.3.0/bin/mpiifort (Intel) version 20.2.3.20210609
  Fortran compiler flags: -O3 -ip -fp-model precise
  C compiler            : /mpcdf/soft/SLE_15/packages/x86_64/intel/2021.3.0/bin/icc (Intel) version 20.2.3.20210609
  C compiler flags      : -O3 -ip -fp-model precise -std=gnu99
  CUDA compiler         : /mpcdf/soft/SLE_15/packages/x86_64/cuda/11.6.2/bin/nvcc
  CUDA compiler flags   : -O3 -DAdd_ -lcublas
  ELPA2 kernel          : AVX512
  Using MPI
  Using ScaLAPACK
  Using LibXC
  Using CUDA
  Using i-PI
  Using RLSY
  Linking against: /mpcdf/soft/SLE_15/packages/x86_64/cuda/11.6.2/lib64/libcublas.so
                   /mpcdf/soft/SLE_15/packages/x86_64/cuda/11.6.2/lib64/libcudart.so
                   /mpcdf/soft/SLE_15/packages/x86_64/intel_oneapi/2021.3/mkl/latest/lib/intel64/libmkl_intel_lp64.so
                   /mpcdf/soft/SLE_15/packages/x86_64/intel_oneapi/2021.3/mkl/latest/lib/intel64/libmkl_sequential.so
                   /mpcdf/soft/SLE_15/packages/x86_64/intel_oneapi/2021.3/mkl/latest/lib/intel64/libmkl_core.so
                   /mpcdf/soft/SLE_15/packages/x86_64/intel_oneapi/2021.3/mkl/latest/lib/intel64/libmkl_blacs_intelmpi_lp64.so
                   /mpcdf/soft/SLE_15/packages/x86_64/intel_oneapi/2021.3/mkl/latest/lib/intel64/libmkl_scalapack_lp64.so

  Using       18 parallel tasks.
  Task        0 on host adag006 reporting.
  Task        1 on host adag006 reporting.
  Task        2 on host adag006 reporting.
  Task        3 on host adag006 reporting.
  Task        4 on host adag006 reporting.
  Task        5 on host adag006 reporting.
  Task        6 on host adag006 reporting.
  Task        7 on host adag006 reporting.
  Task        8 on host adag006 reporting.
  Task        9 on host adag006 reporting.
  Task       10 on host adag006 reporting.
  Task       11 on host adag006 reporting.
  Task       12 on host adag006 reporting.
  Task       13 on host adag006 reporting.
  Task       14 on host adag006 reporting.
  Task       15 on host adag006 reporting.
  Task       16 on host adag006 reporting.
  Task       17 on host adag006 reporting.

  Performing system and environment tests:
  | Environment variable OMP_NUM_THREADS correctly set to 1.
  | Checking for ScaLAPACK...
  | Testing pdtran()...
  | All pdtran() tests passed.

  Obtaining array dimensions for all initial allocations:
  
  -----------------------------------------------------------------------
  Parsing control.in (first pass over file, find array dimensions only).
  The contents of control.in will be repeated verbatim below
  unless switched off by setting 'verbatim_writeout .false.' .
  in the first line of control.in .
  -----------------------------------------------------------------------
  
  #
  # Input for polarizability replays on generic oligoacene molecular crystals (light settings,  LDA+MBD).
  #
  #########################################################################################
  #
  #  Physical model
  #
    xc                 pw-lda
    spin               none
    relativistic       none
    charge             0.0
    k_grid 	     2 1 1
    DFPT dielectric
  #
  #  GPU acceleration
  #
  # Turns on GPU acceleration everywhere
    use_gpu
  
  # Turns OFF GPU acceleration of ELPA - may be necessary if GPU ELPA is slow
    elsi_elpa_gpu 0
  #
  #  Relaxation
  #
  #  relax_geometry trm 1E-3
  #  relax_unit_cell fixed_angles
  #
  #  SCF convergence        #
    charge_mix_param   0.75
    #sc_accuracy_rho 1E-4
  #
  # i-PI communication
  #
  compute_forces .false.
  # use_pimd_wrapper 130.183.223.27 26118
  #communicate_pimd_wrapper polarizability
  #output_level MD_light
  #
  # Output SALTED info
    ri_density_restart write
    ri_rho1 write
    ri_full_output .true.
  #  sc_accuracy_rho    1d-6
    default_prodbas_acc 1e-6
    default_max_l_prodbas 6
  #
  #
  ################################################################################
  #
  #  FHI-aims code project
  #  VB, Fritz-Haber Institut, 2009
  #
  #  Suggested "light" defaults for H atom (to be pasted into control.in file)
  #  Be sure to double-check any results obtained with these settings for post-processing,
  #  e.g., with the "tight" defaults and larger basis sets.
  #
  ################################################################################
    species        H
  #     global species definitions
      nucleus             1
      mass                1.00794
  #
      l_hartree           4
  #
      cut_pot             3.5  1.5  1.0
      basis_dep_cutoff    1e-4
  #
      radial_base         24 5.0
      radial_multiplier   1
      angular_grids       specified
        division   0.2421   50
        division   0.3822  110
        division   0.4799  194
        division   0.5341  302
  #      division   0.5626  434
  #      division   0.5922  590
  #      division   0.6542  770
  #      division   0.6868 1202
  #      outer_grid  770
        outer_grid  302
  ################################################################################
  #
  #  Definition of "minimal" basis
  #
  ################################################################################
  #     valence basis states
      valence      1  s   1.
  #     ion occupancy
      ion_occ      1  s   0.5
  ################################################################################
  #
  #  Suggested additional basis functions. For production calculations,
  #  uncomment them one after another (the most important basis functions are
  #  listed first).
  #
  #  Basis constructed for dimers: 0.5 A, 0.7 A, 1.0 A, 1.5 A, 2.5 A
  #
  ################################################################################
  #  "First tier" - improvements: -1014.90 meV to -62.69 meV
       hydro 2 s 2.1
       hydro 2 p 3.5
  #  "Second tier" - improvements: -12.89 meV to -1.83 meV
  #     hydro 1 s 0.85
  #     hydro 2 p 3.7
  #     hydro 2 s 1.2
  #     hydro 3 d 7
  #  "Third tier" - improvements: -0.25 meV to -0.12 meV
  #     hydro 4 f 11.2
  #     hydro 3 p 4.8
  #     hydro 4 d 9
  #     hydro 3 s 3.2
  ################################################################################
  ################################################################################
  #
  #  FHI-aims code project
  #  VB, Fritz-Haber Institut, 2009
  #
  #  Suggested "light" defaults for C atom (to be pasted into control.in file)
  #  Be sure to double-check any results obtained with these settings for post-processing,
  #  e.g., with the "tight" defaults and larger basis sets.
  #
  ################################################################################
    species        C
  #     global species definitions
      nucleus             6
      mass                12.0107
  #
      l_hartree           4
  #
      cut_pot             3.5  1.5  1.0
      basis_dep_cutoff    1e-4
  #
      radial_base         34 5.0
      radial_multiplier   1
      angular_grids specified
        division   0.3326   50
        division   0.5710  110
        division   0.7727  194
        division   0.8772  302
  #      division   0.9334  434
  #      division   0.9625  590
  #      division   0.9924  770
  #      division   1.0230  974
  #      division   1.4589 1202
  #     outer_grid  974
       outer_grid 302
  ################################################################################
  #
  #  Definition of "minimal" basis
  #
  ################################################################################
  #     valence basis states
      valence      2  s   2.
      valence      2  p   2.
  #     ion occupancy
      ion_occ      2  s   1.
      ion_occ      2  p   1.
  ################################################################################
  #
  #  Suggested additional basis functions. For production calculations,
  #  uncomment them one after another (the most important basis functions are
  #  listed first).
  #
  #  Constructed for dimers: 1.0 A, 1.25 A, 1.5 A, 2.0 A, 3.0 A
  #
  ################################################################################
  #  "First tier" - improvements: -1214.57 meV to -155.61 meV
       hydro 2 p 1.7
       hydro 3 d 6
       hydro 2 s 4.9
  #  "Second tier" - improvements: -67.75 meV to -5.23 meV
  #     hydro 4 f 9.8
  #     hydro 3 p 5.2
  #     hydro 3 s 4.3
  #     hydro 5 g 14.4
  #     hydro 3 d 6.2
  #  "Third tier" - improvements: -2.43 meV to -0.60 meV
  #     hydro 2 p 5.6
  #     hydro 2 s 1.4
  #     hydro 3 d 4.9
  #     hydro 4 f 11.2
  #  "Fourth tier" - improvements: -0.39 meV to -0.18 meV
  #     hydro 2 p 2.1
  #     hydro 5 g 16.4
  #     hydro 4 d 13.2
  #     hydro 3 s 13.6
  #     hydro 4 f 17.6
  #  Further basis functions - improvements: -0.08 meV and below
  #     hydro 3 s 2
  #     hydro 3 p 6
  #     hydro 4 d 20
  
  -----------------------------------------------------------------------
  Completed first pass over input file control.in .
  -----------------------------------------------------------------------
  
  
  -----------------------------------------------------------------------
  Parsing geometry.in (first pass over file, find array dimensions only).
  The contents of geometry.in will be repeated verbatim below
  unless switched off by setting 'verbatim_writeout .false.' .
  in the first line of geometry.in .
  -----------------------------------------------------------------------
  
  #=======================================================
  # FHI-aims file: /ada/ptmp/mpsd/alewis/naphthalene/qmdata/data/geoms/295.in
  # Created using the Atomic Simulation Environment (ASE)
  # Thu Jan 19 15:19:17 2023
  #=======================================================
  lattice_vector 8.1020000000000003 0.0000000000000000 0.0000000000000000
  lattice_vector 0.0000000000000000 11.8800000000000008 0.0000000000000000
  lattice_vector -9.7850918486534706 0.0000000000000000 14.2571119625755713
  atom -0.7157450000000000 0.1047620000000000 2.3279899999999998 C
  atom 0.1296610000000000 3.2070300000000000 4.8835899999999999 C
  atom 4.0959099999999999 5.6921900000000001 4.7429899999999998 C
  atom 3.1871700000000001 2.7207300000000001 2.3860700000000001 C
  atom 0.1064520000000000 0.9433940000000000 1.5640000000000001 C
  atom -0.6292400000000000 4.0388299999999999 5.7140100000000000 C
  atom 3.3382000000000001 4.9204600000000003 5.5872999999999999 C
  atom 4.0440500000000004 1.8928300000000000 1.6690700000000001 C
  atom 0.4166800000000000 0.5861350000000000 0.2383410000000000 C
  atom -0.9367960000000000 3.6454100000000000 7.0228900000000003 C
  atom 3.0503399999999998 5.3111600000000001 6.8951099999999999 C
  atom 4.3926600000000002 2.2091500000000002 0.3265170000000000 C
  atom -3.7760699999999998 1.5401100000000001 6.6629100000000001 C
  atom 3.1633900000000001 4.3296000000000001 0.5471530000000000 C
  atom 7.1963400000000002 4.3880299999999997 0.5348760000000000 C
  atom 0.3105620000000000 1.5577600000000000 6.6319999999999997 C
  atom -3.4228600000000000 1.1241600000000000 5.3773799999999996 C
  atom 2.7404600000000001 3.9422299999999999 1.8121700000000001 C
  atom 6.8600300000000001 4.7095000000000002 1.8452200000000001 C
  atom 0.5749710000000000 1.9460599999999999 5.3585000000000003 C
  atom -1.0177700000000001 0.4052520000000000 3.3349099999999998 H
  atom 0.4307590000000000 3.5448300000000001 3.8879600000000001 H
  atom 4.2622400000000003 5.3455700000000004 3.7054000000000000 H
  atom 2.8752399999999998 2.4219599999999999 3.4110100000000001 H
  atom 0.6007900000000000 1.8246300000000000 1.9602999999999999 H
  atom -0.8858340000000000 5.0488600000000003 5.3882700000000003 H
  atom 2.9374699999999998 3.9807700000000001 5.2420799999999996 H
  atom 4.4216800000000003 0.9868170000000001 2.1199900000000000 H
  atom -3.3322500000000002 2.4466399999999999 7.1147299999999998 H
  atom 2.7985199999999999 5.2589899999999998 0.1390150000000000 H
  atom 6.8890399999999996 3.4505200000000000 0.0695776000000000 H
  atom 0.5795979999999999 0.5713970000000000 7.0446099999999996 H
  atom -2.7575699999999999 1.7887700000000000 4.8516100000000000 H
  atom 2.0538799999999999 4.5972200000000001 2.3678400000000002 H
  atom 6.2565799999999996 4.0397900000000000 2.4352700000000000 H
  atom 1.2636499999999999 1.3891199999999999 4.7355999999999998 H
  atom -5.7973299999999997 0.1644130000000000 9.5013199999999998 C
  atom -4.6596700000000002 2.9698300000000000 11.9502000000000006 C
  atom -0.6134670000000000 5.8100399999999999 11.9350000000000005 C
  atom -1.6125600000000000 2.7702200000000001 9.5698200000000000 C
  atom -5.0403700000000002 1.0474699999999999 8.7428100000000004 C
  atom -5.4789800000000000 3.7955700000000001 12.6969999999999992 C
  atom -1.3555200000000001 4.9319300000000004 12.7106999999999992 C
  atom -0.8321470000000000 1.9716600000000000 8.8013200000000005 C
  atom -4.6668300000000000 0.7137080000000000 7.4078499999999998 C
  atom -5.8184899999999997 3.4493600000000000 14.0294000000000008 C
  atom -1.7851800000000000 5.2507500000000000 14.0154999999999994 C
  atom -0.4797790000000000 2.3697400000000002 7.4924200000000001 C
  atom -8.6003500000000006 1.4764999999999999 13.6759000000000004 C
  atom -1.6709499999999999 4.4644599999999999 7.8963900000000002 C
  atom 2.2303199999999999 4.5429399999999998 7.7793700000000001 C
  atom -4.5652999999999997 1.3743600000000000 13.7893000000000008 C
  atom -8.3461999999999996 1.1634800000000001 12.3605000000000000 C
  atom -2.0624500000000001 4.0379800000000001 9.1328300000000002 C
  atom 1.9366500000000000 5.0219100000000001 9.0425500000000003 C
  atom -4.1500700000000004 1.7497700000000000 12.5151000000000003 C
  atom -6.1646000000000001 0.4802370000000000 10.4707000000000008 H
  atom -4.2842599999999997 3.2347700000000001 10.9481999999999999 H
  atom -0.2834970000000000 5.5686799999999996 10.9187999999999992 H
  atom -1.8806400000000001 2.4565199999999998 10.6059000000000001 H
  atom -4.7566300000000004 2.0242200000000001 9.1834600000000002 H
  atom -5.9229099999999999 4.7154600000000002 12.2650000000000006 H
  atom -1.5764899999999999 3.9541700000000000 12.2924000000000007 H
  atom -0.4803750000000000 1.0039800000000001 9.1405300000000000 H
  atom -8.2448899999999998 2.4064999999999999 14.0899000000000001 H
  atom -1.9174500000000001 5.4836200000000002 7.6204099999999997 H
  atom 1.8507899999999999 3.5706899999999999 7.3953699999999998 H
  atom -4.2108699999999999 0.4388690000000000 14.1721000000000004 H
  atom -7.7176900000000002 1.7949600000000001 11.7349999999999994 H
  atom -2.6673499999999999 4.7039200000000001 9.7386099999999995 H
  atom 1.3347700000000000 4.3776599999999997 9.6628000000000007 H
  atom -3.5022600000000002 1.0835500000000000 11.9527000000000001 H
  atom -0.9117520000000000 6.0050200000000000 2.2896399999999999 C
  atom 0.1004550000000000 9.0079499999999992 5.0016900000000000 C
  atom 4.2286299999999999 11.8111999999999995 4.8036599999999998 C
  atom 3.2100399999999998 8.9583999999999993 2.4295800000000001 C
  atom -0.1094570000000000 6.8624499999999999 1.5617200000000000 C
  atom -0.7136550000000000 9.8459699999999994 5.7559899999999997 C
  atom 3.4244800000000000 10.9492999999999991 5.5357599999999998 C
  atom 3.9744000000000002 8.0698500000000006 1.6789900000000000 C
  atom 0.3103750000000000 6.5310800000000002 0.2591470000000000 C
  atom -1.0006400000000000 9.5386000000000006 7.0963599999999998 C
  atom 3.0223300000000002 11.3230000000000004 6.8636299999999997 C
  atom 4.3460200000000002 8.3693700000000000 0.3206110000000000 C
  atom -3.8607100000000001 7.4020599999999996 6.4508799999999997 C
  atom 3.1640299999999999 10.4816000000000003 0.5295210000000000 C
  atom 7.2439900000000002 10.3461999999999996 0.5263190000000000 C
  atom 0.2591860000000000 7.4722700000000000 6.8718399999999997 C
  atom -3.5951000000000000 6.9738699999999998 5.1726799999999997 C
  atom 2.8030599999999999 10.1859000000000002 1.8095000000000001 C
  atom 6.9451099999999997 10.7337000000000007 1.7975200000000000 C
  atom 0.5658470000000000 7.8112300000000001 5.5630400000000000 C
  atom -1.2654200000000000 6.3146100000000001 3.2763399999999998 H
  atom 0.3484000000000000 9.2972500000000000 4.0056599999999998 H
  atom 4.5457299999999998 11.5571999999999999 3.7913399999999999 H
  atom 2.9603999999999999 8.7846799999999998 3.4854799999999999 H
  atom 0.2369620000000000 7.8010500000000000 1.9652099999999999 H
  atom -1.1258699999999999 10.7459000000000007 5.3453200000000001 H
  atom 3.0811000000000002 9.9792199999999998 5.1650900000000002 H
  atom 4.3056299999999998 7.1276099999999998 2.0964100000000001 H
  atom -3.4734900000000000 8.3817799999999991 6.7813100000000004 H
  atom 2.8245700000000000 11.3876000000000008 0.0096769700000000 H
  atom 6.9497400000000003 9.3630700000000004 0.1646500000000000 H
  atom 0.6167490000000000 6.5338399999999996 7.2777700000000003 H
  atom -3.0367999999999999 7.5976999999999997 4.4596499999999999 H
  atom 2.1513399999999998 10.8094999999999999 2.3933499999999999 H
  atom 6.3288500000000001 10.0649999999999995 2.4369399999999999 H
  atom 1.1473800000000001 7.0787500000000003 4.9615499999999999 H
  atom -5.6101799999999997 6.2066200000000000 9.5471699999999995 C
  atom -4.6403100000000004 9.0635300000000001 11.9474999999999998 C
  atom -0.7102360000000000 11.8032000000000004 11.8463999999999992 C
  atom -1.7040400000000000 8.7756399999999992 9.7323400000000007 C
  atom -4.8582000000000001 7.0067300000000001 8.6985299999999999 C
  atom -5.4609199999999998 9.9093000000000000 12.6853999999999996 C
  atom -1.4236599999999999 10.9197000000000006 12.6087000000000007 C
  atom -0.9076840000000000 7.9489599999999996 8.9602900000000005 C
  atom -4.5888099999999996 6.6051500000000001 7.3845499999999999 C
  atom -5.8308999999999997 9.5821000000000005 13.9967000000000006 C
  atom -1.7234200000000000 11.1929999999999996 13.9527999999999999 C
  atom -0.5378380000000000 8.3151200000000003 7.6544499999999998 C
  atom -8.6972699999999996 7.4426899999999998 13.7628000000000004 C
  atom -1.8259399999999999 10.4024000000000001 7.8755899999999999 C
  atom 2.3079999999999998 10.3961000000000006 7.7075699999999996 C
  atom -4.6678800000000003 7.4656399999999996 13.7624999999999993 C
  atom -8.3154199999999996 7.0564400000000003 12.4826999999999995 C
  atom -2.1916699999999998 9.9814600000000002 9.1674799999999994 C
  atom 1.9299500000000001 10.7705000000000002 8.9885800000000007 C
  atom -4.2280800000000003 7.8342099999999997 12.4821000000000009 C
  atom -5.8883500000000000 6.6133699999999997 10.5452999999999992 H
  atom -4.4103100000000000 9.3144399999999994 10.8987999999999996 H
  atom -0.5425380000000000 11.5310000000000006 10.8384999999999998 H
  atom -1.8926600000000000 8.5052299999999992 10.7645999999999997 H
  atom -4.5161800000000003 8.0167199999999994 8.9240600000000008 H
  atom -5.7627400000000000 10.8610000000000007 12.2297999999999991 H
  atom -1.8082199999999999 10.0228000000000002 12.1315000000000008 H
  atom -0.4907490000000000 6.9859000000000000 9.3489400000000007 H
  atom -8.3706499999999995 8.3760700000000003 14.2073999999999998 H
  atom -2.1504099999999999 11.3618000000000006 7.4999700000000002 H
  atom 2.0475099999999999 9.4032000000000000 7.3502700000000001 H
  atom -4.3683399999999999 6.5022500000000001 14.2116000000000007 H
  atom -7.6837099999999996 7.7240099999999998 11.8696999999999999 H
  atom -2.7580700000000000 10.6638999999999999 9.7914600000000007 H
  atom 1.3211100000000000 10.1378000000000004 9.6335300000000004 H
  atom -3.5649099999999998 7.1801500000000003 11.9242000000000008 H
  
  -----------------------------------------------------------------------
  Completed first pass over input file geometry.in .
  -----------------------------------------------------------------------
  

  Basic array size parameters:
  | Number of species                 :        2
  | Number of atoms                   :      144
  | Number of lattice vectors         :        3
  | Max. basis fn. angular momentum   :        2
  | Max. atomic/ionic basis occupied n:        2
  | Max. number of basis fn. types    :        2
  | Max. radial fns per species/type  :        3
  | Max. logarithmic grid size        :     1277
  | Max. radial integration grid size :       34
  | Max. angular integration grid size:      302
  | Max. angular grid division number :        8
  | Radial grid for Hartree potential :     1277
  | Number of spin channels           :        1

------------------------------------------------------------
          Reading file control.in.
------------------------------------------------------------
  XC: Using Perdew-Wang parametrisation of Ceperley-Alder LDA.
  Spin treatment: No spin polarisation.
  Non-relativistic treatment of kinetic energy.
  Charge =   0.000000E+00: Neutral system requested explicitly.
  Found k-point grid:         2         1         1
  DFPT calculation will begin after the DFT/HF calculation.
  Charge density mixing - mixing parameter:     0.7500
  Forces will not be computed.
 
  Reading configuration options for species H                   .
  | Found nuclear charge :   1.0000
  | Found atomic mass :    1.00794000000000      amu
  | Found l_max for Hartree potential  :   4
  | Found cutoff potl. onset [A], width [A], scale factor :    3.50000    1.50000    1.00000
  | Threshold for basis-dependent cutoff potential is   0.100000E-03
  | Found data for basic radial integration grid :    24 points, outermost radius =    5.000 A
  | Found multiplier for basic radial grid :   1
  | Found angular grid specification: user-specified.
  | Specified grid contains     5 separate shells.
  | Check grid settings after all constraints further below.
  | Found free-atom valence shell :  1 s   1.000
  | No ionic wave fns used. Skipping ion_occ.
  | Found hydrogenic basis function :  2 s   2.100
  | Found hydrogenic basis function :  2 p   3.500
  Species H                   : Missing cutoff potential type.
  Defaulting to exp(1/x)/(1-x)^2 type cutoff potential.
  Species H : No 'logarithmic' tag. Using default grid for free atom:
  | Default logarithmic grid data [bohr] : 0.1000E-03 0.1000E+03 0.1012E+01
  Species H : On-site basis accuracy parameter (for Gram-Schmidt orthonormalisation) not specified.
  Using default value basis_acc =  0.1000000E-03.
  Species H                   : Using default innermost maximum threshold i_radial=  2 for radial functions.
  Species H                   : Default cutoff onset for free atom density etc. : 0.35000000E+01 AA.
  Species H                   : Basic radial grid will be enhanced according to radial_multiplier =   1, to contain    24 grid points.
 
  Reading configuration options for species C                   .
  | Found nuclear charge :   6.0000
  | Found atomic mass :    12.0107000000000      amu
  | Found l_max for Hartree potential  :   4
  | Found cutoff potl. onset [A], width [A], scale factor :    3.50000    1.50000    1.00000
  | Threshold for basis-dependent cutoff potential is   0.100000E-03
  | Found data for basic radial integration grid :    34 points, outermost radius =    5.000 A
  | Found multiplier for basic radial grid :   1
  | Found angular grid specification: user-specified.
  | Specified grid contains     5 separate shells.
  | Check grid settings after all constraints further below.
  | Found free-atom valence shell :  2 s   2.000
  | Found free-atom valence shell :  2 p   2.000
  | No ionic wave fns used. Skipping ion_occ.
  | No ionic wave fns used. Skipping ion_occ.
  | Found hydrogenic basis function :  2 p   1.700
  | Found hydrogenic basis function :  3 d   6.000
  | Found hydrogenic basis function :  2 s   4.900
  Species C                   : Missing cutoff potential type.
  Defaulting to exp(1/x)/(1-x)^2 type cutoff potential.
  Species C : No 'logarithmic' tag. Using default grid for free atom:
  | Default logarithmic grid data [bohr] : 0.1000E-03 0.1000E+03 0.1012E+01
  Species C : On-site basis accuracy parameter (for Gram-Schmidt orthonormalisation) not specified.
  Using default value basis_acc =  0.1000000E-03.
  Species C                   : Using default innermost maximum threshold i_radial=  2 for radial functions.
  Species C                   : Default cutoff onset for free atom density etc. : 0.35000000E+01 AA.
  Species C                   : Basic radial grid will be enhanced according to radial_multiplier =   1, to contain    34 grid points.
 
  Finished reading input file 'control.in'.
 
------------------------------------------------------------


------------------------------------------------------------
          Reading geometry description geometry.in.
------------------------------------------------------------
  | The smallest distance between any two atoms is         1.05739201 AA.
  | The first atom of this pair is atom number                    111 .
  | The second atom of this pair is atom number                   131 .
  | Wigner-Seitz cell of the first atom image           0     0     0 .
  | (The Wigner-Seitz cell of the second atom is 0 0 0  by definition.)

  Symmetry information by spglib:
  | Precision set to  0.1E-04
  | Number of Operations  : 1
  | Space group           : 1
  | International         : P1
  | Schoenflies           : C1^1
  Input structure read successfully.
  The structure contains      144 atoms,  and a total of        544.000 electrons.

  Input geometry:
  | Unit cell:
  |        8.10200000        0.00000000        0.00000000
  |        0.00000000       11.88000000        0.00000000
  |       -9.78509185        0.00000000       14.25711196
  | Atomic structure:
  |       Atom                x [A]            y [A]            z [A]
  |    1: Species C            -0.71574500        0.10476200        2.32799000
  |    2: Species C             0.12966100        3.20703000        4.88359000
  |    3: Species C             4.09591000        5.69219000        4.74299000
  |    4: Species C             3.18717000        2.72073000        2.38607000
  |    5: Species C             0.10645200        0.94339400        1.56400000
  |    6: Species C            -0.62924000        4.03883000        5.71401000
  |    7: Species C             3.33820000        4.92046000        5.58730000
  |    8: Species C             4.04405000        1.89283000        1.66907000
  |    9: Species C             0.41668000        0.58613500        0.23834100
  |   10: Species C            -0.93679600        3.64541000        7.02289000
  |   11: Species C             3.05034000        5.31116000        6.89511000
  |   12: Species C             4.39266000        2.20915000        0.32651700
  |   13: Species C            -3.77607000        1.54011000        6.66291000
  |   14: Species C             3.16339000        4.32960000        0.54715300
  |   15: Species C             7.19634000        4.38803000        0.53487600
  |   16: Species C             0.31056200        1.55776000        6.63200000
  |   17: Species C            -3.42286000        1.12416000        5.37738000
  |   18: Species C             2.74046000        3.94223000        1.81217000
  |   19: Species C             6.86003000        4.70950000        1.84522000
  |   20: Species C             0.57497100        1.94606000        5.35850000
  |   21: Species H            -1.01777000        0.40525200        3.33491000
  |   22: Species H             0.43075900        3.54483000        3.88796000
  |   23: Species H             4.26224000        5.34557000        3.70540000
  |   24: Species H             2.87524000        2.42196000        3.41101000
  |   25: Species H             0.60079000        1.82463000        1.96030000
  |   26: Species H            -0.88583400        5.04886000        5.38827000
  |   27: Species H             2.93747000        3.98077000        5.24208000
  |   28: Species H             4.42168000        0.98681700        2.11999000
  |   29: Species H            -3.33225000        2.44664000        7.11473000
  |   30: Species H             2.79852000        5.25899000        0.13901500
  |   31: Species H             6.88904000        3.45052000        0.06957760
  |   32: Species H             0.57959800        0.57139700        7.04461000
  |   33: Species H            -2.75757000        1.78877000        4.85161000
  |   34: Species H             2.05388000        4.59722000        2.36784000
  |   35: Species H             6.25658000        4.03979000        2.43527000
  |   36: Species H             1.26365000        1.38912000        4.73560000
  |   37: Species C            -5.79733000        0.16441300        9.50132000
  |   38: Species C            -4.65967000        2.96983000       11.95020000
  |   39: Species C            -0.61346700        5.81004000       11.93500000
  |   40: Species C            -1.61256000        2.77022000        9.56982000
  |   41: Species C            -5.04037000        1.04747000        8.74281000
  |   42: Species C            -5.47898000        3.79557000       12.69700000
  |   43: Species C            -1.35552000        4.93193000       12.71070000
  |   44: Species C            -0.83214700        1.97166000        8.80132000
  |   45: Species C            -4.66683000        0.71370800        7.40785000
  |   46: Species C            -5.81849000        3.44936000       14.02940000
  |   47: Species C            -1.78518000        5.25075000       14.01550000
  |   48: Species C            -0.47977900        2.36974000        7.49242000
  |   49: Species C            -8.60035000        1.47650000       13.67590000
  |   50: Species C            -1.67095000        4.46446000        7.89639000
  |   51: Species C             2.23032000        4.54294000        7.77937000
  |   52: Species C            -4.56530000        1.37436000       13.78930000
  |   53: Species C            -8.34620000        1.16348000       12.36050000
  |   54: Species C            -2.06245000        4.03798000        9.13283000
  |   55: Species C             1.93665000        5.02191000        9.04255000
  |   56: Species C            -4.15007000        1.74977000       12.51510000
  |   57: Species H            -6.16460000        0.48023700       10.47070000
  |   58: Species H            -4.28426000        3.23477000       10.94820000
  |   59: Species H            -0.28349700        5.56868000       10.91880000
  |   60: Species H            -1.88064000        2.45652000       10.60590000
  |   61: Species H            -4.75663000        2.02422000        9.18346000
  |   62: Species H            -5.92291000        4.71546000       12.26500000
  |   63: Species H            -1.57649000        3.95417000       12.29240000
  |   64: Species H            -0.48037500        1.00398000        9.14053000
  |   65: Species H            -8.24489000        2.40650000       14.08990000
  |   66: Species H            -1.91745000        5.48362000        7.62041000
  |   67: Species H             1.85079000        3.57069000        7.39537000
  |   68: Species H            -4.21087000        0.43886900       14.17210000
  |   69: Species H            -7.71769000        1.79496000       11.73500000
  |   70: Species H            -2.66735000        4.70392000        9.73861000
  |   71: Species H             1.33477000        4.37766000        9.66280000
  |   72: Species H            -3.50226000        1.08355000       11.95270000
  |   73: Species C            -0.91175200        6.00502000        2.28964000
  |   74: Species C             0.10045500        9.00795000        5.00169000
  |   75: Species C             4.22863000       11.81120000        4.80366000
  |   76: Species C             3.21004000        8.95840000        2.42958000
  |   77: Species C            -0.10945700        6.86245000        1.56172000
  |   78: Species C            -0.71365500        9.84597000        5.75599000
  |   79: Species C             3.42448000       10.94930000        5.53576000
  |   80: Species C             3.97440000        8.06985000        1.67899000
  |   81: Species C             0.31037500        6.53108000        0.25914700
  |   82: Species C            -1.00064000        9.53860000        7.09636000
  |   83: Species C             3.02233000       11.32300000        6.86363000
  |   84: Species C             4.34602000        8.36937000        0.32061100
  |   85: Species C            -3.86071000        7.40206000        6.45088000
  |   86: Species C             3.16403000       10.48160000        0.52952100
  |   87: Species C             7.24399000       10.34620000        0.52631900
  |   88: Species C             0.25918600        7.47227000        6.87184000
  |   89: Species C            -3.59510000        6.97387000        5.17268000
  |   90: Species C             2.80306000       10.18590000        1.80950000
  |   91: Species C             6.94511000       10.73370000        1.79752000
  |   92: Species C             0.56584700        7.81123000        5.56304000
  |   93: Species H            -1.26542000        6.31461000        3.27634000
  |   94: Species H             0.34840000        9.29725000        4.00566000
  |   95: Species H             4.54573000       11.55720000        3.79134000
  |   96: Species H             2.96040000        8.78468000        3.48548000
  |   97: Species H             0.23696200        7.80105000        1.96521000
  |   98: Species H            -1.12587000       10.74590000        5.34532000
  |   99: Species H             3.08110000        9.97922000        5.16509000
  |  100: Species H             4.30563000        7.12761000        2.09641000
  |  101: Species H            -3.47349000        8.38178000        6.78131000
  |  102: Species H             2.82457000       11.38760000        0.00967697
  |  103: Species H             6.94974000        9.36307000        0.16465000
  |  104: Species H             0.61674900        6.53384000        7.27777000
  |  105: Species H            -3.03680000        7.59770000        4.45965000
  |  106: Species H             2.15134000       10.80950000        2.39335000
  |  107: Species H             6.32885000       10.06500000        2.43694000
  |  108: Species H             1.14738000        7.07875000        4.96155000
  |  109: Species C            -5.61018000        6.20662000        9.54717000
  |  110: Species C            -4.64031000        9.06353000       11.94750000
  |  111: Species C            -0.71023600       11.80320000       11.84640000
  |  112: Species C            -1.70404000        8.77564000        9.73234000
  |  113: Species C            -4.85820000        7.00673000        8.69853000
  |  114: Species C            -5.46092000        9.90930000       12.68540000
  |  115: Species C            -1.42366000       10.91970000       12.60870000
  |  116: Species C            -0.90768400        7.94896000        8.96029000
  |  117: Species C            -4.58881000        6.60515000        7.38455000
  |  118: Species C            -5.83090000        9.58210000       13.99670000
  |  119: Species C            -1.72342000       11.19300000       13.95280000
  |  120: Species C            -0.53783800        8.31512000        7.65445000
  |  121: Species C            -8.69727000        7.44269000       13.76280000
  |  122: Species C            -1.82594000       10.40240000        7.87559000
  |  123: Species C             2.30800000       10.39610000        7.70757000
  |  124: Species C            -4.66788000        7.46564000       13.76250000
  |  125: Species C            -8.31542000        7.05644000       12.48270000
  |  126: Species C            -2.19167000        9.98146000        9.16748000
  |  127: Species C             1.92995000       10.77050000        8.98858000
  |  128: Species C            -4.22808000        7.83421000       12.48210000
  |  129: Species H            -5.88835000        6.61337000       10.54530000
  |  130: Species H            -4.41031000        9.31444000       10.89880000
  |  131: Species H            -0.54253800       11.53100000       10.83850000
  |  132: Species H            -1.89266000        8.50523000       10.76460000
  |  133: Species H            -4.51618000        8.01672000        8.92406000
  |  134: Species H            -5.76274000       10.86100000       12.22980000
  |  135: Species H            -1.80822000       10.02280000       12.13150000
  |  136: Species H            -0.49074900        6.98590000        9.34894000
  |  137: Species H            -8.37065000        8.37607000       14.20740000
  |  138: Species H            -2.15041000       11.36180000        7.49997000
  |  139: Species H             2.04751000        9.40320000        7.35027000
  |  140: Species H            -4.36834000        6.50225000       14.21160000
  |  141: Species H            -7.68371000        7.72401000       11.86970000
  |  142: Species H            -2.75807000       10.66390000        9.79146000
  |  143: Species H             1.32111000       10.13780000        9.63353000
  |  144: Species H            -3.56491000        7.18015000       11.92420000

  Lattice parameters for 3D lattice (in Angstroms) :     8.102000   11.880000   17.292000
  Angle(s) between unit vectors (in degrees)       :    90.000000  124.463000   90.000000


  Quantities derived from the lattice vectors (in Angstrom^-1):
  | Reciprocal lattice vector 1:  0.775510  0.000000  0.532257
  | Reciprocal lattice vector 2:  0.000000  0.528888  0.000000
  | Reciprocal lattice vector 3: -0.000000  0.000000  0.440705
  | Unit cell volume                               :   0.137227E+04  Angstrom^3

  Fractional coordinates:
                         L1                L2                L3
       atom_frac         0.10886518        0.00881835        0.16328623  C
       atom_frac         0.42969861        0.26995202        0.34253712  C
       atom_frac         0.90732770        0.47914057        0.33267537  C
       atom_frac         0.59550763        0.22901768        0.16735998  C
       atom_frac         0.14562738        0.07941027        0.10969964  C
       atom_frac         0.40637617        0.33996886        0.40078313  C
       atom_frac         0.88532891        0.41418013        0.39189564  C
       atom_frac         0.64053120        0.15932912        0.11706929  C
       atom_frac         0.07161944        0.04933796        0.01671734  C
       atom_frac         0.47929254        0.30685269        0.49258854  C
       atom_frac         0.96058563        0.44706734        0.48362600  C
       atom_frac         0.56982950        0.18595539        0.02290204  C
       atom_frac         0.09835705        0.12963889        0.46733939  C
       atom_frac         0.43679559        0.36444444        0.03837755  C
       atom_frac         0.93352774        0.36936279        0.03751643  C
       atom_frac         0.60013656        0.13112458        0.46517135  C
       atom_frac         0.03305360        0.09462626        0.37717176  C
       atom_frac         0.49175607        0.33183754        0.12710639  C
       atom_frac         1.00301912        0.39642256        0.12942453  C
       atom_frac         0.52489180        0.16380976        0.37584751  C
       atom_frac         0.15688481        0.03411212        0.23391203  H
       atom_frac         0.38252096        0.29838636        0.27270320  H
       atom_frac         0.83996165        0.44996380        0.25989836  H
       atom_frac         0.64383121        0.20386869        0.23924972  H
       atom_frac         0.24021277        0.15358838        0.13749629  H
       atom_frac         0.34711188        0.42498822        0.37793559  H
       atom_frac         0.80662426        0.33508165        0.36768176  H
       atom_frac         0.72533868        0.08306540        0.14869702  H
       atom_frac         0.19141036        0.20594613        0.49903024  H
       atom_frac         0.35718714        0.44267593        0.00975057  H
       atom_frac         0.85618282        0.29044781        0.00488020  H
       atom_frac         0.66829539        0.04809739        0.49411199  H
       atom_frac         0.07062926        0.15056987        0.34029402  H
       atom_frac         0.45408553        0.38697138        0.16608132  H
       atom_frac         0.97852138        0.34004966        0.17081089  H
       atom_frac         0.55712627        0.11692929        0.33215703  H
       atom_frac         0.08932565        0.01383948        0.66642669  C
       atom_frac         0.43719053        0.24998569        0.83819220  C
       atom_frac         0.93531084        0.48906061        0.83712606  C
       atom_frac         0.61163911        0.23318350        0.67123131  C
       atom_frac         0.11850010        0.08817088        0.61322448  C
       atom_frac         0.39932848        0.31949242        0.89057307  C
       atom_frac         0.90943249        0.41514562        0.89153400  C
       atom_frac         0.64286201        0.16596465        0.61732839  C
       atom_frac         0.05151863        0.06007643        0.51958980  C
       atom_frac         0.47029328        0.29035017        0.98402818  C
       atom_frac         0.96693238        0.44198232        0.98305323  C
       atom_frac         0.57547494        0.19947306        0.52552158  C
       atom_frac         0.09699313        0.12428451        0.95923354  C
       atom_frac         0.46267389        0.37579630        0.55385621  C
       atom_frac         0.93428036        0.38240236        0.54564838  C
       atom_frac         0.60463073        0.11568687        0.96718747  C
       atom_frac         0.01693274        0.09793603        0.86697082  C
       atom_frac         0.51909287        0.33989731        0.64058065  C
       atom_frac         1.00503932        0.42271970        0.63424837  C
       atom_frac         0.54794196        0.14728704        0.87781453  C
       atom_frac         0.12611226        0.04042399        0.73441943  H
       atom_frac         0.39864532        0.27228704        0.76791148  H
       atom_frac         0.88995424        0.46874411        0.76584935  H
       atom_frac         0.66631862        0.20677778        0.74390241  H
       atom_frac         0.19084910        0.17038889        0.64413186  H
       atom_frac         0.30794057        0.39692424        0.86027241  H
       atom_frac         0.84672426        0.33284259        0.86219425  H
       atom_frac         0.71501484        0.08451010        0.64112073  H
       atom_frac         0.17593670        0.20256734        0.98827168  H
       atom_frac         0.40887070        0.46158418        0.53449885  H
       atom_frac         0.85490725        0.30056313        0.51871445  H
       atom_frac         0.68080419        0.03694184        0.99403722  H
       atom_frac         0.04152053        0.15109091        0.82309798  H
       atom_frac         0.49574868        0.39595286        0.68307032  H
       atom_frac         0.98329364        0.36848990        0.67775297  H
       atom_frac         0.58025715        0.09120791        0.83836755  H
       atom_frac         0.08142409        0.50547306        0.16059634  C
       atom_frac         0.43609822        0.75824495        0.35082070  C
       atom_frac         0.92884828        0.99420875        0.33693079  C
       atom_frac         0.60201617        0.75407407        0.17041179  C
       atom_frac         0.11878538        0.57764731        0.10953972  C
       atom_frac         0.39951332        0.82878535        0.40372763  C
       atom_frac         0.89161211        0.92165825        0.38828060  C
       atom_frac         0.63277489        0.67928030        0.11776508  C
       atom_frac         0.06026111        0.54975421        0.01817668  C
       atom_frac         0.47763624        0.80291246        0.49774176  C
       atom_frac         0.95446175        0.95311448        0.48141798  C
       atom_frac         0.56357259        0.70449242        0.02248779  C
       atom_frac         0.06994892        0.62306902        0.45246751  C
       atom_frac         0.43538095        0.88228956        0.03714083  C
       atom_frac         0.93868413        0.87089226        0.03691624  C
       atom_frac         0.61411255        0.62897896        0.48199383  C
       atom_frac        -0.00554574        0.58702609        0.36281401  C
       atom_frac         0.49925638        0.85739899        0.12691911  C
       atom_frac         1.00947950        0.90351010        0.12607883  C
       atom_frac         0.54109250        0.65751094        0.39019403  C
       atom_frac         0.12135674        0.53153283        0.22980390  H
       atom_frac         0.38232621        0.78259680        0.28095873  H
       atom_frac         0.88223186        0.97282828        0.26592623  H
       atom_frac         0.66065064        0.73945118        0.24447307  H
       atom_frac         0.19572275        0.65665404        0.13784068  H
       atom_frac         0.31384677        0.90453704        0.37492306  H
       atom_frac         0.81783007        0.84000168        0.36228165  H
       atom_frac         0.70901756        0.59996717        0.14704310  H
       atom_frac         0.14573320        0.70553704        0.47564402  H
       atom_frac         0.34944601        0.95855219        0.00067875  H
       atom_frac         0.87172850        0.78813721        0.01154862  H
       atom_frac         0.69263207        0.54998653        0.51046594  H
       atom_frac         0.00296151        0.63953704        0.31280178  H
       atom_frac         0.46827565        0.90989057        0.16787060  H
       atom_frac         0.98758287        0.84722222        0.17092803  H
       atom_frac         0.56191600        0.59585438        0.34800526  H
       atom_frac         0.11630890        0.52244276        0.66964263  C
       atom_frac         0.43935134        0.76292340        0.83800282  C
       atom_frac         0.91586158        0.99353535        0.83091162  C
       atom_frac         0.61411534        0.73869024        0.68263054  C
       atom_frac         0.13723366        0.58979209        0.61011866  C
       atom_frac         0.40057490        0.83411616        0.88975944  C
       atom_frac         0.89238167        0.91916667        0.88437967  C
       atom_frac         0.64700531        0.66910438        0.62847862  C
       atom_frac         0.05917458        0.55598906        0.51795553  C
       atom_frac         0.46599150        0.80657407        0.98173459  C
       atom_frac         0.96924380        0.94217172        0.97865543  C
       atom_frac         0.58203469        0.69992593        0.53688643  C
       atom_frac         0.09239206        0.62648906        0.96532875  C
       atom_frac         0.44178206        0.87562290        0.55239729  C
       atom_frac         0.93778585        0.87509259        0.54061229  C
       atom_frac         0.58969940        0.62842088        0.96530770  C
       atom_frac         0.03108352        0.59397643        0.87554198  C
       atom_frac         0.50607897        0.84019024        0.64301101  C
       atom_frac         0.99964049        0.90660774        0.63046289  C
       atom_frac         0.53551800        0.65944529        0.87549989  C
       atom_frac         0.16652824        0.55668098        0.73965190  H
       atom_frac         0.37890270        0.78404377        0.76444655  H
       atom_frac         0.85117945        0.97062290        0.76021708  H
       atom_frac         0.67827871        0.71592845        0.75503370  H
       atom_frac         0.19855285        0.67480808        0.62593743  H
       atom_frac         0.32472793        0.91422559        0.85780346  H
       atom_frac         0.80449264        0.84367003        0.85090866  H
       atom_frac         0.73138908        0.58803872        0.65573870  H
       atom_frac         0.17036818        0.70505640        0.99651318  H
       atom_frac         0.36991468        0.95638047        0.52605114  H
       atom_frac         0.87536720        0.79151515        0.51555112  H
       atom_frac         0.66471434        0.54732744        0.99680777  H
       atom_frac         0.05712516        0.65016919        0.83254589  H
       atom_frac         0.48902843        0.89763468        0.68677724  H
       atom_frac         0.97912814        0.85335017        0.67569996  H
       atom_frac         0.57011022        0.60438973        0.83636855  H

 
  Finished reading input file 'geometry.in'.
 

 
  Consistency checks for stacksize environment parameter are next.
 
  | Maximum stacksize for task 0: unlimited
  | Maximum stacksize for task 1: unlimited
  | Maximum stacksize for task 2: unlimited
  | Maximum stacksize for task 3: unlimited
  | Maximum stacksize for task 4: unlimited
  | Maximum stacksize for task 5: unlimited
  | Maximum stacksize for task 6: unlimited
  | Maximum stacksize for task 7: unlimited
  | Maximum stacksize for task 8: unlimited
  | Maximum stacksize for task 9: unlimited
  | Maximum stacksize for task 10: unlimited
  | Maximum stacksize for task 11: unlimited
  | Maximum stacksize for task 12: unlimited
  | Maximum stacksize for task 13: unlimited
  | Maximum stacksize for task 14: unlimited
  | Maximum stacksize for task 15: unlimited
  | Maximum stacksize for task 16: unlimited
  | Maximum stacksize for task 17: unlimited
  | Current stacksize for task 0: unlimited
  | Current stacksize for task 1: unlimited
  | Current stacksize for task 2: unlimited
  | Current stacksize for task 3: unlimited
  | Current stacksize for task 4: unlimited
  | Current stacksize for task 5: unlimited
  | Current stacksize for task 6: unlimited
  | Current stacksize for task 7: unlimited
  | Current stacksize for task 8: unlimited
  | Current stacksize for task 9: unlimited
  | Current stacksize for task 10: unlimited
  | Current stacksize for task 11: unlimited
  | Current stacksize for task 12: unlimited
  | Current stacksize for task 13: unlimited
  | Current stacksize for task 14: unlimited
  | Current stacksize for task 15: unlimited
  | Current stacksize for task 16: unlimited
  | Current stacksize for task 17: unlimited
 
  Consistency checks for the contents of control.in are next.
 
  MPI_IN_PLACE appears to work with this MPI implementation.
  | Keeping use_mpi_in_place .true. (see manual).
  Explicit treatment of the Coulomb operator is needed, but the RI method is not specified.
  Coulomb operator: Defaulting to 'LVL fast' resolution of identity - RI_type = LVL_fast
  Species H: Using default value for prodbas_acc =   1.000000E-06.
  Species H: Using default value max_l_prodbas =     6.
  Species C: Using default value for prodbas_acc =   1.000000E-06.
  Species C: Using default value max_l_prodbas =     6.
  Target number of points in a grid batch is not set.  Since GPU acceleration is enabled, defaulting to  200
  Method for grid partitioning is not set. Defaulting to parallel hash+maxmin partitioning.
  Batch size limit is not set. Defaulting to    200
  By default, will store active basis functions for each batch.
  If in need of memory, prune_basis_once .false. can be used to disable this option.
  communication_type for Hartree potential was not specified.
  Defaulting to calc_hartree .
  Defaulting to Pulay charge density mixer.
  Pulay mixer: Number of relevant iterations not set.
  Defaulting to    8 iterations.
  Pulay mixer: Number of initial linear mixing iterations not set.
  Defaulting to    0 iterations.
  Work space size for distributed Hartree potential not set.
  Defaulting to   0.200000E+03 MB.
  Algorithm-dependent basis array size parameters:
  | n_max_pulay                         :        8
  Maximum number of self-consistency iterations not provided.
  Presetting  1000 iterations.
  Presetting      1001 iterations before the initial mixing cycle
  is restarted anyway using the sc_init_iter criterion / keyword.
  Presetting a factor      1.000 between actual scf density residual
  and density convergence criterion sc_accuracy_rho below which sc_init_iter
  takes no effect.
 * No s.c.f. convergence criteria (sc_accuracy_*) were provided in control.in.
 * The run will proceed with a reasonable default guess, but please check whether.
 * the s.c.f. cycles seem to take too much or too little time.
  Geometry relaxation not requested: no relaxation will be performed.
 * Notice: The s.c.f. convergence criterion sc_accuracy_rho was not provided.
 * We used to stop in this case, and ask the user to provide reasonable
 * scf convergence criteria. However, this led some users to employ criteria
 * that led to extremely long run times, e.g., for simple relaxation.
 * We now preset a default value for sc_accuracy_rho if it is not set.
 * You may still wish to check if this setting is too tight or too loose for your needs.
 * Based on n_atoms and forces and force-correction status, FHI-aims chose sc_accuracy_rho =  0.391918E-04 .
  No accuracy limit for integral partition fn. given. Defaulting to  0.1000E-14.
  No threshold value for u(r) in integrations given. Defaulting to  0.1000E-05.
  No occupation type (smearing scheme) given. Defaulting to Gaussian broadening, width =  0.1000E-01 eV.
  The width will be adjusted in iteration number     2 of the first full s.c.f. cycle only.
  S.C.F. convergence parameters will be adjusted in iteration number     2 of the first full s.c.f. cycle only.
  No accuracy for occupation numbers given. Defaulting to  0.1000E-12.
  No threshold value for occupation numbers given. Defaulting to  0.0000E+00.
  No accuracy for fermi level given. Defaulting to  0.1000E-19.
  Maximum # of iterations to find E_F not set. Defaulting to  200.
  Preferred method for the eigenvalue solver ('KS_method') not specified in 'control.in'.
  Calling BLACS routine to test compilation state
  Since ScaLAPACK support is enabled, defaulting to ELPA (via ELSI).
  Will not use alltoall communication since running on < 1024 CPUs.
  Threshold for basis singularities not set.
  Default threshold for basis singularities:  0.1000E-04
  partition_type (choice of integration weights) for integrals was not specified.
  | Using a version of the partition function of Stratmann and coworkers ('stratmann_sparse').
  | At each grid point, the set of atoms used to build the partition table is smoothly restricted to
  | only those atoms whose free-atom density would be non-zero at that grid point.
  Partitioning for Hartree potential was not defined. Using partition_type for integrals.
  | Adjusted default value of keyword multip_moments_threshold to:       0.10000000E-11
  | This value may affect high angular momentum components of the Hartree potential in periodic systems.
  Angular momentum expansion for Kerker preconditioner not set explicitly.
  | Using default value of   0
  No explicit requirement for turning off preconditioner.
  | By default, it will be turned off when the charge convergence reaches
  | sc_accuracy_rho  =   0.391918E-04
  No special mixing parameter while Kerker preconditioner is on.
  Using default: charge_mix_param =     0.7500.
  Threshold for auxiliary basis singularities not set.
  Default threshold for auxiliary basis singularities:  0.1000E-04
  No q(lm)/r^(l+1) cutoff set for long-range Hartree potential.
  | Using default value of  0.100000E-09 .
  | Verify using the multipole_threshold keyword.
  Defaulting to new monopole extrapolation.
  Density update method: automatic selection selected.
  Using density matrix based charge density update.
  Using density matrix based charge density update.
  Using packed matrix style: index .
  Defaulting to use time-reversal symmetry for k-point grid.
  Charge integration errors on the 3D integration grid will be compensated
  by explicit normalization and distribution of residual charges.
  Use the "compensate_multipole_errors" flag to change this behaviour.
  Default to 1D ("use_logsbt") integrations for auxiliary 2-center integrals.
  Default onset of logarithmic r-grid for SBT is -38.000000000000
  Default onset of logarithmic k-grid for SBT is -25.000000000000
  Default range of logarithmic r- and k-grid for SBT is  45.000000000000
  Default number of logarithmic r- and k-grid for SBT is   4096
  Default of use_2d_corr is to use the efficient 2D distribution where possible
 
  Consistency checks for the contents of geometry.in are next.
 

  Range separation radius for Ewald summation (hartree_convergence_parameter):      2.91768261 bohr.
  Number of empty states per atom not set in control.in .
  | Since you are using a method that relies on the unoccupied spectrum
  | (MP2,GW,RPA et al.), will use the full Hamiltonian size (see below)
  | as the max. possible number of states (occupied plus empty).

  Structure-dependent array size parameters: 
  | Maximum number of distinct radial functions  :        9
  | Maximum number of basis functions            :     1440
  | Number of Kohn-Sham states (occupied + empty):     1440
------------------------------------------------------------
CUDA runtime version: 11060
CUDA driver version: 11060
  Initializing GPUs...

  Number of GPUs available to MPI task         0 :   1
  Number of GPUs available to MPI task         1 :   1
  Number of GPUs available to MPI task         2 :   1
  Number of GPUs available to MPI task         3 :   1
  Number of GPUs available to MPI task         4 :   1
  Number of GPUs available to MPI task         5 :   1
  Number of GPUs available to MPI task         6 :   1
  Number of GPUs available to MPI task         7 :   1
  Number of GPUs available to MPI task         8 :   1
  Number of GPUs available to MPI task         9 :   1
  Number of GPUs available to MPI task        10 :   1
  Number of GPUs available to MPI task        11 :   1
  Number of GPUs available to MPI task        12 :   1
  Number of GPUs available to MPI task        13 :   1
  Number of GPUs available to MPI task        14 :   1
  Number of GPUs available to MPI task        15 :   1
  Number of GPUs available to MPI task        16 :   1
  Number of GPUs available to MPI task        17 :   1

  | MPI task         0, GPU activated = T, Device Name = NVIDIA A100-SXM4-80GB
  | MPI task         1, GPU activated = T, Device Name = NVIDIA A100-SXM4-80GB
  | MPI task         2, GPU activated = T, Device Name = NVIDIA A100-SXM4-80GB
  | MPI task         3, GPU activated = T, Device Name = NVIDIA A100-SXM4-80GB
  | MPI task         4, GPU activated = T, Device Name = NVIDIA A100-SXM4-80GB
  | MPI task         5, GPU activated = T, Device Name = NVIDIA A100-SXM4-80GB
  | MPI task         6, GPU activated = T, Device Name = NVIDIA A100-SXM4-80GB
  | MPI task         7, GPU activated = T, Device Name = NVIDIA A100-SXM4-80GB
  | MPI task         8, GPU activated = T, Device Name = NVIDIA A100-SXM4-80GB
  | MPI task         9, GPU activated = T, Device Name = NVIDIA A100-SXM4-80GB
  | MPI task        10, GPU activated = T, Device Name = NVIDIA A100-SXM4-80GB
  | MPI task        11, GPU activated = T, Device Name = NVIDIA A100-SXM4-80GB
  | MPI task        12, GPU activated = T, Device Name = NVIDIA A100-SXM4-80GB
  | MPI task        13, GPU activated = T, Device Name = NVIDIA A100-SXM4-80GB
  | MPI task        14, GPU activated = T, Device Name = NVIDIA A100-SXM4-80GB
  | MPI task        15, GPU activated = T, Device Name = NVIDIA A100-SXM4-80GB
  | MPI task        16, GPU activated = T, Device Name = NVIDIA A100-SXM4-80GB
  | MPI task        17, GPU activated = T, Device Name = NVIDIA A100-SXM4-80GB

------------------------------------------------------------
          Preparing all fixed parts of the calculation.
------------------------------------------------------------
  Determining machine precision:
    2.225073858507201E-308
  Setting up grids for atomic and cluster calculations.

  Creating wave function, potential, and density for free atoms.
  Runtime choices for atomic solver:
  | atomic solver xc        : PW-LDA
  | compute density gradient: 0
  | compute kinetic density : F

  Species: H

  List of occupied orbitals and eigenvalues:
    n    l              occ      energy [Ha]    energy [eV]
    1    0           1.0000        -0.232375        -6.3233


  Species: C

  List of occupied orbitals and eigenvalues:
    n    l              occ      energy [Ha]    energy [eV]
    1    0           2.0000        -9.944615      -270.6068
    2    0           2.0000        -0.498807       -13.5732
    2    1           2.0000        -0.196968        -5.3598


  Adding cutoff potential to free-atom effective potential.
  Creating fixed part of basis set: Ionic, confined, hydrogenic.
 
  H                    hydrogenic:
 
  List of hydrogenic basis orbitals: 
    n    l      effective z      eigenvalue [eV]  inner max. [A]     outer max. [A]     outer radius [A]   
    2    0         2.100000       -14.9728           0.193243           1.317208           4.583499
    2    1         3.500000       -41.6669           0.602369           0.602369           3.723403
 
 
  C                    hydrogenic:
 
  List of hydrogenic basis orbitals: 
    n    l      effective z      eigenvalue [eV]  inner max. [A]     outer max. [A]     outer radius [A]   
    2    1         1.700000        -9.7616           1.230570           1.230570           4.607917
    3    2         6.000000       -54.4224           0.792453           0.792453           3.883070
    2    0         4.900000       -81.6679           0.082559           0.562749           3.078220
 
  Creating atomic-like basis functions for current effective potential.

  Species H                   :

  List of atomic basis orbitals and eigenvalues:
    n    l      energy [Ha]    energy [eV]    outer radius [A]
    1    0        -0.232375        -6.3233       4.527807


  Species C                   :

  List of atomic basis orbitals and eigenvalues:
    n    l      energy [Ha]    energy [eV]    outer radius [A]
    1    0        -9.944615      -270.6068       1.934409
    2    0        -0.498807       -13.5732       4.496620
    2    1        -0.196968        -5.3598       4.551928

  Assembling full basis from fixed parts.
  | Species H :   atomic orbital   1 s accepted.
  | Species H :    hydro orbital   2 s accepted.
  | Species H :    hydro orbital   2 p accepted.
  | Species C :   atomic orbital   1 s accepted.
  | Species C :    hydro orbital   2 s accepted.
  | Species C :   atomic orbital   2 s accepted.
  | Species C :   atomic orbital   2 p accepted.
  | Species C :    hydro orbital   2 p accepted.
  | Species C :    hydro orbital   3 d accepted.
 
  Basis size parameters after reduction:
  | Total number of radial functions:        9
  | Total number of basis functions :     1440
 
  Per-task memory consumption for arrays in subroutine allocate_ext:
  |           2.242384MB.
  Testing on-site integration grid accuracy.
  |  Species  Function  <phi|h_atom|phi> (log., in eV)  <phi|h_atom|phi> (rad., in eV)
           1        1                 -6.3245358373                 -6.3232436907
           1        2                 14.1326137532                 14.1384481100
           1        3                 25.3627025200                 25.3628451197
           2        4               -270.6067544938               -270.6067222788
           2        5                -10.5634280949                -10.5635685736
           2        6                 16.2089822398                 16.2052121796
           2        7                 -5.3613872565                 -5.3627872378
           2        8                  8.5292058327                  8.5051734780
           2        9                 27.4884461005                 27.4884542459

  Preparing densities etc. for the partition functions (integrals / Hartree potential).

  Preparations completed.
  max(cpu_time)          :      0.074 s.
  Wall clock time (cpu1) :      0.071 s.
------------------------------------------------------------

  Initializing index lists of integration centers etc. from given atomic structure:
  Mapping all atomic coordinates to central unit cell.

  Initializing the k-points
  Using symmetry for reducing the k-points
  | k-points reduced from:        2 to        2
  | Number of k-points                             :         2
  | Consuming          0 KiB for k_phase_exx.
  The eigenvectors in the calculations are REAL.
  | Number of basis functions in the Hamiltonian integrals :      8021
  | Number of basis functions in a single unit cell        :      1440
  | Number of centers in hartree potential         :      3312
  | Number of centers in hartree multipole         :      2528
  | Number of centers in electron density summation:      1986
  | Number of centers in basis integrals           :      2110
  | Number of centers in integrals                 :       972
  | Number of centers in hamiltonian               :      1991
  | Consuming          1 KiB for k_phase.
  | Number of super-cells (origin) [n_cells]                     :         175
  | Number of super-cells (after PM_index) [n_cells]             :          38
  | Number of super-cells in hamiltonian [n_cells_in_hamiltonian]:          38
  | Size of matrix packed + index [n_hamiltonian_matrix_size] :     1929348
  | Size of matrix packed + index (no_symmetry):     3855879

------------------------------------------------------------
          Begin self-consistency loop: Initialization.

          Date     :  20230120, Time     :  132451.100
------------------------------------------------------------
  | Estimated reciprocal-space cutoff momentum G_max:         3.24344278 bohr^-1 .
  | Reciprocal lattice points for long-range Hartree potential:    5310
  Using simple linear distribution as default method for k-point parallelism.
  * Using 18 tasks for Scalapack Eigenvalue solver.
  Detailed listing of tasks and assigned k-points:
   Task     0 k-point     1 on adag006
   Task     1 k-point     1 on adag006
   Task     2 k-point     1 on adag006
   Task     3 k-point     1 on adag006
   Task     4 k-point     1 on adag006
   Task     5 k-point     1 on adag006
   Task     6 k-point     1 on adag006
   Task     7 k-point     1 on adag006
   Task     8 k-point     1 on adag006
   Task     9 k-point     2 on adag006
   Task    10 k-point     2 on adag006
   Task    11 k-point     2 on adag006
   Task    12 k-point     2 on adag006
   Task    13 k-point     2 on adag006
   Task    14 k-point     2 on adag006
   Task    15 k-point     2 on adag006
   Task    16 k-point     2 on adag006
   Task    17 k-point     2 on adag006
  K-point:     1 Tasks:     9 split into      3 X      3 BLACS grid
  Calculating block size based on n_basis =         1440  max_nprow =            3  max_npcol =            3
  ScaLAPACK block size set to:           16
  Allocating        1.758 MB for ovlp
  Allocating        1.758 MB for ham
  Allocating        1.758 MB for eigenvec
  Required Scalapack workspace - INTEGER:            1  REAL:             1
  Partitioning the integration grid into batches with parallel hashing+maxmin method.
  | Number of batches:     5120
  | Maximal batch size:     200
  | Minimal batch size:     107
  | Average batch size:     149.188
  | Standard deviation of batch sizes:      30.438

  Integration load balanced across    18 MPI tasks.
  Work distribution over tasks is as follows:
  Task     0 has      42490 integration points.
  Task     1 has      42375 integration points.
  Task     2 has      42326 integration points.
  Task     3 has      42517 integration points.
  Task     4 has      42444 integration points.
  Task     5 has      42421 integration points.
  Task     6 has      42525 integration points.
  Task     7 has      42419 integration points.
  Task     8 has      42424 integration points.
  Task     9 has      42439 integration points.
  Task    10 has      42468 integration points.
  Task    11 has      42435 integration points.
  Task    12 has      42403 integration points.
  Task    13 has      42371 integration points.
  Task    14 has      42442 integration points.
  Task    15 has      42400 integration points.
  Task    16 has      42517 integration points.
  Task    17 has      42424 integration points.
  Initializing partition tables, free-atom densities, potentials, etc. across the integration grid (initialize_grid_storage).
  | initialize_grid_storage: Actual outermost partition radius vs. multipole_radius_free
  | (-- VB: in principle, multipole_radius_free should be larger, hence this output)
  | Species        1: Confinement radius =              4.999999999999999 AA, multipole_radius_free =              5.054417573612229 AA.
  | Species        1: outer_partition_radius set to              5.054417573612229 AA .
  | Species        2: Confinement radius =              4.999999999999999 AA, multipole_radius_free =              5.019602836301480 AA.
  | Species        2: outer_partition_radius set to              5.019602836301480 AA .
  | The sparse table of interatomic distances needs       7572.81 kbyte instead of     35616.80 kbyte of memory.
  | Net number of integration points:   763840
  | of which are non-zero points    :   605330
  | Numerical average free-atom electrostatic potential    :     -8.61474151 eV
  Renormalizing the initial density to the exact electron count on the 3D integration grid.
  | Initial density: Formal number of electrons (from input files) :     544.0000000000
  | Integrated number of electrons on 3D grid     :     544.0009576729
  | Charge integration error                      :       0.0009576729
  | Normalization factor for density and gradient :       0.9999982396
  Renormalizing the free-atom superposition density to the exact electron count on the 3D integration grid.
  | Formal number of electrons (from input files) :     544.0000000000
  | Integrated number of electrons on 3D grid     :     544.0009576729
  | Charge integration error                      :       0.0009576729
  | Normalization factor for density and gradient :       0.9999982396
  Obtaining max. number of non-zero basis functions in each batch (get_n_compute_maxes).
  | Maximal number of non-zero basis functions:      552 in task     0
  | Maximal number of non-zero basis functions:      541 in task     1
  | Maximal number of non-zero basis functions:      545 in task     2
  | Maximal number of non-zero basis functions:      556 in task     3
  | Maximal number of non-zero basis functions:      541 in task     4
  | Maximal number of non-zero basis functions:      547 in task     5
  | Maximal number of non-zero basis functions:      546 in task     6
  | Maximal number of non-zero basis functions:      543 in task     7
  | Maximal number of non-zero basis functions:      541 in task     8
  | Maximal number of non-zero basis functions:      548 in task     9
  | Maximal number of non-zero basis functions:      539 in task    10
  | Maximal number of non-zero basis functions:      539 in task    11
  | Maximal number of non-zero basis functions:      544 in task    12
  | Maximal number of non-zero basis functions:      542 in task    13
  | Maximal number of non-zero basis functions:      544 in task    14
  | Maximal number of non-zero basis functions:      534 in task    15
  | Maximal number of non-zero basis functions:      555 in task    16
  | Maximal number of non-zero basis functions:      553 in task    17
  Integrating Hamiltonian matrix: batch-based integration.
  GPU acceleration will be used when integrating the Hamiltonian matrix.
  Reporting GPU memory usage by myid 0.  Note that it is likely not the only MPI task binding to its GPU!
  Allocating        2.438 MB on GPU for hamiltonian_shell
  Allocating        0.883 MB on GPU for wave
  Allocating        0.002 MB on GPU for partition
  Allocating        0.883 MB on GPU for h_times_psi
  Time summed over all CPUs for integration: real work       20.978 s, elapsed       21.401 s
  Deallocating memory used on GPU for Hamiltonian integration.
  Integrating overlap matrix.
  Time summed over all CPUs for integration: real work       19.390 s, elapsed       19.807 s
  Deallocating overlap matrix.

  Updating Kohn-Sham eigenvalues and eigenvectors using ELSI and the ELPA eigensolver.
  Singularity check in k-point 1 (analysis for other k-points may follow below):
  Overlap matrix is not singular
  | Lowest and highest eigenvalues :  0.7849E-03,  0.8272E+01
  Finished singularity check of overlap matrix
  | Time :     0.091 s
  Starting ELPA eigensolver
  Finished Cholesky decomposition
  | Time :     0.015 s
  Finished transformation to standard eigenproblem
  | Time :     0.020 s
  Finished solving standard eigenproblem
  | Time :     0.216 s
  Finished back-transformation of eigenvectors
  | Time :     0.016 s

  Obtaining occupation numbers and electronic chemical potential using ELSI.
  | Note that, for insulating systems, the printed 'chemical potential' value is not uniquely defined.
  | It can be anywhere in the energy gap, as long as it correctly separates occupied and unoccupied states.
  | In systems with a gap, the physically relevant chemical potential is the VBM or HOMO.

  | Chemical potential (Fermi level):    -8.16832879 eV
  Writing Kohn-Sham eigenvalues.
  K-point:       1 at    0.000000    0.000000    0.000000 (in units of recip. lattice)

  State    Occupation    Eigenvalue [Ha]    Eigenvalue [eV]
      1       2.00000         -10.070914         -274.04351
      2       2.00000         -10.070503         -274.03233
      3       2.00000         -10.069986         -274.01825
      4       2.00000         -10.069878         -274.01534
      5       2.00000         -10.068873         -273.98798
      6       2.00000         -10.068872         -273.98794
      7       2.00000         -10.068253         -273.97111
      8       2.00000         -10.068185         -273.96924
      9       2.00000         -10.067772         -273.95800
     10       2.00000         -10.067232         -273.94332
     11       2.00000         -10.067125         -273.94041
     12       2.00000         -10.067107         -273.93992
     13       2.00000         -10.067103         -273.93980
     14       2.00000         -10.066429         -273.92147
     15       2.00000         -10.065921         -273.90764
     16       2.00000         -10.065881         -273.90657
     17       2.00000         -10.065602         -273.89898
     18       2.00000         -10.065549         -273.89752
     19       2.00000         -10.065540         -273.89728
     20       2.00000         -10.065049         -273.88392
     21       2.00000         -10.065002         -273.88263
     22       2.00000         -10.064996         -273.88249
     23       2.00000         -10.064814         -273.87752
     24       2.00000         -10.064795         -273.87701
     25       2.00000         -10.064526         -273.86968
     26       2.00000         -10.064439         -273.86731
     27       2.00000         -10.064373         -273.86553
     28       2.00000         -10.064196         -273.86072
     29       2.00000         -10.064195         -273.86068
     30       2.00000         -10.064042         -273.85652
     31       2.00000         -10.064007         -273.85555
     32       2.00000         -10.063921         -273.85322
     33       2.00000         -10.063623         -273.84512
     34       2.00000         -10.063532         -273.84263
     35       2.00000         -10.063505         -273.84189
     36       2.00000         -10.063435         -273.84000
     37       2.00000         -10.063143         -273.83204
     38       2.00000         -10.063137         -273.83190
     39       2.00000         -10.063135         -273.83183
     40       2.00000         -10.063013         -273.82852
     41       2.00000         -10.062955         -273.82694
     42       2.00000         -10.062904         -273.82556
     43       2.00000         -10.062593         -273.81710
     44       2.00000         -10.062397         -273.81175
     45       2.00000         -10.062396         -273.81174
     46       2.00000         -10.062272         -273.80836
     47       2.00000         -10.062135         -273.80463
     48       2.00000         -10.062132         -273.80454
     49       2.00000         -10.061932         -273.79910
     50       2.00000         -10.061278         -273.78130
     51       2.00000         -10.061178         -273.77860
     52       2.00000         -10.061045         -273.77496
     53       2.00000         -10.060816         -273.76873
     54       2.00000         -10.060692         -273.76536
     55       2.00000         -10.060405         -273.75754
     56       2.00000         -10.060387         -273.75705
     57       2.00000         -10.060302         -273.75474
     58       2.00000         -10.060071         -273.74846
     59       2.00000         -10.060017         -273.74698
     60       2.00000         -10.059781         -273.74057
     61       2.00000         -10.059766         -273.74015
     62       2.00000         -10.059642         -273.73678
     63       2.00000         -10.059450         -273.73156
     64       2.00000         -10.059420         -273.73074
     65       2.00000         -10.059273         -273.72675
     66       2.00000         -10.059202         -273.72481
     67       2.00000         -10.059030         -273.72012
     68       2.00000         -10.058919         -273.71710
     69       2.00000         -10.058803         -273.71396
     70       2.00000         -10.058622         -273.70904
     71       2.00000         -10.058355         -273.70176
     72       2.00000         -10.058223         -273.69817
     73       2.00000         -10.056527         -273.65202
[...]
  |    H      2     3.678162 A  1.011968E+04 A            0.556529 a.u.
  |    H      1     3.958095 A  1.721251E+06 A            0.841931 a.u.
  |    H      0     4.527807 A  3.866455E+12 A            0.581436 a.u.
  |    C      0     2.562483 A      2.562483 A        6.563029E-17 a.u.
  |    C      0     2.967371 A      2.967371 A        1.352164E-16 a.u.
  |    C      0     3.003870 A      3.003870 A        2.312640E-17 a.u.
  |    C      1     3.272245 A      3.272245 A       -3.835259E-17 a.u.
  |    C      0     3.312494 A      3.312494 A       -2.710381E-16 a.u.
  |    C      3     4.077671 A      4.077671 A       -1.683752E-15 a.u.
  |    C      3     4.077671 A      4.077671 A        1.412852E-15 a.u.
  |    C      1     4.496620 A      4.496620 A       -3.011059E-16 a.u.
  |    C      0     4.496620 A      4.551928 A        2.873903E-17 a.u.
  |    C      2     4.551928 A      4.551928 A       -4.610785E-16 a.u.
  |    C      2     4.551928 A      4.551928 A        7.440584E-16 a.u.
  |    C      2     4.551928 A      4.551928 A       -7.110458E-16 a.u.
  |    C      2     4.551928 A      4.551928 A       -1.935424E-16 a.u.
  |    C      0     4.551928 A      4.607917 A        2.067142E-16 a.u.
  |    C      0     4.551928 A      4.607917 A       -1.109786E-16 a.u.
  |    C      1     4.551928 A      4.607917 A       -9.951742E-17 a.u.
  |    C      1     4.551928 A      4.607917 A        1.937809E-16 a.u.
  |    C      1     4.607917 A      4.607917 A       -2.813308E-16 a.u.
  |    C      1     4.607917 A      4.607917 A       -7.330363E-17 a.u.
  |    C      2     4.607917 A      4.607917 A        1.318462E-15 a.u.
  |    C      2     4.607917 A      4.607917 A       -1.318397E-15 a.u.
  |    C      0     4.607917 A      4.664595 A        3.157826E-16 a.u.
  |    C      1     4.607917 A      4.664595 A        7.356967E-16 a.u.
  |    C      4     3.835889 A  2.962973E+02 A            4.379483 a.u.
  |    C      3     4.127827 A  1.725964E+03 A            9.005588 a.u.
  |    C      2     4.607917 A  2.608475E+04 A            9.531178 a.u.
  |    C      1     4.607917 A  2.736013E+06 A            2.127278 a.u.
  |    C      0     4.607917 A  4.399765E+12 A            0.661635 a.u.

  | Shrink_full_auxil_basis : there are       36  radial auxiliary wave functions
                            accepted and       7 rejected.
  | Shrink_full_auxil_basis : there are totally                8992 partial auxiliary wave functions.
 
  | Maximal number of product basis functions per thread :   512   512
 
  | Minimal total memory requirement for three-center overlap :      72.476 Gbs
  | Number of local auxiliary basis functions on task:      0   512
  | Number of local auxiliary basis functions on task:      1   512
  | Number of local auxiliary basis functions on task:      2   512
  | Number of local auxiliary basis functions on task:      3   512
  | Number of local auxiliary basis functions on task:      4   496
  | Number of local auxiliary basis functions on task:      5   496
  | Number of local auxiliary basis functions on task:      6   496
  | Number of local auxiliary basis functions on task:      7   496
  | Number of local auxiliary basis functions on task:      8   496
  | Number of local auxiliary basis functions on task:      9   496
  | Number of local auxiliary basis functions on task:     10   496
  | Number of local auxiliary basis functions on task:     11   496
  | Number of local auxiliary basis functions on task:     12   496
  | Number of local auxiliary basis functions on task:     13   496
  | Number of local auxiliary basis functions on task:     14   496
  | Number of local auxiliary basis functions on task:     15   496
  | Number of local auxiliary basis functions on task:     16   496
  | Number of local auxiliary basis functions on task:     17   496
  | 2D aux task distribution:      3 X      6
  | 2D block size (nb_aux_2d):     64
 
  Basis pair condensation :   1037520  -->     555413
 
 --------------------------------------------
  Constructing auxiliary basis (full product) ...
 
  Product basis:
  | charge radius: extent of product basis function
  | field radius: extent of its Coulomb potential
  | Species   l  charge radius    field radius  multipol momen
  |    H      1     3.910002 A      3.910002 A       -2.487223E-16 a.u.
  |    H      1     3.958095 A      3.958095 A       -2.441841E-16 a.u.
  |    H      0     4.527807 A      4.527807 A        1.268855E-16 a.u.
  |    H      0     4.527807 A      4.583499 A       -4.900954E-17 a.u.
  |    H      0     4.527807 A      4.583499 A        4.713786E-16 a.u.
  |    H      2     3.678162 A  1.011968E+04 A            0.556529 a.u.
  |    H      1     3.958095 A  1.721251E+06 A            0.841931 a.u.
  |    H      0     4.527807 A  3.866455E+12 A            0.581436 a.u.
  |    C      0     2.562483 A      2.562483 A        6.563029E-17 a.u.
  |    C      0     2.967371 A      2.967371 A        1.352164E-16 a.u.
  |    C      0     3.003870 A      3.003870 A        2.312640E-17 a.u.
  |    C      1     3.272245 A      3.272245 A       -3.835259E-17 a.u.
  |    C      0     3.312494 A      3.312494 A       -2.710381E-16 a.u.
  |    C      3     4.077671 A      4.077671 A       -1.683752E-15 a.u.
  |    C      3     4.077671 A      4.077671 A        1.412852E-15 a.u.
  |    C      1     4.496620 A      4.496620 A       -3.011059E-16 a.u.
  |    C      0     4.496620 A      4.551928 A        2.873903E-17 a.u.
  |    C      2     4.551928 A      4.551928 A       -4.610785E-16 a.u.
  |    C      2     4.551928 A      4.551928 A        7.440584E-16 a.u.
  |    C      2     4.551928 A      4.551928 A       -7.110458E-16 a.u.
  |    C      2     4.551928 A      4.551928 A       -1.935424E-16 a.u.
  |    C      0     4.551928 A      4.607917 A        2.067142E-16 a.u.
  |    C      0     4.551928 A      4.607917 A       -1.109786E-16 a.u.
  |    C      1     4.551928 A      4.607917 A       -9.951742E-17 a.u.
  |    C      1     4.551928 A      4.607917 A        1.937809E-16 a.u.
  |    C      1     4.607917 A      4.607917 A       -2.813308E-16 a.u.
  |    C      1     4.607917 A      4.607917 A       -7.330363E-17 a.u.
  |    C      2     4.607917 A      4.607917 A        1.318462E-15 a.u.
  |    C      2     4.607917 A      4.607917 A       -1.318397E-15 a.u.
  |    C      0     4.607917 A      4.664595 A        3.157826E-16 a.u.
  |    C      1     4.607917 A      4.664595 A        7.356967E-16 a.u.
  |    C      4     3.835889 A  2.962973E+02 A            4.379483 a.u.
  |    C      3     4.127827 A  1.725964E+03 A            9.005588 a.u.
  |    C      2     4.607917 A  2.608475E+04 A            9.531178 a.u.
  |    C      1     4.607917 A  2.736013E+06 A            2.127278 a.u.
  |    C      0     4.607917 A  4.399765E+12 A            0.661635 a.u.

  | Shrink_full_auxil_basis : there are       36  radial auxiliary wave functions
                            accepted and       7 rejected.
  | Shrink_full_auxil_basis : there are totally                8992 partial auxiliary wave functions.
 
  | Maximal number of product basis functions per thread :   512   512
 
  | Minimal total memory requirement for three-center overlap :      72.476 Gbs
  | Number of local auxiliary basis functions on task:      0   512
  | Number of local auxiliary basis functions on task:      1   512
  | Number of local auxiliary basis functions on task:      2   512
  | Number of local auxiliary basis functions on task:      3   512
  | Number of local auxiliary basis functions on task:      4   496
  | Number of local auxiliary basis functions on task:      5   496
  | Number of local auxiliary basis functions on task:      6   496
  | Number of local auxiliary basis functions on task:      7   496
  | Number of local auxiliary basis functions on task:      8   496
  | Number of local auxiliary basis functions on task:      9   496
  | Number of local auxiliary basis functions on task:     10   496
  | Number of local auxiliary basis functions on task:     11   496
  | Number of local auxiliary basis functions on task:     12   496
  | Number of local auxiliary basis functions on task:     13   496
  | Number of local auxiliary basis functions on task:     14   496
  | Number of local auxiliary basis functions on task:     15   496
  | Number of local auxiliary basis functions on task:     16   496
  | Number of local auxiliary basis functions on task:     17   496
  | 2D aux task distribution:      3 X      6
  | 2D block size (nb_aux_2d):     64
 
  Basis pair condensation :   1037520  -->     555413
  Allocating        0.069 MB for t_coeff
  Allocating        0.034 MB for basbas_idx
  Allocating        0.069 MB for wave
  Allocating        0.069 MB for total_wave
  Allocating        0.206 MB for wave_gradient
  Allocating        0.206 MB for total_wave_grad
 HERE1
 HERE2
  Deallocating        0.069 MB for t_coeff
  Deallocating        0.034 MB for basbas_idx
  Deallocating        0.069 MB for wave
  Deallocating        0.206 MB for wave_gradient
  Deallocating        0.206 MB for total_wave_grad
dP_dE (Bohr^3) at every cycle:--->
 (1013.24661210167,0.000000000000000E+000) (-3.59788839422027,0.000000000000000E+000) (-457.047450363365,0.000000000000000E+000)
 (-3.61260758985830,0.000000000000000E+000) (1346.45491322562,0.000000000000000E+000) (-5.86643102291112,0.000000000000000E+000)
 (-457.249148653556,0.000000000000000E+000) (-5.87523775568761,0.000000000000000E+000) (1696.19113639604,0.000000000000000E+000)
DFPT polarizability (Bohr^3)        xx        yy        zz        xy        xz        yz
  | Polarizability:--->                      1013.246612102                 1346.454913226                 1696.191136396                   -3.597888394                 -457.047450363                   -5.866431023

DFPT for dielectric_constant:--->  # PARSE DFPT_dielectric_tensor
               2.374954039632378            -0.004882257806437            -0.620203641122791
              -0.004902231440951             2.827110596780027            -0.007960621764573
              -0.620477341400267            -0.007972572313099             3.301695191597004

                                               :  max(cpu_time)    wall_clock(cpu1)
  | Time for  dielectric calculation            :        0.000 s           0.001 s
===========================================================================

------------------------------------------------------------------------------
  Final output of selected total energy values:

  The following output summarizes some interesting total energy values
  at the end of a run (AFTER all relaxation, molecular dynamics, etc.).

  | Total energy of the DFT / Hartree-Fock s.c.f. calculation      :         -83267.442085794 eV
  | Final zero-broadening corrected energy (caution - metals only) :         -83267.442085794 eV
  | For reference only, the value of 1 Hartree used in FHI-aims is :             27.211384500 eV
  | For reference only, the overall average (free atom contribution
  | + realspace contribution) of the electrostatic potential after
  | s.c.f. convergence is                                          :             -7.705810279 eV

  Before relying on these values, please be sure to understand exactly which
  total energy value is referred to by a given number. Different objects may
  all carry the same name 'total energy'. Definitions:

  Total energy of the DFT / Hartree-Fock s.c.f. calculation:
  | Note that this energy does not include ANY quantities calculated after the
  | s.c.f. cycle, in particular not ANY RPA, MP2, etc. many-body perturbation terms.

  Final zero-broadening corrected energy:
  | For metallic systems only, a broadening of the occupation numbers at the Fermi
  | level can be extrapolated back to zero broadening by an electron-gas inspired
  | formula. For all systems that are not real metals, this value can be
  | meaningless and should be avoided.

------------------------------------------------------------------------------
  Methods described in the following list of references were used in this FHI-aims run.
  If you publish the results, please make sure to cite these reference if they apply.
  FHI-aims is an academic code, and for our developers (often, Ph.D. students
  and postdocs), scientific credit in the community is essential.
  Thank you for helping us!

  For any use of FHI-aims, please cite:

    Volker Blum, Ralf Gehrke, Felix Hanke, Paula Havu, Ville Havu,
    Xinguo Ren, Karsten Reuter, and Matthias Scheffler
    'Ab initio molecular simulations with numeric atom-centered orbitals'
    Computer Physics Communications 180, 2175-2196 (2009)
    http://doi.org/10.1016/j.cpc.2009.06.022


  For Hartree-Fock, hybrid functionals, or many-body perturbation theory used in your run, please cite:

    Xinguo Ren, Patrick Rinke, Volker Blum, Juergen Wieferink, Alex Tkatchenko,
    Andrea Sanfilippo, Karsten Reuter, and Matthias Scheffler,
    'Resolution-of-identity approach to Hartree-Fock, hybrid density functionals,
    RPA, MP2, and GW with numeric atom-centered orbital basis functions'
    New Journal of Physics 14, 053020 (2012).
    http://doi.org/10.1088/1367-2630/14/5/053020


  The provided symmetry information was generated with SPGlib:

    Atsushi Togo, Yusuke Seto, Dimitar Pashov
    SPGlib 1.7.3 obtained from http://spglib.sourceforge.net
    Copyright (C) 2008 Atsushi Togo


  The DFPT (perturbation by an electric field) part of the code was used.
  Here is the corresponding reference:

    Honghui Shang, Nathaniel Raimbault, Mariana Rossi,
    Christian Carbogno, Patrick Rinke and Matthias Scheffler,
    'All-Electron, Real-Space Perturbation Theory for Homogeneous
    Electric Fields: Theory, Implementation, and Application within dft'
    New Journal of Physics, 20(7):073040, 2018


  The ELSI infrastructure was used in your run to solve the Kohn-Sham electronic structure.
  Please check out http://elsi-interchange.org to learn more.
  If scalability is important for your project, please acknowledge ELSI by citing:

    V. W-z. Yu, F. Corsetti, A. Garcia, W. P. Huhn, M. Jacquelin, W. Jia,
    B. Lange, L. Lin, J. Lu, W. Mi, A. Seifitokaldani, A. Vazquez-Mayagoitia,
    C. Yang, H. Yang, and V. Blum
    'ELSI: A unified software interface for Kohn-Sham electronic structure solvers'
    Computer Physics Communications 222, 267-285 (2018).
    http://doi.org/10.1016/j.cpc.2017.09.007


  For the real-space grid partitioning and parallelization used in this calculation, please cite:

    Ville Havu, Volker Blum, Paula Havu, and Matthias Scheffler,
    'Efficient O(N) integration for all-electron electronic structure calculation'
    'using numerically tabulated basis functions'
    Journal of Computational Physics 228, 8367-8379 (2009).
    http://doi.org/10.1016/j.jcp.2009.08.008


  The high-level electronic structure method used in your calculation
  employed our efficient localized resolution of identity for the Coulomb operator.
  Some calculations, especially large-scale hybrid density functional theory,
  are only possible thanks to this development. For this feature, please cite:

    Arvid Ihrig, Juergen Wieferink, Igor Ying Zhang, Matti Ropo, Xinguo Ren,
    Patrick Rinke, Matthias Scheffler, and Volker Blum,
    'Accurate localized resolution of identity approach for linear-scaling
    hybrid density functionals and for many-body perturbation theory'
    New Journal of Physics 117, 093020 (2015).
    http://doi.org/10.1088/1367-2630/17/9/093020

  Of course, there are many other important community references, e.g., those cited in the
  above references. Our list is limited to references that describe implementations in the
  FHI-aims code. The reason is purely practical (length of this list) - please credit others as well.

------------------------------------------------------------
          Leaving FHI-aims.
          Date     :  20230120, Time     :  134956.345

          Computational steps:
          | Number of self-consistency cycles          :           46
          | Number of SCF (re)initializations          :            1
          | Number of coupled perturbed self-consistency cycles          :            0
          | Number of CPSCF (re)initializations          :            0

          Detailed time accounting                     :  max(cpu_time)    wall_clock(cpu1)
          | Total time                                  :     1506.284 s        1516.325 s
          | GPU initialization                          :        2.126 s           9.879 s
          | Preparation time                            :        0.074 s           0.071 s
          | Boundary condition initalization            :        0.998 s           0.998 s
          | Grid partitioning                           :        1.320 s           1.321 s
          | Preloading free-atom quantities on grid     :        4.095 s           4.095 s
          | Free-atom superposition energy              :        0.463 s           0.463 s
          | Total time for integrations                 :       17.325 s          17.912 s
          | Product basis setup: Total time             :        0.000 s           0.000 s
          | Product basis: | 2-center integrations     :(       0.000 s)  (       0.000 s)
          | Product basis: | LVL 3-center & coefficient:(       0.000 s)  (       0.000 s)
          | Total time for solution of K.-S. equations  :        3.430 s           3.432 s
          | Total time for density update               :       12.977 s          13.750 s
          | Total time for mixing & preconditioning     :       12.572 s          12.573 s
          | Total time for Hartree multipole update     :        0.088 s           0.088 s
          | Total time for Hartree multipole sum        :       43.567 s          43.578 s
          | Total time for total energy evaluation      :        0.007 s           0.006 s
          | Total time first_order_DM                   :        1.863 s           1.864 s
          | Total time first_order_density              :      293.503 s         293.519 s
          | Total time first_order_potential            :      119.802 s         119.833 s
          | Total time first_order_H                    :      562.045 s         562.179 s
          | Total time solving of Sternheimer equations :        1.779 s           1.779 s
          | Total time for dielectric constant          :        0.000 s           0.001 s
          | Total time momentum matrix                  :        0.000 s           0.000 s

          GPU acceleration has been used for charge density update.
          GPU acceleration has been used for real-space Hamiltonian integration.
          Due to GPU usage, wall_clock(cpu1) will give a more reliable estimate for timings.

          Partial memory accounting:
          | Residual value for overall tracked memory usage across tasks:     1.234863 MB (should be 0.000000 MB)
          |
          | Largest tracked array allocation:
          |   Minimum:      103.038 MB (DFPT_pulay_mixing::initialize_pulay_mixing::X_in_diffs on task  0)
          |   Maximum:      103.038 MB (DFPT_pulay_mixing::initialize_pulay_mixing::X_in_diffs on task  0)
          |   Average:      103.038 MB
          |
          | Because the residual tracked memory usage was not zero, the peak value for overall
          | tracked memory usage was not output, as it is probably incorrect.  This is likely due
          | to a missing aims_deallocate statement in the source code, which should be otherwise
          | harmless.
          |
          Note:  These values currently only include a subset of arrays which are explicitly tracked.
          The "true" memory usage will be greater.

          Have a nice day.
------------------------------------------------------------
