------------------------------------------------------------
          Invoking FHI-aims ...

          When using FHI-aims, please cite the following reference:

            Volker Blum, Ralf Gehrke, Felix Hanke, Paula Havu,
            Ville Havu, Xinguo Ren, Karsten Reuter, and Matthias Scheffler,
            'Ab Initio Molecular Simulations with Numeric Atom-Centered Orbitals',
            Computer Physics Communications 180, 2175-2196 (2009)

          In addition, many other developments in FHI-aims are likely important for
          your particular application. A partial list of references is given at the end of
          this file. Thank you for giving credit to the authors of these developments.

          For any questions about FHI-aims, please visit our slack channel at

            https://fhi-aims.slack.com

          and our main development and support site at

            https://aims-git.rz-berlin.mpg.de .

          The latter site, in particular, has a wiki to collect information, as well
          as an issue tracker to log discussions, suggest improvements, and report issues
          or bugs. https://aims-git.rz-berlin.mpg.de is also the main development site
          of the project and all new and updated code versions can be obtained there.
          Please send an email to aims-coordinators@fhi-berlin.mpg.de and we will add
          you to these sites. They are for you and everyone is welcome there.

------------------------------------------------------------



  Date     :  20230125, Time     :  173337.067
  Time zero on CPU 1             :   0.780696000000000E+00  s.
  Internal wall clock time zero  :           443900017.067  s.

  FHI-aims created a unique identifier for this run for later identification
  aims_uuid : DACE113B-3E53-4807-A620-B85200FE944D

  Build configuration of the current instance of FHI-aims
  -------------------------------------------------------
  FHI-aims version      : 221103
  Commit number         : 42523251a
  CMake host system     : Linux-5.3.18-150300.59.68-default
  CMake version         : 3.17.0
  Fortran compiler      : /mpcdf/soft/SLE_15/packages/x86_64/intel_oneapi/2021.3/mpi/2021.3.0/bin/mpiifort (Intel) version 20.2.3.20210609
  Fortran compiler flags: -O3 -ip -fp-model precise
  C compiler            : /mpcdf/soft/SLE_15/packages/x86_64/intel/2021.3.0/bin/icc (Intel) version 20.2.3.20210609
  C compiler flags      : -O3 -ip -fp-model precise -std=gnu99
  CUDA compiler         : /mpcdf/soft/SLE_15/packages/x86_64/cuda/11.6.2/bin/nvcc
  CUDA compiler flags   : -O3 -DAdd_ -lcublas
  HIP compiler          :
  HIP compiler flags    :
  HIP GPU arch          :
  ELPA2 kernel          : AVX512
  Using MPI
  Using ScaLAPACK
  Using LibXC
  Using CUDA
  Using i-PI
  Using RLSY
  Linking against: /mpcdf/soft/SLE_15/packages/x86_64/cuda/11.6.2/lib64/libcublas.so
                   /mpcdf/soft/SLE_15/packages/x86_64/cuda/11.6.2/lib64/libcudart.so
                   /mpcdf/soft/SLE_15/packages/x86_64/intel_oneapi/2021.3/mkl/latest/lib/intel64/libmkl_intel_lp64.so
                   /mpcdf/soft/SLE_15/packages/x86_64/intel_oneapi/2021.3/mkl/latest/lib/intel64/libmkl_sequential.so
                   /mpcdf/soft/SLE_15/packages/x86_64/intel_oneapi/2021.3/mkl/latest/lib/intel64/libmkl_core.so
                   /mpcdf/soft/SLE_15/packages/x86_64/intel_oneapi/2021.3/mkl/latest/lib/intel64/libmkl_blacs_intelmpi_lp64.so
                   /mpcdf/soft/SLE_15/packages/x86_64/intel_oneapi/2021.3/mkl/latest/lib/intel64/libmkl_scalapack_lp64.so

  Using       18 parallel tasks.
  Task        0 on host adag028 reporting.
  Task        1 on host adag028 reporting.
  Task        2 on host adag028 reporting.
  Task        3 on host adag028 reporting.
  Task        4 on host adag028 reporting.
  Task        5 on host adag028 reporting.
  Task        6 on host adag028 reporting.
  Task        7 on host adag028 reporting.
  Task        8 on host adag028 reporting.
  Task        9 on host adag028 reporting.
  Task       10 on host adag028 reporting.
  Task       11 on host adag028 reporting.
  Task       12 on host adag028 reporting.
  Task       13 on host adag028 reporting.
  Task       14 on host adag028 reporting.
  Task       15 on host adag028 reporting.
  Task       16 on host adag028 reporting.
  Task       17 on host adag028 reporting.

  Obtaining array dimensions for all initial allocations:
  
  -----------------------------------------------------------------------
  Parsing control.in (first pass over file, find array dimensions only).
  The contents of control.in will be repeated verbatim below
  unless switched off by setting 'verbatim_writeout .false.' .
  in the first line of control.in .
  -----------------------------------------------------------------------
  
  #
  # Input for polarizability replays on generic oligoacene molecular crystals (light settings,  LDA+MBD).
  #
  #########################################################################################
  #
  #  Physical model
  #
    xc                 pw-lda
    spin               none
    relativistic       none
    charge             0.0
    k_grid 	     2 1 1
    DFPT dielectric
  #
  #  GPU acceleration
  #
  # Turns on GPU acceleration everywhere
    use_gpu
  
  # Turns OFF GPU acceleration of ELPA - may be necessary if GPU ELPA is slow
    elsi_elpa_gpu 0
  #
  #  Relaxation
  #
  #  relax_geometry trm 1E-3
  #  relax_unit_cell fixed_angles
  #
  #  SCF convergence        #
    charge_mix_param   0.75
    #sc_accuracy_rho 1E-4
  #
  # i-PI communication
  #
  compute_forces .false.
  # use_pimd_wrapper 130.183.223.27 26118
  #communicate_pimd_wrapper polarizability
  #output_level MD_light
  #
  # Output SALTED info
    ri_density_restart write
    ri_rho1 write
    ri_full_output .true.
  #  sc_accuracy_rho    1d-6
    default_prodbas_acc 1e-6
    default_max_l_prodbas 6
  #
  #
  ################################################################################
  #
  #  FHI-aims code project
  #  VB, Fritz-Haber Institut, 2009
  #
  #  Suggested "light" defaults for H atom (to be pasted into control.in file)
  #  Be sure to double-check any results obtained with these settings for post-processing,
  #  e.g., with the "tight" defaults and larger basis sets.
  #
  ################################################################################
    species        H
  #     global species definitions
      nucleus             1
      mass                1.00794
  #
      l_hartree           4
  #
      cut_pot             3.5  1.5  1.0
      basis_dep_cutoff    1e-4
  #
      radial_base         24 5.0
      radial_multiplier   1
      angular_grids       specified
        division   0.2421   50
        division   0.3822  110
        division   0.4799  194
        division   0.5341  302
  #      division   0.5626  434
  #      division   0.5922  590
  #      division   0.6542  770
  #      division   0.6868 1202
  #      outer_grid  770
        outer_grid  302
  ################################################################################
  #
  #  Definition of "minimal" basis
  #
  ################################################################################
  #     valence basis states
      valence      1  s   1.
  #     ion occupancy
      ion_occ      1  s   0.5
  ################################################################################
  #
  #  Suggested additional basis functions. For production calculations,
  #  uncomment them one after another (the most important basis functions are
  #  listed first).
  #
  #  Basis constructed for dimers: 0.5 A, 0.7 A, 1.0 A, 1.5 A, 2.5 A
  #
  ################################################################################
  #  "First tier" - improvements: -1014.90 meV to -62.69 meV
       hydro 2 s 2.1
       hydro 2 p 3.5
  #  "Second tier" - improvements: -12.89 meV to -1.83 meV
  #     hydro 1 s 0.85
  #     hydro 2 p 3.7
  #     hydro 2 s 1.2
  #     hydro 3 d 7
  #  "Third tier" - improvements: -0.25 meV to -0.12 meV
  #     hydro 4 f 11.2
  #     hydro 3 p 4.8
  #     hydro 4 d 9
  #     hydro 3 s 3.2
  ################################################################################
  ################################################################################
  #
  #  FHI-aims code project
  #  VB, Fritz-Haber Institut, 2009
  #
  #  Suggested "light" defaults for C atom (to be pasted into control.in file)
  #  Be sure to double-check any results obtained with these settings for post-processing,
  #  e.g., with the "tight" defaults and larger basis sets.
  #
  ################################################################################
    species        C
  #     global species definitions
      nucleus             6
      mass                12.0107
  #
      l_hartree           4
  #
      cut_pot             3.5  1.5  1.0
      basis_dep_cutoff    1e-4
  #
      radial_base         34 5.0
      radial_multiplier   1
      angular_grids specified
        division   0.3326   50
        division   0.5710  110
        division   0.7727  194
        division   0.8772  302
  #      division   0.9334  434
  #      division   0.9625  590
  #      division   0.9924  770
  #      division   1.0230  974
  #      division   1.4589 1202
  #     outer_grid  974
       outer_grid 302
  ################################################################################
  #
  #  Definition of "minimal" basis
  #
  ################################################################################
  #     valence basis states
      valence      2  s   2.
      valence      2  p   2.
  #     ion occupancy
      ion_occ      2  s   1.
      ion_occ      2  p   1.
  ################################################################################
  #
  #  Suggested additional basis functions. For production calculations,
  #  uncomment them one after another (the most important basis functions are
  #  listed first).
  #
  #  Constructed for dimers: 1.0 A, 1.25 A, 1.5 A, 2.0 A, 3.0 A
  #
  ################################################################################
  #  "First tier" - improvements: -1214.57 meV to -155.61 meV
       hydro 2 p 1.7
       hydro 3 d 6
       hydro 2 s 4.9
  #  "Second tier" - improvements: -67.75 meV to -5.23 meV
  #     hydro 4 f 9.8
  #     hydro 3 p 5.2
  #     hydro 3 s 4.3
  #     hydro 5 g 14.4
  #     hydro 3 d 6.2
  #  "Third tier" - improvements: -2.43 meV to -0.60 meV
  #     hydro 2 p 5.6
  #     hydro 2 s 1.4
  #     hydro 3 d 4.9
  #     hydro 4 f 11.2
  #  "Fourth tier" - improvements: -0.39 meV to -0.18 meV
  #     hydro 2 p 2.1
  #     hydro 5 g 16.4
  #     hydro 4 d 13.2
  #     hydro 3 s 13.6
  #     hydro 4 f 17.6
  #  Further basis functions - improvements: -0.08 meV and below
  #     hydro 3 s 2
  #     hydro 3 p 6
  #     hydro 4 d 20
  
  -----------------------------------------------------------------------
  Completed first pass over input file control.in .
  -----------------------------------------------------------------------
  
  
  -----------------------------------------------------------------------
  Parsing geometry.in (first pass over file, find array dimensions only).
  The contents of geometry.in will be repeated verbatim below
  unless switched off by setting 'verbatim_writeout .false.' .
  in the first line of geometry.in .
  -----------------------------------------------------------------------
  
  #=======================================================
  # FHI-aims file: /ada/ptmp/mpsd/alewis/naphthalene/qmdata/data/geoms/307.in
  # Created using the Atomic Simulation Environment (ASE)
  # Thu Jan 19 15:19:17 2023
  #=======================================================
  lattice_vector 8.1020000000000003 0.0000000000000000 0.0000000000000000
  lattice_vector 0.0000000000000000 11.8800000000000008 0.0000000000000000
  lattice_vector -9.7850918486534706 0.0000000000000000 14.2571119625755713
  atom -0.8637580000000000 0.0318318000000000 2.3682799999999999 C
  atom 0.0450478000000000 3.0969699999999998 4.8765799999999997 C
  atom 4.2199799999999996 5.7727500000000003 4.8696299999999999 C
  atom 3.3708300000000002 2.8469699999999998 2.4082200000000000 C
  atom -0.0349614000000000 0.8533830000000000 1.6648300000000000 C
  atom -0.7399740000000000 3.9285800000000002 5.6225899999999998 C
  atom 3.4471099999999999 4.9567699999999997 5.6676700000000002 C
  atom 4.1342499999999998 1.9707399999999999 1.6450000000000000 C
  atom 0.3632450000000000 0.5401100000000000 0.3566470000000000 C
  atom -1.1091200000000001 3.5891899999999999 6.9685800000000002 C
  atom 3.0799099999999999 5.3299599999999998 6.9833100000000004 C
  atom 4.4728800000000000 2.3300999999999998 0.3230130000000000 C
  atom -3.8627400000000001 1.4445200000000000 6.4539499999999999 C
  atom 3.1945000000000001 4.4851099999999997 0.6146370000000000 C
  atom 7.3578900000000003 4.5414700000000003 0.6936610000000000 C
  atom 0.2119150000000000 1.4781000000000000 6.7104999999999997 C
  atom -3.6069700000000000 1.0793800000000000 5.1590499999999997 C
  atom 2.8948499999999999 4.0689900000000003 1.9198700000000000 C
  atom 7.0118200000000002 4.9873700000000003 1.9529500000000000 C
  atom 0.5676920000000000 1.8747600000000000 5.4349699999999999 C
  atom -1.1320399999999999 0.3311490000000000 3.3940199999999998 H
  atom 0.2318080000000000 3.3957500000000000 3.8519999999999999 H
  atom 4.5207100000000002 5.4301100000000000 3.8941499999999998 H
  atom 3.1134800000000000 2.5569700000000002 3.4339499999999998 H
  atom 0.3180470000000000 1.7588900000000001 2.1515399999999998 H
  atom -1.1457700000000000 4.8529600000000004 5.2399399999999998 H
  atom 3.1403699999999999 3.9697800000000001 5.3610699999999998 H
  atom 4.4998600000000000 1.0103599999999999 2.0537500000000000 H
  atom -3.4072100000000001 2.3534299999999999 6.8594999999999997 H
  atom 2.9361899999999999 5.4737099999999996 0.2456110000000000 H
  atom 6.9639800000000003 3.6154199999999999 0.3373760000000000 H
  atom 0.6042640000000000 0.5476320000000000 7.1608900000000002 H
  atom -2.9055800000000001 1.6357200000000001 4.5789499999999999 H
  atom 2.2614000000000001 4.6639999999999997 2.5576500000000002 H
  atom 6.4337799999999996 4.2789000000000001 2.5601099999999999 H
  atom 1.2278400000000000 1.2261700000000000 4.8477300000000003 H
  atom -5.6778300000000002 0.2154890000000000 9.4861799999999992 C
  atom -4.6604700000000001 3.1570900000000002 11.9733000000000001 C
  atom -0.5494580000000000 5.7314699999999998 11.9697999999999993 C
  atom -1.5776800000000000 2.8926300000000000 9.6875599999999995 C
  atom -4.9009499999999999 0.9949050000000000 8.6581700000000001 C
  atom -5.4262699999999997 4.0079000000000002 12.7517999999999994 C
  atom -1.2512099999999999 4.9064800000000002 12.7911000000000001 C
  atom -0.8923200000000000 2.0112000000000001 8.8413500000000003 C
  atom -4.5933200000000003 0.6090700000000000 7.3373200000000001 C
  atom -5.7897999999999996 3.6108600000000002 14.0650999999999993 C
  atom -1.6421100000000000 5.3708999999999998 14.1059000000000001 C
  atom -0.6221520000000000 2.3223300000000000 7.4997999999999996 C
  atom -8.5827899999999993 1.4125500000000000 13.8765999999999998 C
  atom -1.8671300000000000 4.4123599999999996 7.8351300000000004 C
  atom 2.2976000000000001 4.4774700000000003 7.7812599999999996 C
  atom -4.5453700000000001 1.4608800000000000 13.7453000000000003 C
  atom -8.1738999999999997 1.0978600000000001 12.6105999999999998 C
  atom -2.0731600000000001 4.0831499999999998 9.1707599999999996 C
  atom 1.9945500000000000 4.8586600000000004 9.0516600000000000 C
  atom -4.2029300000000003 1.9009799999999999 12.4597999999999995 C
  atom -5.9239699999999997 0.5069370000000000 10.5121000000000002 H
  atom -4.4025100000000004 3.4256500000000001 10.9476999999999993 H
  atom -0.2891460000000000 5.3899200000000000 10.9702000000000002 H
  atom -1.7370399999999999 2.6045199999999999 10.7315000000000005 H
  atom -4.5974300000000001 1.9943700000000000 9.0024899999999999 H
  atom -5.7700199999999997 4.9730499999999997 12.4108000000000001 H
  atom -1.5770400000000000 3.9050799999999999 12.4510000000000005 H
  atom -0.4396690000000000 1.1117100000000000 9.3076200000000000 H
  atom -8.2414400000000008 2.3031999999999999 14.4259000000000004 H
  atom -2.1856300000000002 5.4026899999999998 7.4694900000000004 H
  atom 1.9646200000000000 3.5189599999999999 7.3586999999999998 H
  atom -4.3374199999999998 0.4482970000000000 14.1028000000000002 H
  atom -7.4212600000000002 1.7664000000000000 12.1532000000000000 H
  atom -2.6153900000000001 4.7662599999999999 9.8505599999999998 H
  atom 1.3970300000000000 4.2347700000000001 9.7200299999999995 H
  atom -3.6559699999999999 1.2617799999999999 11.7949999999999999 H
  atom -0.7715970000000000 6.2777399999999997 2.4049600000000000 C
  atom 0.0415076000000000 9.0641900000000000 4.8420899999999998 C
  atom 4.1242599999999996 11.6739999999999995 4.7390699999999999 C
  atom 3.1152199999999999 8.5916099999999993 2.3074900000000000 C
  atom -0.0567432000000000 7.1059500000000000 1.5786400000000000 C
  atom -0.6649400000000000 9.9539600000000004 5.6269299999999998 C
  atom 3.4226800000000002 10.8262000000000000 5.5713499999999998 C
  atom 3.8879299999999999 7.7590000000000003 1.5398099999999999 C
  atom 0.3958190000000000 6.6790900000000004 0.2980150000000000 C
  atom -0.9800510000000000 9.6090300000000006 6.9524699999999999 C
  atom 3.0758899999999998 11.2280999999999995 6.8913599999999997 C
  atom 4.3074599999999998 8.1698500000000003 0.2412790000000000 C
  atom -3.8586800000000001 7.4655699999999996 6.6252899999999997 C
  atom 3.0686900000000001 10.2672000000000008 0.5927150000000000 C
  atom 7.2421300000000004 10.3438999999999997 0.4890180000000000 C
  atom 0.1981400000000000 7.4641299999999999 6.6471700000000000 C
  atom -3.4740099999999998 7.0721600000000002 5.3648999999999996 C
  atom 2.6558099999999998 9.8489599999999999 1.8360700000000001 C
  atom 6.8370400000000000 10.6544000000000008 1.7559300000000000 C
  atom 0.5106510000000000 7.8209799999999996 5.3456500000000000 C
  atom -1.1107000000000000 6.6755199999999997 3.3611599999999999 H
  atom 0.1804710000000000 9.2879000000000005 3.7662700000000000 H
  atom 4.3525900000000002 11.2675000000000001 3.7342100000000000 H
  atom 2.8240300000000000 8.2431400000000004 3.3065400000000000 H
  atom 0.1306390000000000 8.1543899999999994 1.8701800000000000 H
  atom -1.0029699999999999 10.9107000000000003 5.2042000000000002 H
  atom 3.0983999999999998 9.8522599999999994 5.2889600000000003 H
  atom 4.2626600000000003 6.7999099999999997 1.9472700000000001 H
  atom -3.5398100000000001 8.4506599999999992 6.9894400000000001 H
  atom 2.7078700000000002 11.2257999999999996 0.1807340000000000 H
  atom 6.8977500000000003 9.4086300000000005 0.0154919000000000 H
  atom 0.4966860000000000 6.5071399999999997 7.0595999999999997 H
  atom -2.9247800000000002 7.7304700000000004 4.6985999999999999 H
  atom 1.9440200000000001 10.3734999999999999 2.4428299999999998 H
  atom 6.1748799999999999 9.9960000000000004 2.3595600000000001 H
  atom 1.1030000000000000 7.1200299999999999 4.7175099999999999 H
  atom -5.6861100000000002 6.1016500000000002 9.5779800000000002 C
  atom -4.7811199999999996 9.0388599999999997 11.9361999999999995 C
  atom -0.5058990000000000 11.8088999999999995 11.9330999999999996 C
  atom -1.7603000000000000 8.8313799999999993 9.5717700000000008 C
  atom -4.9720500000000003 6.9800599999999999 8.7962399999999992 C
  atom -5.5456099999999999 9.8310899999999997 12.7357999999999993 C
  atom -1.3618399999999999 10.9335000000000004 12.6410000000000000 C
  atom -0.9797210000000000 7.9967400000000000 8.7749400000000009 C
  atom -4.6047900000000004 6.6066399999999996 7.4811500000000004 C
  atom -5.8713800000000003 9.4672499999999999 14.0546000000000006 C
  atom -1.7189500000000000 11.2111000000000001 13.9954999999999998 C
  atom -0.5807280000000000 8.3465399999999992 7.4564899999999996 C
  atom -8.6250400000000003 7.4754899999999997 13.6738000000000000 C
  atom -1.7838700000000001 10.4860000000000007 7.7833100000000002 C
  atom 2.2663500000000001 10.4126999999999992 7.7328799999999998 C
  atom -4.6470200000000004 7.3608000000000002 13.6592000000000002 C
  atom -8.3010599999999997 7.0077100000000003 12.4076000000000004 C
  atom -2.1355000000000000 10.1014999999999997 9.0594099999999997 C
  atom 1.9209499999999999 10.8778000000000006 8.9986700000000006 C
  atom -4.2976700000000001 7.7881999999999998 12.3797999999999995 C
  atom -5.9523799999999998 6.4012500000000001 10.6095000000000006 H
  atom -4.6041800000000004 9.3934099999999994 10.9117999999999995 H
  atom -0.1908360000000000 11.5363000000000007 10.9271999999999991 H
  atom -2.0804900000000002 8.5345099999999992 10.5861000000000001 H
  atom -4.7073700000000001 7.9589100000000004 9.1733399999999996 H
  atom -5.9194500000000003 10.7556999999999992 12.4168000000000003 H
  atom -1.6558400000000000 10.0076999999999998 12.1621000000000006 H
  atom -0.7337290000000000 7.0163500000000001 9.1603300000000001 H
  atom -8.2457799999999999 8.4674600000000009 13.9755000000000003 H
  atom -1.9943299999999999 11.4977999999999998 7.4056800000000003 H
  atom 1.9406099999999999 9.4149499999999993 7.4241599999999996 H
  atom -4.2591500000000000 6.4234499999999999 14.0703999999999994 H
  atom -7.7113600000000000 7.6536000000000000 11.7632999999999992 H
  atom -2.7330000000000001 10.7640999999999991 9.6707699999999992 H
  atom 1.2987599999999999 10.2589000000000006 9.6490700000000000 H
  atom -3.6906599999999998 7.1676500000000001 11.7175999999999991 H
  
  -----------------------------------------------------------------------
  Completed first pass over input file geometry.in .
  -----------------------------------------------------------------------
  

  Basic array size parameters:
  | Number of species                 :        2
  | Number of atoms                   :      144
  | Number of lattice vectors         :        3
  | Max. basis fn. angular momentum   :        2
  | Max. atomic/ionic basis occupied n:        2
  | Max. number of basis fn. types    :        2
  | Max. radial fns per species/type  :        3
  | Max. logarithmic grid size        :     1277
  | Max. radial integration grid size :       34
  | Max. angular integration grid size:      302
  | Max. angular grid division number :        8
  | Radial grid for Hartree potential :     1277
  | Number of spin channels           :        1

------------------------------------------------------------
          Reading file control.in.
------------------------------------------------------------
  XC: Using Perdew-Wang parametrisation of Ceperley-Alder LDA.
  Spin treatment: No spin polarisation.
  Non-relativistic treatment of kinetic energy.
  Charge =   0.000000E+00: Neutral system requested explicitly.
  Found k-point grid:         2         1         1
  DFPT calculation will begin after the DFT/HF calculation.
  Charge density mixing - mixing parameter:     0.7500
  Forces will not be computed.
 
  Reading configuration options for species H                   .
  | Found nuclear charge :   1.0000
  | Found atomic mass :    1.00794000000000      amu
  | Found l_max for Hartree potential  :   4
  | Found cutoff potl. onset [A], width [A], scale factor :    3.50000    1.50000    1.00000
  | Threshold for basis-dependent cutoff potential is   0.100000E-03
  | Found data for basic radial integration grid :    24 points, outermost radius =    5.000 A
  | Found multiplier for basic radial grid :   1
  | Found angular grid specification: user-specified.
  | Specified grid contains     5 separate shells.
  | Check grid settings after all constraints further below.
  | Found free-atom valence shell :  1 s   1.000
  | No ionic wave fns used. Skipping ion_occ.
  | Found hydrogenic basis function :  2 s   2.100
  | Found hydrogenic basis function :  2 p   3.500
  Species H                   : Missing cutoff potential type.
  Defaulting to exp(1/x)/(1-x)^2 type cutoff potential.
  Species H : No 'logarithmic' tag. Using default grid for free atom:
  | Default logarithmic grid data [bohr] : 0.1000E-03 0.1000E+03 0.1012E+01
  Species H : On-site basis accuracy parameter (for Gram-Schmidt orthonormalisation) not specified.
  Using default value basis_acc =  0.1000000E-03.
  Species H                   : Using default innermost maximum threshold i_radial=  2 for radial functions.
  Species H                   : Default cutoff onset for free atom density etc. : 0.35000000E+01 AA.
  Species H                   : Basic radial grid will be enhanced according to radial_multiplier =   1, to contain    24 grid points.
 
  Reading configuration options for species C                   .
  | Found nuclear charge :   6.0000
  | Found atomic mass :    12.0107000000000      amu
  | Found l_max for Hartree potential  :   4
  | Found cutoff potl. onset [A], width [A], scale factor :    3.50000    1.50000    1.00000
  | Threshold for basis-dependent cutoff potential is   0.100000E-03
  | Found data for basic radial integration grid :    34 points, outermost radius =    5.000 A
  | Found multiplier for basic radial grid :   1
  | Found angular grid specification: user-specified.
  | Specified grid contains     5 separate shells.
  | Check grid settings after all constraints further below.
  | Found free-atom valence shell :  2 s   2.000
  | Found free-atom valence shell :  2 p   2.000
  | No ionic wave fns used. Skipping ion_occ.
  | No ionic wave fns used. Skipping ion_occ.
  | Found hydrogenic basis function :  2 p   1.700
  | Found hydrogenic basis function :  3 d   6.000
  | Found hydrogenic basis function :  2 s   4.900
  Species C                   : Missing cutoff potential type.
  Defaulting to exp(1/x)/(1-x)^2 type cutoff potential.
  Species C : No 'logarithmic' tag. Using default grid for free atom:
  | Default logarithmic grid data [bohr] : 0.1000E-03 0.1000E+03 0.1012E+01
  Species C : On-site basis accuracy parameter (for Gram-Schmidt orthonormalisation) not specified.
  Using default value basis_acc =  0.1000000E-03.
  Species C                   : Using default innermost maximum threshold i_radial=  2 for radial functions.
  Species C                   : Default cutoff onset for free atom density etc. : 0.35000000E+01 AA.
  Species C                   : Basic radial grid will be enhanced according to radial_multiplier =   1, to contain    34 grid points.
 
  Finished reading input file 'control.in'.
 
------------------------------------------------------------


------------------------------------------------------------
          Reading geometry description geometry.in.
------------------------------------------------------------
  | The smallest distance between any two atoms is         1.04710124 AA.
  | The first atom of this pair is atom number                    114 .
  | The second atom of this pair is atom number                   134 .
  | Wigner-Seitz cell of the first atom image           0     0     0 .
  | (The Wigner-Seitz cell of the second atom is 0 0 0  by definition.)

  Symmetry information by spglib:
  | Precision set to  0.1E-04
  | Number of Operations  : 1
  | Space group           : 1
  | International         : P1  w
  | Schoenflies           : C1^1
  Input structure read successfully.
  The structure contains      144 atoms,  and a total of        544.000 electrons.

  Input geometry:
  | Unit cell:
  |        8.10200000        0.00000000        0.00000000
  |        0.00000000       11.88000000        0.00000000
  |       -9.78509185        0.00000000       14.25711196
  | Atomic structure:
  |       Atom                x [A]            y [A]            z [A]
  |    1: Species C            -0.86375800        0.03183180        2.36828000
  |    2: Species C             0.04504780        3.09697000        4.87658000
  |    3: Species C             4.21998000        5.77275000        4.86963000
  |    4: Species C             3.37083000        2.84697000        2.40822000
  |    5: Species C            -0.03496140        0.85338300        1.66483000
  |    6: Species C            -0.73997400        3.92858000        5.62259000
  |    7: Species C             3.44711000        4.95677000        5.66767000
  |    8: Species C             4.13425000        1.97074000        1.64500000
  |    9: Species C             0.36324500        0.54011000        0.35664700
  |   10: Species C            -1.10912000        3.58919000        6.96858000
  |   11: Species C             3.07991000        5.32996000        6.98331000
  |   12: Species C             4.47288000        2.33010000        0.32301300
  |   13: Species C            -3.86274000        1.44452000        6.45395000
  |   14: Species C             3.19450000        4.48511000        0.61463700
  |   15: Species C             7.35789000        4.54147000        0.69366100
  |   16: Species C             0.21191500        1.47810000        6.71050000
  |   17: Species C            -3.60697000        1.07938000        5.15905000
  |   18: Species C             2.89485000        4.06899000        1.91987000
  |   19: Species C             7.01182000        4.98737000        1.95295000
  |   20: Species C             0.56769200        1.87476000        5.43497000
  |   21: Species H            -1.13204000        0.33114900        3.39402000
  |   22: Species H             0.23180800        3.39575000        3.85200000
  |   23: Species H             4.52071000        5.43011000        3.89415000
  |   24: Species H             3.11348000        2.55697000        3.43395000
  |   25: Species H             0.31804700        1.75889000        2.15154000
  |   26: Species H            -1.14577000        4.85296000        5.23994000
  |   27: Species H             3.14037000        3.96978000        5.36107000
  |   28: Species H             4.49986000        1.01036000        2.05375000
  |   29: Species H            -3.40721000        2.35343000        6.85950000
  |   30: Species H             2.93619000        5.47371000        0.24561100
  |   31: Species H             6.96398000        3.61542000        0.33737600
  |   32: Species H             0.60426400        0.54763200        7.16089000
  |   33: Species H            -2.90558000        1.63572000        4.57895000
  |   34: Species H             2.26140000        4.66400000        2.55765000
  |   35: Species H             6.43378000        4.27890000        2.56011000
  |   36: Species H             1.22784000        1.22617000        4.84773000
  |   37: Species C            -5.67783000        0.21548900        9.48618000
  |   38: Species C            -4.66047000        3.15709000       11.97330000
  |   39: Species C            -0.54945800        5.73147000       11.96980000
  |   40: Species C            -1.57768000        2.89263000        9.68756000
  |   41: Species C            -4.90095000        0.99490500        8.65817000
  |   42: Species C            -5.42627000        4.00790000       12.75180000
  |   43: Species C            -1.25121000        4.90648000       12.79110000
  |   44: Species C            -0.89232000        2.01120000        8.84135000
  |   45: Species C            -4.59332000        0.60907000        7.33732000
  |   46: Species C            -5.78980000        3.61086000       14.06510000
  |   47: Species C            -1.64211000        5.37090000       14.10590000
  |   48: Species C            -0.62215200        2.32233000        7.49980000
  |   49: Species C            -8.58279000        1.41255000       13.87660000
  |   50: Species C            -1.86713000        4.41236000        7.83513000
  |   51: Species C             2.29760000        4.47747000        7.78126000
  |   52: Species C            -4.54537000        1.46088000       13.74530000
  |   53: Species C            -8.17390000        1.09786000       12.61060000
  |   54: Species C            -2.07316000        4.08315000        9.17076000
  |   55: Species C             1.99455000        4.85866000        9.05166000
  |   56: Species C            -4.20293000        1.90098000       12.45980000
  |   57: Species H            -5.92397000        0.50693700       10.51210000
  |   58: Species H            -4.40251000        3.42565000       10.94770000
  |   59: Species H            -0.28914600        5.38992000       10.97020000
  |   60: Species H            -1.73704000        2.60452000       10.73150000
  |   61: Species H            -4.59743000        1.99437000        9.00249000
  |   62: Species H            -5.77002000        4.97305000       12.41080000
  |   63: Species H            -1.57704000        3.90508000       12.45100000
  |   64: Species H            -0.43966900        1.11171000        9.30762000
  |   65: Species H            -8.24144000        2.30320000       14.42590000
  |   66: Species H            -2.18563000        5.40269000        7.46949000
  |   67: Species H             1.96462000        3.51896000        7.35870000
  |   68: Species H            -4.33742000        0.44829700       14.10280000
  |   69: Species H            -7.42126000        1.76640000       12.15320000
  |   70: Species H            -2.61539000        4.76626000        9.85056000
  |   71: Species H             1.39703000        4.23477000        9.72003000
  |   72: Species H            -3.65597000        1.26178000       11.79500000
  |   73: Species C            -0.77159700        6.27774000        2.40496000
  |   74: Species C             0.04150760        9.06419000        4.84209000
  |   75: Species C             4.12426000       11.67400000        4.73907000
  |   76: Species C             3.11522000        8.59161000        2.30749000
  |   77: Species C            -0.05674320        7.10595000        1.57864000
  |   78: Species C            -0.66494000        9.95396000        5.62693000
  |   79: Species C             3.42268000       10.82620000        5.57135000
  |   80: Species C             3.88793000        7.75900000        1.53981000
  |   81: Species C             0.39581900        6.67909000        0.29801500
  |   82: Species C            -0.98005100        9.60903000        6.95247000
  |   83: Species C             3.07589000       11.22810000        6.89136000
  |   84: Species C             4.30746000        8.16985000        0.24127900
  |   85: Species C            -3.85868000        7.46557000        6.62529000
  |   86: Species C             3.06869000       10.26720000        0.59271500
  |   87: Species C             7.24213000       10.34390000        0.48901800
  |   88: Species C             0.19814000        7.46413000        6.64717000
  |   89: Species C            -3.47401000        7.07216000        5.36490000
  |   90: Species C             2.65581000        9.84896000        1.83607000
  |   91: Species C             6.83704000       10.65440000        1.75593000
  |   92: Species C             0.51065100        7.82098000        5.34565000
  |   93: Species H            -1.11070000        6.67552000        3.36116000
  |   94: Species H             0.18047100        9.28790000        3.76627000
  |   95: Species H             4.35259000       11.26750000        3.73421000
  |   96: Species H             2.82403000        8.24314000        3.30654000
  |   97: Species H             0.13063900        8.15439000        1.87018000
  |   98: Species H            -1.00297000       10.91070000        5.20420000
  |   99: Species H             3.09840000        9.85226000        5.28896000
  |  100: Species H             4.26266000        6.79991000        1.94727000
  |  101: Species H            -3.53981000        8.45066000        6.98944000
  |  102: Species H             2.70787000       11.22580000        0.18073400
  |  103: Species H             6.89775000        9.40863000        0.01549190
  |  104: Species H             0.49668600        6.50714000        7.05960000
  |  105: Species H            -2.92478000        7.73047000        4.69860000
  |  106: Species H             1.94402000       10.37350000        2.44283000
  |  107: Species H             6.17488000        9.99600000        2.35956000
  |  108: Species H             1.10300000        7.12003000        4.71751000
  |  109: Species C            -5.68611000        6.10165000        9.57798000
  |  110: Species C            -4.78112000        9.03886000       11.93620000
  |  111: Species C            -0.50589900       11.80890000       11.93310000
  |  112: Species C            -1.76030000        8.83138000        9.57177000
  |  113: Species C            -4.97205000        6.98006000        8.79624000
  |  114: Species C            -5.54561000        9.83109000       12.73580000
  |  115: Species C            -1.36184000       10.93350000       12.64100000
  |  116: Species C            -0.97972100        7.99674000        8.77494000
  |  117: Species C            -4.60479000        6.60664000        7.48115000
  |  118: Species C            -5.87138000        9.46725000       14.05460000
  |  119: Species C            -1.71895000       11.21110000       13.99550000
  |  120: Species C            -0.58072800        8.34654000        7.45649000
  |  121: Species C            -8.62504000        7.47549000       13.67380000
  |  122: Species C            -1.78387000       10.48600000        7.78331000
  |  123: Species C             2.26635000       10.41270000        7.73288000
  |  124: Species C            -4.64702000        7.36080000       13.65920000
  |  125: Species C            -8.30106000        7.00771000       12.40760000
  |  126: Species C            -2.13550000       10.10150000        9.05941000
  |  127: Species C             1.92095000       10.87780000        8.99867000
  |  128: Species C            -4.29767000        7.78820000       12.37980000
  |  129: Species H            -5.95238000        6.40125000       10.60950000
  |  130: Species H            -4.60418000        9.39341000       10.91180000
  |  131: Species H            -0.19083600       11.53630000       10.92720000
  |  132: Species H            -2.08049000        8.53451000       10.58610000
  |  133: Species H            -4.70737000        7.95891000        9.17334000
  |  134: Species H            -5.91945000       10.75570000       12.41680000
  |  135: Species H            -1.65584000       10.00770000       12.16210000
  |  136: Species H            -0.73372900        7.01635000        9.16033000
  |  137: Species H            -8.24578000        8.46746000       13.97550000
  |  138: Species H            -1.99433000       11.49780000        7.40568000
  |  139: Species H             1.94061000        9.41495000        7.42416000
  |  140: Species H            -4.25915000        6.42345000       14.07040000
  |  141: Species H            -7.71136000        7.65360000       11.76330000
  |  142: Species H            -2.73300000       10.76410000        9.67077000
  |  143: Species H             1.29876000       10.25890000        9.64907000
  |  144: Species H            -3.69066000        7.16765000       11.71760000

  Lattice parameters for 3D lattice (in Angstroms) :     8.102000   11.880000   17.292000
  Angle(s) between unit vectors (in degrees)       :    90.000000  124.463000   90.000000


  Quantities derived from the lattice vectors (in Angstrom^-1):
  | Reciprocal lattice vector 1:  0.775510  0.000000  0.532257
  | Reciprocal lattice vector 2:  0.000000  0.528888  0.000000
  | Reciprocal lattice vector 3: -0.000000  0.000000  0.440705
  | Unit cell volume                               :   0.137227E+04  Angstrom^3

  Fractional coordinates:
                         L1                L2                L3
       atom_frac         0.09400950        0.00267944        0.16611218  C
       atom_frac         0.41866129        0.26068771        0.34204543  C
       atom_frac         0.93336904        0.48592172        0.34155795  C
       atom_frac         0.62005246        0.23964394        0.16891359  C
       atom_frac         0.13671468        0.07183359        0.11677190  C
       atom_frac         0.38496438        0.33068855        0.39437089  C
       atom_frac         0.90557951        0.41723653        0.39753283  C
       atom_frac         0.64962525        0.16588721        0.11538101  C
       atom_frac         0.07504601        0.04546380        0.02501537  C
       atom_frac         0.45342255        0.30212037        0.48877922  C
       atom_frac         0.97170688        0.44864983        0.48981238  C
       atom_frac         0.57943393        0.19613636        0.02265627  C
       atom_frac         0.06995843        0.12159259        0.45268284  C
       atom_frac         0.44635203        0.37753451        0.04311091  C
       atom_frac         0.96691814        0.38227862        0.04865368  C
       atom_frac         0.59461075        0.12441919        0.47067737  C
       atom_frac        -0.00816542        0.09085690        0.36185800  C
       atom_frac         0.51993526        0.34250758        0.13466051  C
       atom_frac         1.03087994        0.41981229        0.13698076  C
       atom_frac         0.53047125        0.15780808        0.38121115  C
       atom_frac         0.14778816        0.02787449        0.23805803  H
       atom_frac         0.35491896        0.28583754        0.27018095  H
       atom_frac         0.88785290        0.45707997        0.27313737  H
       atom_frac         0.67517957        0.21523316        0.24085874  H
       atom_frac         0.22151502        0.14805471        0.15090995  H
       atom_frac         0.30246372        0.40849832        0.36753166  H
       atom_frac         0.84174725        0.33415657        0.37602777  H
       atom_frac         0.72937687        0.08504714        0.14405091  H
       atom_frac         0.16053747        0.19810017        0.48112830  H
       atom_frac         0.38320913        0.46075000        0.01722726  H
       atom_frac         0.88811793        0.30432828        0.02366370  H
       atom_frac         0.68119005        0.04609697        0.50226792  H
       atom_frac         0.02926356        0.13768687        0.32116953  H
       atom_frac         0.49577800        0.39259259        0.17939468  H
       atom_frac         1.01096788        0.36017677        0.17956722  H
       atom_frac         0.56220505        0.10321296        0.34002188  H
       atom_frac         0.10279257        0.01813880        0.66536477  C
       atom_frac         0.43904861        0.26574832        0.83981244  C
       atom_frac         0.94615918        0.48244697        0.83956695  C
       atom_frac         0.62591812        0.24348737        0.67948965  C
       atom_frac         0.12853824        0.08374621        0.60728779  C
       atom_frac         0.41047645        0.33736532        0.89441677  C
       atom_frac         0.92911787        0.41300337        0.89717329  C
       atom_frac         0.63882607        0.16929293        0.62013611  C
       atom_frac         0.05461701        0.05126852        0.51464280  C
       atom_frac         0.47685857        0.30394444        0.98653220  C
       atom_frac         0.99224888        0.45209596        0.98939393  C
       atom_frac         0.55852753        0.19548232        0.52603922  C
       atom_frac         0.11616204        0.11890152        0.97331073  C
       atom_frac         0.43327071        0.37141077        0.54955941  C
       atom_frac         0.94274459        0.37689141        0.54578094  C
       atom_frac         0.60336332        0.12296970        0.96410129  C
       atom_frac         0.05938538        0.09241246        0.88451294  C
       atom_frac         0.52098408        0.34369949        0.64324107  C
       atom_frac         1.01295742        0.40897811        0.63488735  C
       atom_frac         0.53673311        0.16001515        0.87393576  C
       atom_frac         0.15931938        0.04267146        0.73732324  H
       atom_frac         0.38400780        0.28835438        0.76787641  H
       atom_frac         0.89361117        0.45369697        0.76945457  H
       atom_frac         0.69468237        0.21923569        0.75271205  H
       atom_frac         0.19516837        0.16787626        0.63143854  H
       atom_frac         0.33916212        0.41860690        0.87049888  H
       atom_frac         0.86009158        0.32871044        0.87331853  H
       atom_frac         0.73419343        0.09357828        0.65284049  H
       atom_frac         0.20482550        0.19387205        1.01183887  H
       atom_frac         0.36298560        0.45477189        0.52391326  H
       atom_frac         0.86585051        0.29620875        0.51614240  H
       atom_frac         0.65931410        0.03773544        0.98917649  H
       atom_frac         0.11353403        0.14868687        0.85243070  H
       atom_frac         0.51164534        0.40120034        0.69092254  H
       atom_frac         0.99582619        0.35646212        0.68176711  H
       atom_frac         0.54792633        0.10621044        0.82730640  H
       atom_frac         0.10849180        0.52842929        0.16868493  C
       atom_frac         0.41530264        0.76297896        0.33962629  C
       atom_frac         0.91049477        0.98265993        0.33240042  C
       atom_frac         0.57997049        0.72319949        0.16184835  C
       atom_frac         0.12672497        0.59814394        0.11072649  C
       atom_frac         0.39459320        0.83787542        0.39467530  C
       atom_frac         0.89440482        0.91129630        0.39077690  C
       atom_frac         0.61031211        0.65311448        0.10800294  C
       atom_frac         0.07409970        0.56221296        0.02090290  C
       atom_frac         0.46798836        0.80884091        0.48764925  C
       atom_frac         0.96342151        0.94512626        0.48336297  C
       atom_frac         0.55209296        0.68769781        0.01692341  C
       atom_frac         0.08497397        0.62841498        0.46470071  C
       atom_frac         0.42896673        0.86424242        0.04157329  C
       atom_frac         0.93529474        0.87069865        0.03429993  C
       atom_frac         0.58754579        0.62829377        0.46623538  C
       atom_frac         0.02568315        0.59529966        0.37629641  C
       atom_frac         0.48333263        0.82903704        0.12878274  C
       atom_frac         0.99261768        0.89683502        0.12316169  C
       atom_frac         0.51586448        0.65833165        0.37494620  C
       atom_frac         0.14763847        0.56191246        0.23575322  H
       atom_frac         0.34132032        0.78180976        0.26416781  H
       atom_frac         0.85355375        0.94844276        0.26191910  H
       atom_frac         0.62866076        0.69386700        0.23192215  H
       atom_frac         0.17454958        0.68639646        0.13117523  H
       atom_frac         0.31706141        0.91840909        0.36502484  H
       atom_frac         0.83045852        0.82931481        0.37096994  H
       atom_frac         0.69108010        0.57238300        0.13658236  H
       atom_frac         0.15517852        0.71133502        0.49024234  H
       atom_frac         0.34953262        0.94493266        0.01267676  H
       atom_frac         0.85267620        0.79197222        0.00108661  H
       atom_frac         0.65933169        0.54773906        0.49516340  H
       atom_frac         0.03702948        0.65071296        0.32956184  H
       atom_frac         0.44687841        0.87319024        0.17134115  H
       atom_frac         0.96202397        0.84141414        0.16550056  H
       atom_frac         0.53576541        0.59932912        0.33088819  H
       atom_frac         0.10954709        0.51360690        0.67180366  C
       atom_frac         0.42101444        0.76084680        0.83721023  C
       atom_frac         0.94842661        0.99401515        0.83699280  C
       atom_frac         0.59356929        0.74338215        0.67136809  C
       atom_frac         0.13145871        0.58754714        0.61697208  C
       atom_frac         0.39439138        0.82753283        0.89329452  C
       atom_frac         0.90274806        0.92032828        0.88664521  C
       atom_frac         0.62241281        0.67312626        0.61547809  C
       atom_frac         0.06538533        0.55611448        0.52473110  C
       atom_frac         0.46589999        0.79690657        0.98579572  C
       atom_frac         0.97341268        0.94369529        0.98165042  C
       atom_frac         0.55997150        0.70257071        0.52300143  C
       atom_frac         0.09376784        0.62925000        0.95908625  C
       atom_frac         0.43915745        0.88265993        0.54592473  C
       atom_frac         0.93478918        0.87648990        0.54238755  C
       atom_frac         0.58352340        0.61959596        0.95806220  C
       atom_frac         0.02649411        0.58987458        0.87027443  C
       atom_frac         0.50385708        0.85029461        0.63543094  C
       atom_frac         0.99938439        0.91563973        0.63117061  C
       atom_frac         0.51826281        0.65557239        0.86832453  C
       atom_frac         0.16406372        0.53882576        0.74415492  H
       atom_frac         0.35607529        0.79069108        0.76535837  H
       atom_frac         0.90210262        0.97106902        0.76643853  H
       atom_frac         0.63997459        0.71839310        0.74251363  H
       atom_frac         0.19607180        0.66994192        0.64342204  H
       atom_frac         0.32122679        0.90536195        0.87091972  H
       atom_frac         0.82589251        0.84239899        0.85305495  H
       atom_frac         0.68542157        0.59060185        0.64250951  H
       atom_frac         0.16613589        0.71274916        0.98024762  H
       atom_frac         0.38119163        0.96782828        0.51943760  H
       atom_frac         0.86843224        0.79250421        0.52073379  H
       atom_frac         0.66623003        0.54069444        0.98690394  H
       atom_frac         0.04469914        0.64424242        0.82508295  H
       atom_frac         0.48189893        0.90606902        0.67831199  H
       atom_frac         0.97768597        0.86354377        0.67678994  H
       atom_frac         0.53708802        0.60333754        0.82187753  H

 
  Finished reading input file 'geometry.in'.
 

 
  Consistency checks for stacksize environment parameter are next.
 
  | Maximum stacksize for task 0: unlimited
  | Maximum stacksize for task 1: unlimited
  | Maximum stacksize for task 2: unlimited
  | Maximum stacksize for task 3: unlimited
  | Maximum stacksize for task 4: unlimited
  | Maximum stacksize for task 5: unlimited
  | Maximum stacksize for task 6: unlimited
  | Maximum stacksize for task 7: unlimited
  | Maximum stacksize for task 8: unlimited
  | Maximum stacksize for task 9: unlimited
  | Maximum stacksize for task 10: unlimited
  | Maximum stacksize for task 11: unlimited
  | Maximum stacksize for task 12: unlimited
  | Maximum stacksize for task 13: unlimited
  | Maximum stacksize for task 14: unlimited
  | Maximum stacksize for task 15: unlimited
  | Maximum stacksize for task 16: unlimited
  | Maximum stacksize for task 17: unlimited
  | Current stacksize for task 0: unlimited
  | Current stacksize for task 1: unlimited
  | Current stacksize for task 2: unlimited
  | Current stacksize for task 3: unlimited
  | Current stacksize for task 4: unlimited
  | Current stacksize for task 5: unlimited
  | Current stacksize for task 6: unlimited
  | Current stacksize for task 7: unlimited
  | Current stacksize for task 8: unlimited
  | Current stacksize for task 9: unlimited
  | Current stacksize for task 10: unlimited
  | Current stacksize for task 11: unlimited
  | Current stacksize for task 12: unlimited
  | Current stacksize for task 13: unlimited
  | Current stacksize for task 14: unlimited
  | Current stacksize for task 15: unlimited
  | Current stacksize for task 16: unlimited
  | Current stacksize for task 17: unlimited
 
  Consistency checks for the contents of control.in are next.
 
  MPI_IN_PLACE appears to work with this MPI implementation.
  | Keeping use_mpi_in_place .true. (see manual).
  Explicit treatment of the Coulomb operator is needed, but the RI method is not specified.
  Coulomb operator: Defaulting to 'LVL fast' resolution of identity - RI_type = LVL_fast
  Species H: Using default value for prodbas_acc =   1.000000E-06.
  Species H: Using default value max_l_prodbas =     6.
  Species C: Using default value for prodbas_acc =   1.000000E-06.
  Species C: Using default value max_l_prodbas =     6.
  Target number of points in a grid batch is not set.  Since GPU acceleration is enabled, defaulting to  200
  Method for grid partitioning is not set. Defaulting to parallel hash+maxmin partitioning.
  Batch size limit is not set. Defaulting to    200
  By default, will store active basis functions for each batch.
  If in need of memory, prune_basis_once .false. can be used to disable this option.
  communication_type for Hartree potential was not specified.
  Defaulting to calc_hartree .
  Defaulting to Pulay charge density mixer.
  Pulay mixer: Number of relevant iterations not set.
  Defaulting to    8 iterations.
  Pulay mixer: Number of initial linear mixing iterations not set.
  Defaulting to    0 iterations.
  Work space size for distributed Hartree potential not set.
  Defaulting to   0.200000E+03 MB.
  Algorithm-dependent basis array size parameters:
  | n_max_pulay                         :        8
  Maximum number of self-consistency iterations not provided.
  Presetting  1000 iterations.
  Presetting      1001 iterations before the initial mixing cycle
  is restarted anyway using the sc_init_iter criterion / keyword.
  Presetting a factor      1.000 between actual scf density residual
  and density convergence criterion sc_accuracy_rho below which sc_init_iter
  takes no effect.
 * No s.c.f. convergence criteria (sc_accuracy_*) were provided in control.in.
 * The run will proceed with a reasonable default guess, but please check whether.
 * the s.c.f. cycles seem to take too much or too little time.
  Geometry relaxation not requested: no relaxation will be performed.
 * Notice: The s.c.f. convergence criterion sc_accuracy_rho was not provided.
 * We used to stop in this case, and ask the user to provide reasonable
 * scf convergence criteria. However, this led some users to employ criteria
 * that led to extremely long run times, e.g., for simple relaxation.
 * We now preset a default value for sc_accuracy_rho if it is not set.
 * You may still wish to check if this setting is too tight or too loose for your needs.
 * Based on n_atoms and forces and force-correction status, FHI-aims chose sc_accuracy_rho =  0.391918E-04 .
  No accuracy limit for integral partition fn. given. Defaulting to  0.1000E-14.
  No threshold value for u(r) in integrations given. Defaulting to  0.1000E-05.
  No occupation type (smearing scheme) given. Defaulting to Gaussian broadening, width =  0.1000E-01 eV.
  The width will be adjusted in iteration number     2 of the first full s.c.f. cycle only.
  S.C.F. convergence parameters will be adjusted in iteration number     2 of the first full s.c.f. cycle only.
  No accuracy for occupation numbers given. Defaulting to  0.1000E-12.
  No threshold value for occupation numbers given. Defaulting to  0.0000E+00.
  No accuracy for fermi level given. Defaulting to  0.1000E-19.
  Maximum # of iterations to find E_F not set. Defaulting to  200.
  Preferred method for the eigenvalue solver ('KS_method') not specified in 'control.in'.
  Calling BLACS routine to test compilation state
  Since ScaLAPACK support is enabled, defaulting to ELPA (via ELSI).
  Will not use alltoall communication since running on < 1024 CPUs.
  Threshold for basis singularities not set.
  Default threshold for basis singularities:  0.1000E-04
  partition_type (choice of integration weights) for integrals was not specified.
  | Using a version of the partition function of Stratmann and coworkers ('stratmann_sparse').
  | At each grid point, the set of atoms used to build the partition table is smoothly restricted to
  | only those atoms whose free-atom density would be non-zero at that grid point.
  Partitioning for Hartree potential was not defined. Using partition_type for integrals.
  | Adjusted default value of keyword multip_moments_threshold to:       0.10000000E-11
  | This value may affect high angular momentum components of the Hartree potential in periodic systems.
  Angular momentum expansion for Kerker preconditioner not set explicitly.
  | Using default value of   0
  No explicit requirement for turning off preconditioner.
  | By default, it will be turned off when the charge convergence reaches
  | sc_accuracy_rho  =   0.391918E-04
  No special mixing parameter while Kerker preconditioner is on.
  Using default: charge_mix_param =     0.7500.
  Threshold for auxiliary basis singularities not set.
  Default threshold for auxiliary basis singularities:  0.1000E-04
  No q(lm)/r^(l+1) cutoff set for long-range Hartree potential.
  | Using default value of  0.100000E-09 .
  | Verify using the multipole_threshold keyword.
  Defaulting to new monopole extrapolation.
  Density update method: automatic selection selected.
  Using density matrix based charge density update.
  Using density matrix based charge density update.
  Using packed matrix style: index .
  Defaulting to use time-reversal symmetry for k-point grid.
  Charge integration errors on the 3D integration grid will be compensated
  by explicit normalization and distribution of residual charges.
  Use the "compensate_multipole_errors" flag to change this behaviour.
  Default to 1D ("use_logsbt") integrations for auxiliary 2-center integrals.
  Default onset of logarithmic r-grid for SBT is -38.000000000000
  Default onset of logarithmic k-grid for SBT is -25.000000000000
  Default range of logarithmic r- and k-grid for SBT is  45.000000000000
  Default number of logarithmic r- and k-grid for SBT is   4096
  Default of use_2d_corr is to use the efficient 2D distribution where possible
 
  Consistency checks for the contents of geometry.in are next.
 

  Range separation radius for Ewald summation (hartree_convergence_parameter):      2.91768261 bohr.
  Number of empty states per atom not set in control.in .
  | Since you are using a method that relies on the unoccupied spectrum
  | (MP2,GW,RPA et al.), will use the full Hamiltonian size (see below)
  | as the max. possible number of states (occupied plus empty).

  Structure-dependent array size parameters: 
  | Maximum number of distinct radial functions  :        9
  | Maximum number of basis functions            :     1440
  | Number of Kohn-Sham states (occupied + empty):     1440
------------------------------------------------------------

  Performing system and environment tests:
  | Environment variable OMP_NUM_THREADS correctly set to 1.
  | Checking for ScaLAPACK...
  | Testing pdtran()...
  | All pdtran() tests passed.
CUDA runtime version: 11060
CUDA driver version: 11060
  Initializing GPUs...

  Number of GPUs available to MPI task         0 :   1
  Number of GPUs available to MPI task         1 :   1
  Number of GPUs available to MPI task         2 :   1
  Number of GPUs available to MPI task         3 :   1
  Number of GPUs available to MPI task         4 :   1
  Number of GPUs available to MPI task         5 :   1
  Number of GPUs available to MPI task         6 :   1
  Number of GPUs available to MPI task         7 :   1
  Number of GPUs available to MPI task         8 :   1
  Number of GPUs available to MPI task         9 :   1
  Number of GPUs available to MPI task        10 :   1
  Number of GPUs available to MPI task        11 :   1
  Number of GPUs available to MPI task        12 :   1
  Number of GPUs available to MPI task        13 :   1
  Number of GPUs available to MPI task        14 :   1
  Number of GPUs available to MPI task        15 :   1
  Number of GPUs available to MPI task        16 :   1
  Number of GPUs available to MPI task        17 :   1

  | MPI task         0, GPU activated = T, Device Name = NVIDIA A100-SXM4-80GB
  | MPI task         1, GPU activated = T, Device Name = NVIDIA A100-SXM4-80GB
  | MPI task         2, GPU activated = T, Device Name = NVIDIA A100-SXM4-80GB
  | MPI task         3, GPU activated = T, Device Name = NVIDIA A100-SXM4-80GB
  | MPI task         4, GPU activated = T, Device Name = NVIDIA A100-SXM4-80GB
  | MPI task         5, GPU activated = T, Device Name = NVIDIA A100-SXM4-80GB
  | MPI task         6, GPU activated = T, Device Name = NVIDIA A100-SXM4-80GB
  | MPI task         7, GPU activated = T, Device Name = NVIDIA A100-SXM4-80GB
  | MPI task         8, GPU activated = T, Device Name = NVIDIA A100-SXM4-80GB
  | MPI task         9, GPU activated = T, Device Name = NVIDIA A100-SXM4-80GB
  | MPI task        10, GPU activated = T, Device Name = NVIDIA A100-SXM4-80GB
  | MPI task        11, GPU activated = T, Device Name = NVIDIA A100-SXM4-80GB
  | MPI task        12, GPU activated = T, Device Name = NVIDIA A100-SXM4-80GB
  | MPI task        13, GPU activated = T, Device Name = NVIDIA A100-SXM4-80GB
  | MPI task        14, GPU activated = T, Device Name = NVIDIA A100-SXM4-80GB
  | MPI task        15, GPU activated = T, Device Name = NVIDIA A100-SXM4-80GB
  | MPI task        16, GPU activated = T, Device Name = NVIDIA A100-SXM4-80GB
  | MPI task        17, GPU activated = T, Device Name = NVIDIA A100-SXM4-80GB

------------------------------------------------------------
          Preparing all fixed parts of the calculation.
------------------------------------------------------------
  Determining machine precision:
    2.225073858507201E-308
  Setting up grids for atomic and cluster calculations.

  Creating wave function, potential, and density for free atoms.
  Runtime choices for atomic solver:
  | atomic solver xc        : PW-LDA
  | compute density gradient: 0
  | compute kinetic density : F

  Species: H

  List of occupied orbitals and eigenvalues:
    n    l              occ      energy [Ha]    energy [eV]
    1    0           1.0000        -0.232375        -6.3233


  Species: C

  List of occupied orbitals and eigenvalues:
    n    l              occ      energy [Ha]    energy [eV]
    1    0           2.0000        -9.944615      -270.6068
    2    0           2.0000        -0.498807       -13.5732
    2    1           2.0000        -0.196968        -5.3598


  Adding cutoff potential to free-atom effective potential.
  Creating fixed part of basis set: Ionic, confined, hydrogenic.
 
  H                    hydrogenic:
 
  List of hydrogenic basis orbitals: 
    n    l      effective z      eigenvalue [eV]  inner max. [A]     outer max. [A]     outer radius [A]   
    2    0         2.100000       -14.9728           0.193243           1.317208           4.583499
    2    1         3.500000       -41.6669           0.602369           0.602369           3.723403
 
 
  C                    hydrogenic:
 
  List of hydrogenic basis orbitals: 
    n    l      effective z      eigenvalue [eV]  inner max. [A]     outer max. [A]     outer radius [A]   
    2    1         1.700000        -9.7616           1.230570           1.230570           4.607917
    3    2         6.000000       -54.4224           0.792453           0.792453           3.883070
    2    0         4.900000       -81.6679           0.082559           0.562749           3.078220
 
  Creating atomic-like basis functions for current effective potential.

  Species H                   :

  List of atomic basis orbitals and eigenvalues:
    n    l      energy [Ha]    energy [eV]    outer radius [A]
    1    0        -0.232375        -6.3233       4.527807


  Species C                   :

  List of atomic basis orbitals and eigenvalues:
    n    l      energy [Ha]    energy [eV]    outer radius [A]
    1    0        -9.944615      -270.6068       1.934409
    2    0        -0.498807       -13.5732       4.496620
    2    1        -0.196968        -5.3598       4.551928

  Assembling full basis from fixed parts.
  | Species H :   atomic orbital   1 s accepted.
  | Species H :    hydro orbital   2 s accepted.
  | Species H :    hydro orbital   2 p accepted.
  | Species C :   atomic orbital   1 s accepted.
  | Species C :    hydro orbital   2 s accepted.
  | Species C :   atomic orbital   2 s accepted.
  | Species C :   atomic orbital   2 p accepted.
  | Species C :    hydro orbital   2 p accepted.
  | Species C :    hydro orbital   3 d accepted.
 
  Basis size parameters after reduction:
  | Total number of radial functions:        9
  | Total number of basis functions :     1440
 
  Per-task memory consumption for arrays in subroutine allocate_ext:
  |           2.242384MB.
  Testing on-site integration grid accuracy.
  |  Species  Function  <phi|h_atom|phi> (log., in eV)  <phi|h_atom|phi> (rad., in eV)
           1        1                 -6.3245358373                 -6.3232436907
           1        2                 14.1326137532                 14.1384481100
           1        3                 25.3627025200                 25.3628451197
           2        4               -270.6067544938               -270.6067222788
           2        5                -10.5634280949                -10.5635685736
           2        6                 16.2089822398                 16.2052121796
           2        7                 -5.3613872565                 -5.3627872378
           2        8                  8.5292058327                  8.5051734780
           2        9                 27.4884461005                 27.4884542459

  Preparing densities etc. for the partition functions (integrals / Hartree potential).

  Preparations completed.
  max(cpu_time)          :      0.090 s.
  Wall clock time (cpu1) :      0.073 s.
------------------------------------------------------------

  Initializing index lists of integration centers etc. from given atomic structure:
  Mapping all atomic coordinates to central unit cell.

  Initializing the k-points
  Using symmetry for reducing the k-points
  | k-points reduced from:        2 to        2
  | Number of k-points                             :         2
  | Consuming          0 KiB for k_phase_exx.
  The eigenvectors in the calculations are REAL.
  | Number of basis functions in the Hamiltonian integrals :      8022
  | Number of basis functions in a single unit cell        :      1440
  | Number of centers in hartree potential         :      3317
  | Number of centers in hartree multipole         :      2550
  | Number of centers in electron density summation:      1990
  | Number of centers in basis integrals           :      2118
  | Number of centers in integrals                 :       967
  | Number of centers in hamiltonian               :      2001
  | Consuming          1 KiB for k_phase.
  | Number of super-cells (origin) [n_cells]                     :         175
  | Number of super-cells (after PM_index) [n_cells]             :          40
  | Number of super-cells in hamiltonian [n_cells_in_hamiltonian]:          40
  | Size of matrix packed + index [n_hamiltonian_matrix_size] :     1931014
  | Size of matrix packed + index (no_symmetry):     3859211

------------------------------------------------------------
          Begin self-consistency loop: Initialization.

          Date     :  20230125, Time     :  173420.314
------------------------------------------------------------
  | Estimated reciprocal-space cutoff momentum G_max:         3.24344278 bohr^-1 .
  | Reciprocal lattice points for long-range Hartree potential:    5310
  Using simple linear distribution as default method for k-point parallelism.
  * Using 18 tasks for Scalapack Eigenvalue solver.
  Detailed listing of tasks and assigned k-points:
   Task     0 k-point     1 on adag028
   Task     1 k-point     1 on adag028
   Task     2 k-point     1 on adag028
   Task     3 k-point     1 on adag028
   Task     4 k-point     1 on adag028
   Task     5 k-point     1 on adag028
   Task     6 k-point     1 on adag028
   Task     7 k-point     1 on adag028
   Task     8 k-point     1 on adag028
   Task     9 k-point     2 on adag028
   Task    10 k-point     2 on adag028
   Task    11 k-point     2 on adag028
   Task    12 k-point     2 on adag028
   Task    13 k-point     2 on adag028
   Task    14 k-point     2 on adag028
   Task    15 k-point     2 on adag028
   Task    16 k-point     2 on adag028
   Task    17 k-point     2 on adag028
  K-point:     1 Tasks:     9 split into      3 X      3 BLACS grid
  Calculating block size based on n_basis =         1440  max_nprow =            3  max_npcol =            3
  ScaLAPACK block size set to:           16
  Allocating        1.758 MB for ovlp
  Allocating        1.758 MB for ham
  Allocating        1.758 MB for eigenvec
  Required Scalapack workspace - INTEGER:            1  REAL:             1
  Partitioning the integration grid into batches with parallel hashing+maxmin method.
  | Number of batches:     5488
  | Maximal batch size:     200
  | Minimal batch size:      99
  | Average batch size:     139.184
  | Standard deviation of batch sizes:      31.762

  Integration load balanced across    18 MPI tasks.
  Work distribution over tasks is as follows:
  Task     0 has      42506 integration points.
  Task     1 has      42454 integration points.
  Task     2 has      42353 integration points.
  Task     3 has      42528 integration points.
  Task     4 has      42433 integration points.
  Task     5 has      42442 integration points.
  Task     6 has      42382 integration points.
  Task     7 has      42442 integration points.
  Task     8 has      42433 integration points.
  Task     9 has      42428 integration points.
  Task    10 has      42540 integration points.
  Task    11 has      42455 integration points.
  Task    12 has      42357 integration points.
  Task    13 has      42444 integration points.
  Task    14 has      42424 integration points.
  Task    15 has      42411 integration points.
  Task    16 has      42387 integration points.
  Task    17 has      42421 integration points.
  Initializing partition tables, free-atom densities, potentials, etc. across the integration grid (initialize_grid_storage).
  | initialize_grid_storage: Actual outermost partition radius vs. multipole_radius_free
  | (-- VB: in principle, multipole_radius_free should be larger, hence this output)
  | Species        1: Confinement radius =              4.999999999999999 AA, multipole_radius_free =              5.054417573612229 AA.
  | Species        1: outer_partition_radius set to              5.054417573612229 AA .
  | Species        2: Confinement radius =              4.999999999999999 AA, multipole_radius_free =              5.019602836301480 AA.
  | Species        2: outer_partition_radius set to              5.019602836301480 AA .
  | The sparse table of interatomic distances needs       7614.84 kbyte instead of     35887.39 kbyte of memory.
  | Net number of integration points:   763840
  | of which are non-zero points    :   605375
  | Numerical average free-atom electrostatic potential    :     -8.61470022 eV
  Renormalizing the initial density to the exact electron count on the 3D integration grid.
  | Initial density: Formal number of electrons (from input files) :     544.0000000000
  | Integrated number of electrons on 3D grid     :     543.9980443438
  | Charge integration error                      :      -0.0019556562
  | Normalization factor for density and gradient :       1.0000035950
  Renormalizing the free-atom superposition density to the exact electron count on the 3D integration grid.
  | Formal number of electrons (from input files) :     544.0000000000
  | Integrated number of electrons on 3D grid     :     543.9980443438
  | Charge integration error                      :      -0.0019556562
  | Normalization factor for density and gradient :       1.0000035950
  Obtaining max. number of non-zero basis functions in each batch (get_n_compute_maxes).
  | Maximal number of non-zero basis functions:      562 in task     0
  | Maximal number of non-zero basis functions:      539 in task     1
  | Maximal number of non-zero basis functions:      545 in task     2
  | Maximal number of non-zero basis functions:      538 in task     3
  | Maximal number of non-zero basis functions:      547 in task     4
  | Maximal number of non-zero basis functions:      542 in task     5
  | Maximal number of non-zero basis functions:      540 in task     6
  | Maximal number of non-zero basis functions:      533 in task     7
  | Maximal number of non-zero basis functions:      531 in task     8
  | Maximal number of non-zero basis functions:      544 in task     9
  | Maximal number of non-zero basis functions:      531 in task    10
  | Maximal number of non-zero basis functions:      533 in task    11
  | Maximal number of non-zero basis functions:      538 in task    12
  | Maximal number of non-zero basis functions:      538 in task    13
  | Maximal number of non-zero basis functions:      553 in task    14
  | Maximal number of non-zero basis functions:      535 in task    15
  | Maximal number of non-zero basis functions:      543 in task    16
  | Maximal number of non-zero basis functions:      548 in task    17
  Integrating Hamiltonian matrix: batch-based integration.
  GPU acceleration will be used when integrating the Hamiltonian matrix.
  Reporting GPU memory usage by myid 0.  Note that it is likely not the only MPI task binding to its GPU!
  Allocating        2.527 MB on GPU for hamiltonian_shell
  Allocating        0.899 MB on GPU for wave
  Allocating        0.002 MB on GPU for partition
  Allocating        0.899 MB on GPU for h_times_psi
  Time summed over all CPUs for integration: real work       35.718 s, elapsed       37.053 s
  Deallocating memory used on GPU for Hamiltonian integration.
  Integrating overlap matrix.
  Time summed over all CPUs for integration: real work       27.254 s, elapsed       27.929 s
  Deallocating overlap matrix.

  Updating Kohn-Sham eigenvalues and eigenvectors using ELSI and the ELPA eigensolver.
  Singularity check in k-point 1 (analysis for other k-points may follow below):
  Overlap matrix is not singular
  | Lowest and highest eigenvalues :  0.7704E-03,  0.8258E+01
  Finished singularity check of overlap matrix
  | Time :     0.167 s
  Starting ELPA eigensolver
  Finished Cholesky decomposition
  | Time :     0.018 s
  Finished transformation to standard eigenproblem
  | Time :     0.027 s
  Finished solving standard eigenproblem
  | Time :     0.233 s
  Finished back-transformation of eigenvectors
  | Time :     0.022 s

  Obtaining occupation numbers and electronic chemical potential using ELSI.
  | Note that, for insulating systems, the printed 'chemical potential' value is not uniquely defined.
  | It can be anywhere in the energy gap, as long as it correctly separates occupied and unoccupied states.
  | In systems with a gap, the physically relevant chemical potential is the VBM or HOMO.

  | Chemical potential (Fermi level):    -7.72593384 eV
  Writing Kohn-Sham eigenvalues.
  K-point:       1 at    0.000000    0.000000    0.000000 (in units of recip. lattice)

  State    Occupation    Eigenvalue [Ha]    Eigenvalue [eV]
      1       2.00000         -10.075714         -274.17412
      2       2.00000         -10.071567         -274.06129
      3       2.00000         -10.071557         -274.06100
      4       2.00000         -10.069931         -274.01677
      5       2.00000         -10.068346         -273.97364
      6       2.00000         -10.067728         -273.95681
      7       2.00000         -10.067662         -273.95501
      8       2.00000         -10.067444         -273.94908
      9       2.00000         -10.067425         -273.94856
     10       2.00000         -10.067349         -273.94649
     11       2.00000         -10.067251         -273.94385
     12       2.00000         -10.067192         -273.94223
     13       2.00000         -10.066528         -273.92416
     14       2.00000         -10.066390         -273.92042
     15       2.00000         -10.066132         -273.91340
     16       2.00000         -10.065706         -273.90179
     17       2.00000         -10.065702         -273.90168
     18       2.00000         -10.065552         -273.89759
     19       2.00000         -10.065514         -273.89657
     20       2.00000         -10.065487         -273.89584
     21       2.00000         -10.065278         -273.89016
     22       2.00000         -10.065183         -273.88757
     23       2.00000         -10.064949         -273.88121
     24       2.00000         -10.064882         -273.87939
     25       2.00000         -10.064710         -273.87470
     26       2.00000         -10.064650         -273.87305
     27       2.00000         -10.064599         -273.87167
     28       2.00000         -10.064580         -273.87115
     29       2.00000         -10.064508         -273.86920
     30       2.00000         -10.064499         -273.86896
     31       2.00000         -10.064496         -273.86887
     32       2.00000         -10.064259         -273.86242
     33       2.00000         -10.064150         -273.85946
     34       2.00000         -10.064113         -273.85845
     35       2.00000         -10.063608         -273.84472
     36       2.00000         -10.063221         -273.83416
     37       2.00000         -10.063207         -273.83379
     38       2.00000         -10.062886         -273.82507
     39       2.00000         -10.062878         -273.82484
     40       2.00000         -10.062815         -273.82314
     41       2.00000         -10.062812         -273.82305
     42       2.00000         -10.062796         -273.82262
     43       2.00000         -10.062663         -273.81898
     44       2.00000         -10.062544         -273.81576
     45       2.00000         -10.062506         -273.81471
     46       2.00000         -10.062192         -273.80618
     47       2.00000         -10.062080         -273.80313
     48       2.00000         -10.062001         -273.80097
     49       2.00000         -10.061706         -273.79296
     50       2.00000         -10.061488         -273.78702
     51       2.00000         -10.061392         -273.78442
     52       2.00000         -10.061334         -273.78282
     53       2.00000         -10.061116         -273.77690
     54       2.00000         -10.061092         -273.77623
     55       2.00000         -10.061018         -273.77424
     56       2.00000         -10.060818         -273.76879
     57       2.00000         -10.060657         -273.76440
     58       2.00000         -10.060369         -273.75656
     59       2.00000         -10.060349         -273.75603
     60       2.00000         -10.060066         -273.74833
     61       2.00000         -10.060043         -273.74770
     62       2.00000         -10.059729         -273.73915
     63       2.00000         -10.059698         -273.73832
     64       2.00000         -10.059673         -273.73764
     65       2.00000         -10.059060         -273.72096
     66       2.00000         -10.059034         -273.72025
     67       2.00000         -10.059020         -273.71985
     68       2.00000         -10.058852         -273.71530
     69       2.00000         -10.058772         -273.71312
     70       2.00000         -10.058544         -273.70690
     71       2.00000         -10.058277         -273.69964
[...]
  | charge radius: extent of product basis function
  | field radius: extent of its Coulomb potential
  | Species   l  charge radius    field radius  multipol momen
  |    H      1     3.910002 A      3.910002 A       -2.487223E-16 a.u.
  |    H      1     3.958095 A      3.958095 A       -2.441841E-16 a.u.
  |    H      0     4.527807 A      4.527807 A        1.268855E-16 a.u.
  |    H      0     4.527807 A      4.583499 A       -4.900954E-17 a.u.
  |    H      0     4.527807 A      4.583499 A        4.713786E-16 a.u.
  |    H      2     3.678162 A  1.011968E+04 A            0.556529 a.u.
  |    H      1     3.958095 A  1.721251E+06 A            0.841931 a.u.
  |    H      0     4.527807 A  3.866455E+12 A            0.581436 a.u.
  |    C      0     2.562483 A      2.562483 A        6.563029E-17 a.u.
  |    C      0     2.967371 A      2.967371 A        1.352164E-16 a.u.
  |    C      0     3.003870 A      3.003870 A        2.312640E-17 a.u.
  |    C      1     3.272245 A      3.272245 A       -3.835259E-17 a.u.
  |    C      0     3.312494 A      3.312494 A       -2.710381E-16 a.u.
  |    C      3     4.077671 A      4.077671 A       -1.683752E-15 a.u.
  |    C      3     4.077671 A      4.077671 A        1.412852E-15 a.u.
  |    C      1     4.496620 A      4.496620 A       -3.011059E-16 a.u.
  |    C      0     4.496620 A      4.551928 A        2.873903E-17 a.u.
  |    C      2     4.551928 A      4.551928 A       -4.610785E-16 a.u.
  |    C      2     4.551928 A      4.551928 A        7.440584E-16 a.u.
  |    C      2     4.551928 A      4.551928 A       -7.110458E-16 a.u.
  |    C      2     4.551928 A      4.551928 A       -1.935424E-16 a.u.
  |    C      0     4.551928 A      4.607917 A        2.067142E-16 a.u.
  |    C      0     4.551928 A      4.607917 A       -1.109786E-16 a.u.
  |    C      1     4.551928 A      4.607917 A       -9.951742E-17 a.u.
  |    C      1     4.551928 A      4.607917 A        1.937809E-16 a.u.
  |    C      1     4.607917 A      4.607917 A       -2.813308E-16 a.u.
  |    C      1     4.607917 A      4.607917 A       -7.330363E-17 a.u.
  |    C      2     4.607917 A      4.607917 A        1.318462E-15 a.u.
  |    C      2     4.607917 A      4.607917 A       -1.318397E-15 a.u.
  |    C      0     4.607917 A      4.664595 A        3.157826E-16 a.u.
  |    C      1     4.607917 A      4.664595 A        7.356967E-16 a.u.
  |    C      4     3.835889 A  2.962973E+02 A            4.379483 a.u.
  |    C      3     4.127827 A  1.725964E+03 A            9.005588 a.u.
  |    C      2     4.607917 A  2.608475E+04 A            9.531178 a.u.
  |    C      1     4.607917 A  2.736013E+06 A            2.127278 a.u.
  |    C      0     4.607917 A  4.399765E+12 A            0.661635 a.u.

  | Shrink_full_auxil_basis : there are       36  radial auxiliary wave functions
                            accepted and       7 rejected.
  | Shrink_full_auxil_basis : there are totally                8992 partial auxiliary wave functions.
 
  | Maximal number of product basis functions per thread :   512   512
 
  | Minimal total memory requirement for three-center overlap :      72.476 Gbs
  | Number of local auxiliary basis functions on task:      0   512
  | Number of local auxiliary basis functions on task:      1   512
  | Number of local auxiliary basis functions on task:      2   512
  | Number of local auxiliary basis functions on task:      3   512
  | Number of local auxiliary basis functions on task:      4   496
  | Number of local auxiliary basis functions on task:      5   496
  | Number of local auxiliary basis functions on task:      6   496
  | Number of local auxiliary basis functions on task:      7   496
  | Number of local auxiliary basis functions on task:      8   496
  | Number of local auxiliary basis functions on task:      9   496
  | Number of local auxiliary basis functions on task:     10   496
  | Number of local auxiliary basis functions on task:     11   496
  | Number of local auxiliary basis functions on task:     12   496
  | Number of local auxiliary basis functions on task:     13   496
  | Number of local auxiliary basis functions on task:     14   496
  | Number of local auxiliary basis functions on task:     15   496
  | Number of local auxiliary basis functions on task:     16   496
  | Number of local auxiliary basis functions on task:     17   496
  | 2D aux task distribution:      3 X      6
  | 2D block size (nb_aux_2d):     64
 
  Basis pair condensation :   1037520  -->     553354
 
 --------------------------------------------
  Constructing auxiliary basis (full product) ...
 
  Product basis:
  | charge radius: extent of product basis function
  | field radius: extent of its Coulomb potential
  | Species   l  charge radius    field radius  multipol momen
  |    H      1     3.910002 A      3.910002 A       -2.487223E-16 a.u.
  |    H      1     3.958095 A      3.958095 A       -2.441841E-16 a.u.
  |    H      0     4.527807 A      4.527807 A        1.268855E-16 a.u.
  |    H      0     4.527807 A      4.583499 A       -4.900954E-17 a.u.
  |    H      0     4.527807 A      4.583499 A        4.713786E-16 a.u.
  |    H      2     3.678162 A  1.011968E+04 A            0.556529 a.u.
  |    H      1     3.958095 A  1.721251E+06 A            0.841931 a.u.
  |    H      0     4.527807 A  3.866455E+12 A            0.581436 a.u.
  |    C      0     2.562483 A      2.562483 A        6.563029E-17 a.u.
  |    C      0     2.967371 A      2.967371 A        1.352164E-16 a.u.
  |    C      0     3.003870 A      3.003870 A        2.312640E-17 a.u.
  |    C      1     3.272245 A      3.272245 A       -3.835259E-17 a.u.
  |    C      0     3.312494 A      3.312494 A       -2.710381E-16 a.u.
  |    C      3     4.077671 A      4.077671 A       -1.683752E-15 a.u.
  |    C      3     4.077671 A      4.077671 A        1.412852E-15 a.u.
  |    C      1     4.496620 A      4.496620 A       -3.011059E-16 a.u.
  |    C      0     4.496620 A      4.551928 A        2.873903E-17 a.u.
  |    C      2     4.551928 A      4.551928 A       -4.610785E-16 a.u.
  |    C      2     4.551928 A      4.551928 A        7.440584E-16 a.u.
  |    C      2     4.551928 A      4.551928 A       -7.110458E-16 a.u.
  |    C      2     4.551928 A      4.551928 A       -1.935424E-16 a.u.
  |    C      0     4.551928 A      4.607917 A        2.067142E-16 a.u.
  |    C      0     4.551928 A      4.607917 A       -1.109786E-16 a.u.
  |    C      1     4.551928 A      4.607917 A       -9.951742E-17 a.u.
  |    C      1     4.551928 A      4.607917 A        1.937809E-16 a.u.
  |    C      1     4.607917 A      4.607917 A       -2.813308E-16 a.u.
  |    C      1     4.607917 A      4.607917 A       -7.330363E-17 a.u.
  |    C      2     4.607917 A      4.607917 A        1.318462E-15 a.u.
  |    C      2     4.607917 A      4.607917 A       -1.318397E-15 a.u.
  |    C      0     4.607917 A      4.664595 A        3.157826E-16 a.u.
  |    C      1     4.607917 A      4.664595 A        7.356967E-16 a.u.
  |    C      4     3.835889 A  2.962973E+02 A            4.379483 a.u.
  |    C      3     4.127827 A  1.725964E+03 A            9.005588 a.u.
  |    C      2     4.607917 A  2.608475E+04 A            9.531178 a.u.
  |    C      1     4.607917 A  2.736013E+06 A            2.127278 a.u.
  |    C      0     4.607917 A  4.399765E+12 A            0.661635 a.u.

  | Shrink_full_auxil_basis : there are       36  radial auxiliary wave functions
                            accepted and       7 rejected.
  | Shrink_full_auxil_basis : there are totally                8992 partial auxiliary wave functions.
 
  | Maximal number of product basis functions per thread :   512   512
 
  | Minimal total memory requirement for three-center overlap :      72.476 Gbs
  | Number of local auxiliary basis functions on task:      0   512
  | Number of local auxiliary basis functions on task:      1   512
  | Number of local auxiliary basis functions on task:      2   512
  | Number of local auxiliary basis functions on task:      3   512
  | Number of local auxiliary basis functions on task:      4   496
  | Number of local auxiliary basis functions on task:      5   496
  | Number of local auxiliary basis functions on task:      6   496
  | Number of local auxiliary basis functions on task:      7   496
  | Number of local auxiliary basis functions on task:      8   496
  | Number of local auxiliary basis functions on task:      9   496
  | Number of local auxiliary basis functions on task:     10   496
  | Number of local auxiliary basis functions on task:     11   496
  | Number of local auxiliary basis functions on task:     12   496
  | Number of local auxiliary basis functions on task:     13   496
  | Number of local auxiliary basis functions on task:     14   496
  | Number of local auxiliary basis functions on task:     15   496
  | Number of local auxiliary basis functions on task:     16   496
  | Number of local auxiliary basis functions on task:     17   496
  | 2D aux task distribution:      3 X      6
  | 2D block size (nb_aux_2d):     64
 
  Basis pair condensation :   1037520  -->     553354
dP_dE (Bohr^3) at every cycle:--->
 (995.770078847228,0.000000000000000E+000) (-18.0449388837196,0.000000000000000E+000) (-456.454146856820,0.000000000000000E+000)
 (-18.0487481680061,0.000000000000000E+000) (1362.13854266367,0.000000000000000E+000) (4.95201697862170,0.000000000000000E+000)
 (-456.636624268973,0.000000000000000E+000) (4.99502043137387,0.000000000000000E+000) (1701.25499853016,0.000000000000000E+000)
DFPT polarizability (Bohr^3)        xx        yy        zz        xy        xz        yz
  | Polarizability:--->                       995.770078847                 1362.138542664                 1701.254998530                  -18.044938884                 -456.454146857                    4.952016979

DFPT for dielectric_constant:--->  # PARSE DFPT_dielectric_tensor
               2.351238756788131            -0.024486597158837            -0.619398540919829
              -0.024491766276360             2.848392947388851             0.006719781411320
              -0.619646158875799             0.006778136179423             3.308566744498628

                                               :  max(cpu_time)    wall_clock(cpu1)
  | Time for  dielectric calculation            :        0.000 s           0.001 s
===========================================================================

------------------------------------------------------------------------------
  Final output of selected total energy values:

  The following output summarizes some interesting total energy values
  at the end of a run (AFTER all relaxation, molecular dynamics, etc.).

  | Total energy of the DFT / Hartree-Fock s.c.f. calculation      :         -83267.533072091 eV
  | Final zero-broadening corrected energy (caution - metals only) :         -83267.533072091 eV
  | For reference only, the value of 1 Hartree used in FHI-aims is :             27.211384500 eV
  | For reference only, the overall average (free atom contribution
  | + realspace contribution) of the electrostatic potential after
  | s.c.f. convergence is                                          :             -7.699917213 eV

  Before relying on these values, please be sure to understand exactly which
  total energy value is referred to by a given number. Different objects may
  all carry the same name 'total energy'. Definitions:

  Total energy of the DFT / Hartree-Fock s.c.f. calculation:
  | Note that this energy does not include ANY quantities calculated after the
  | s.c.f. cycle, in particular not ANY RPA, MP2, etc. many-body perturbation terms.

  Final zero-broadening corrected energy:
  | For metallic systems only, a broadening of the occupation numbers at the Fermi
  | level can be extrapolated back to zero broadening by an electron-gas inspired
  | formula. For all systems that are not real metals, this value can be
  | meaningless and should be avoided.

------------------------------------------------------------------------------
  Methods described in the following list of references were used in this FHI-aims run.
  If you publish the results, please make sure to cite these reference if they apply.
  FHI-aims is an academic code, and for our developers (often, Ph.D. students
  and postdocs), scientific credit in the community is essential.
  Thank you for helping us!

  For any use of FHI-aims, please cite:

    Volker Blum, Ralf Gehrke, Felix Hanke, Paula Havu, Ville Havu,
    Xinguo Ren, Karsten Reuter, and Matthias Scheffler
    'Ab initio molecular simulations with numeric atom-centered orbitals'
    Computer Physics Communications 180, 2175-2196 (2009)
    http://doi.org/10.1016/j.cpc.2009.06.022


  For Hartree-Fock, hybrid functionals, or many-body perturbation theory used in your run, please cite:

    Xinguo Ren, Patrick Rinke, Volker Blum, Juergen Wieferink, Alex Tkatchenko,
    Andrea Sanfilippo, Karsten Reuter, and Matthias Scheffler,
    'Resolution-of-identity approach to Hartree-Fock, hybrid density functionals,
    RPA, MP2, and GW with numeric atom-centered orbital basis functions'
    New Journal of Physics 14, 053020 (2012).
    http://doi.org/10.1088/1367-2630/14/5/053020


  The provided symmetry information was generated with SPGlib:

    Atsushi Togo, Yusuke Seto, Dimitar Pashov
    SPGlib 1.7.3 obtained from http://spglib.sourceforge.net
    Copyright (C) 2008 Atsushi Togo


  The DFPT (perturbation by an electric field) part of the code was used.
  Here is the corresponding reference:

    Honghui Shang, Nathaniel Raimbault, Mariana Rossi,
    Christian Carbogno, Patrick Rinke and Matthias Scheffler,
    'All-Electron, Real-Space Perturbation Theory for Homogeneous
    Electric Fields: Theory, Implementation, and Application within dft'
    New Journal of Physics, 20(7):073040, 2018


  The ELSI infrastructure was used in your run to solve the Kohn-Sham electronic structure.
  Please check out http://elsi-interchange.org to learn more.
  If scalability is important for your project, please acknowledge ELSI by citing:

    V. W-z. Yu, F. Corsetti, A. Garcia, W. P. Huhn, M. Jacquelin, W. Jia,
    B. Lange, L. Lin, J. Lu, W. Mi, A. Seifitokaldani, A. Vazquez-Mayagoitia,
    C. Yang, H. Yang, and V. Blum
    'ELSI: A unified software interface for Kohn-Sham electronic structure solvers'
    Computer Physics Communications 222, 267-285 (2018).
    http://doi.org/10.1016/j.cpc.2017.09.007


  For the real-space grid partitioning and parallelization used in this calculation, please cite:

    Ville Havu, Volker Blum, Paula Havu, and Matthias Scheffler,
    'Efficient O(N) integration for all-electron electronic structure calculation'
    'using numerically tabulated basis functions'
    Journal of Computational Physics 228, 8367-8379 (2009).
    http://doi.org/10.1016/j.jcp.2009.08.008


  The high-level electronic structure method used in your calculation
  employed our efficient localized resolution of identity for the Coulomb operator.
  Some calculations, especially large-scale hybrid density functional theory,
  are only possible thanks to this development. For this feature, please cite:

    Arvid Ihrig, Juergen Wieferink, Igor Ying Zhang, Matti Ropo, Xinguo Ren,
    Patrick Rinke, Matthias Scheffler, and Volker Blum,
    'Accurate localized resolution of identity approach for linear-scaling
    hybrid density functionals and for many-body perturbation theory'
    New Journal of Physics 117, 093020 (2015).
    http://doi.org/10.1088/1367-2630/17/9/093020

  Of course, there are many other important community references, e.g., those cited in the
  above references. Our list is limited to references that describe implementations in the
  FHI-aims code. The reason is purely practical (length of this list) - please credit others as well.

------------------------------------------------------------
          Leaving FHI-aims.
          Date     :  20230125, Time     :  180158.291

          Computational steps:
          | Number of self-consistency cycles          :           48
          | Number of SCF (re)initializations          :            1
          | Number of coupled perturbed self-consistency cycles          :            0
          | Number of CPSCF (re)initializations          :            0

          Detailed time accounting                     :  max(cpu_time)    wall_clock(cpu1)
          | Total time                                  :     1667.959 s        1701.224 s
          | GPU initialization                          :        3.288 s          35.968 s
          | Preparation time                            :        0.090 s           0.073 s
          | Boundary condition initalization            :        5.736 s           5.737 s
          | Grid partitioning                           :        1.194 s           1.193 s
          | Preloading free-atom quantities on grid     :        3.501 s           3.502 s
          | Free-atom superposition energy              :        0.614 s           0.614 s
          | Total time for integrations                 :       25.203 s          25.438 s
          | Product basis setup: Total time             :        0.000 s           0.000 s
          | Product basis: | 2-center integrations     :(       0.000 s)  (       0.000 s)
          | Product basis: | LVL 3-center & coefficient:(       0.000 s)  (       0.000 s)
          | Total time for solution of K.-S. equations  :        4.138 s           4.222 s
          | Total time for density update               :       18.592 s          18.869 s
          | Total time for mixing & preconditioning     :       11.496 s          11.501 s
          | Total time for Hartree multipole update     :        0.094 s           0.094 s
          | Total time for Hartree multipole sum        :       46.055 s          46.116 s
          | Total time for total energy evaluation      :        0.007 s           0.007 s
          | Total time for DFPT                         :     1544.167 s        1544.817 s
          | Total time first_order_DM                   :        1.908 s           1.910 s
          | Total time first_order_density              :      311.215 s         311.296 s
          | Total time first_order_potential            :      123.903 s         123.937 s
          | Total time first_order_H                    :      659.664 s         659.836 s
          | Total time solving of Sternheimer equations :        1.858 s           1.855 s
          | Total time for dielectric constant          :        0.000 s           0.001 s
          | Total time momentum matrix                  :        0.000 s           0.000 s

          GPU acceleration has been used for charge density update.
          GPU acceleration has been used for real-space Hamiltonian integration.
          Due to GPU usage, wall_clock(cpu1) will give a more reliable estimate for timings.

          Partial memory accounting:
          | Residual value for overall tracked memory usage across tasks:     0.000000 MB (should be 0.000000 MB)
          | Peak values for overall tracked memory usage:
          |   Minimum:      292.559 MB (on task  0 after allocating DFPT_pulay_mixing::pulay_mix::alphas)
          |   Maximum:      292.559 MB (on task  0 after allocating DFPT_pulay_mixing::pulay_mix::alphas)
          |   Average:      292.559 MB
          | Largest tracked array allocation:
          |   Minimum:      103.127 MB (DFPT_pulay_mixing::initialize_pulay_mixing::X_in_diffs on task  0)
          |   Maximum:      103.127 MB (DFPT_pulay_mixing::initialize_pulay_mixing::X_in_diffs on task  0)
          |   Average:      103.127 MB
          Note:  These values currently only include a subset of arrays which are explicitly tracked.
          The "true" memory usage will be greater.

          Have a nice day.
------------------------------------------------------------
