------------------------------------------------------------
          Invoking FHI-aims ...

          When using FHI-aims, please cite the following reference:

            Volker Blum, Ralf Gehrke, Felix Hanke, Paula Havu,
            Ville Havu, Xinguo Ren, Karsten Reuter, and Matthias Scheffler,
            'Ab Initio Molecular Simulations with Numeric Atom-Centered Orbitals',
            Computer Physics Communications 180, 2175-2196 (2009)

          In addition, many other developments in FHI-aims are likely important for
          your particular application. A partial list of references is given at the end of
          this file. Thank you for giving credit to the authors of these developments.

          For any questions about FHI-aims, please visit our slack channel at

            https://fhi-aims.slack.com

          and our main development and support site at

            https://aims-git.rz-berlin.mpg.de .

          The latter site, in particular, has a wiki to collect information, as well
          as an issue tracker to log discussions, suggest improvements, and report issues
          or bugs. https://aims-git.rz-berlin.mpg.de is also the main development site
          of the project and all new and updated code versions can be obtained there.
          Please send an email to aims-coordinators@fhi-berlin.mpg.de and we will add
          you to these sites. They are for you and everyone is welcome there.

------------------------------------------------------------



  Date     :  20230120, Time     :  153237.715
  Time zero on CPU 1             :   0.496101000000000E+00  s.
  Internal wall clock time zero  :           443460757.715  s.

  FHI-aims created a unique identifier for this run for later identification
  aims_uuid : 50142B71-3662-4D2F-A3DC-7004EAF6FE76

  Build configuration of the current instance of FHI-aims
  -------------------------------------------------------
  FHI-aims version      : 220829
  Commit number         : 9895fc21d
  CMake host system     : Linux-5.3.18-150300.59.68-default
  CMake version         : 3.17.0
  Fortran compiler      : /mpcdf/soft/SLE_15/packages/x86_64/intel_oneapi/2021.3/mpi/2021.3.0/bin/mpiifort (Intel) version 20.2.3.20210609
  Fortran compiler flags: -O3 -ip -fp-model precise
  C compiler            : /mpcdf/soft/SLE_15/packages/x86_64/intel/2021.3.0/bin/icc (Intel) version 20.2.3.20210609
  C compiler flags      : -O3 -ip -fp-model precise -std=gnu99
  CUDA compiler         : /mpcdf/soft/SLE_15/packages/x86_64/cuda/11.6.2/bin/nvcc
  CUDA compiler flags   : -O3 -DAdd_ -lcublas
  ELPA2 kernel          : AVX512
  Using MPI
  Using ScaLAPACK
  Using LibXC
  Using CUDA
  Using i-PI
  Using RLSY
  Linking against: /mpcdf/soft/SLE_15/packages/x86_64/cuda/11.6.2/lib64/libcublas.so
                   /mpcdf/soft/SLE_15/packages/x86_64/cuda/11.6.2/lib64/libcudart.so
                   /mpcdf/soft/SLE_15/packages/x86_64/intel_oneapi/2021.3/mkl/latest/lib/intel64/libmkl_intel_lp64.so
                   /mpcdf/soft/SLE_15/packages/x86_64/intel_oneapi/2021.3/mkl/latest/lib/intel64/libmkl_sequential.so
                   /mpcdf/soft/SLE_15/packages/x86_64/intel_oneapi/2021.3/mkl/latest/lib/intel64/libmkl_core.so
                   /mpcdf/soft/SLE_15/packages/x86_64/intel_oneapi/2021.3/mkl/latest/lib/intel64/libmkl_blacs_intelmpi_lp64.so
                   /mpcdf/soft/SLE_15/packages/x86_64/intel_oneapi/2021.3/mkl/latest/lib/intel64/libmkl_scalapack_lp64.so

  Using       18 parallel tasks.
  Task        0 on host adag005 reporting.
  Task        1 on host adag005 reporting.
  Task        2 on host adag005 reporting.
  Task        3 on host adag005 reporting.
  Task        4 on host adag005 reporting.
  Task        5 on host adag005 reporting.
  Task        6 on host adag005 reporting.
  Task        7 on host adag005 reporting.
  Task        8 on host adag005 reporting.
  Task        9 on host adag005 reporting.
  Task       10 on host adag005 reporting.
  Task       11 on host adag005 reporting.
  Task       12 on host adag005 reporting.
  Task       13 on host adag005 reporting.
  Task       14 on host adag005 reporting.
  Task       15 on host adag005 reporting.
  Task       16 on host adag005 reporting.
  Task       17 on host adag005 reporting.

  Performing system and environment tests:
  | Environment variable OMP_NUM_THREADS correctly set to 1.
  | Checking for ScaLAPACK...
  | Testing pdtran()...
  | All pdtran() tests passed.

  Obtaining array dimensions for all initial allocations:
  
  -----------------------------------------------------------------------
  Parsing control.in (first pass over file, find array dimensions only).
  The contents of control.in will be repeated verbatim below
  unless switched off by setting 'verbatim_writeout .false.' .
  in the first line of control.in .
  -----------------------------------------------------------------------
  
  #
  # Input for polarizability replays on generic oligoacene molecular crystals (light settings,  LDA+MBD).
  #
  #########################################################################################
  #
  #  Physical model
  #
    xc                 pw-lda
    spin               none
    relativistic       none
    charge             0.0
    k_grid 	     2 1 1
    DFPT dielectric
  #
  #  GPU acceleration
  #
  # Turns on GPU acceleration everywhere
    use_gpu
  
  # Turns OFF GPU acceleration of ELPA - may be necessary if GPU ELPA is slow
    elsi_elpa_gpu 0
  #
  #  Relaxation
  #
  #  relax_geometry trm 1E-3
  #  relax_unit_cell fixed_angles
  #
  #  SCF convergence        #
    charge_mix_param   0.75
    #sc_accuracy_rho 1E-4
  #
  # i-PI communication
  #
  compute_forces .false.
  # use_pimd_wrapper 130.183.223.27 26118
  #communicate_pimd_wrapper polarizability
  #output_level MD_light
  #
  # Output SALTED info
    ri_density_restart write
    ri_rho1 write
    ri_full_output .true.
  #  sc_accuracy_rho    1d-6
    default_prodbas_acc 1e-6
    default_max_l_prodbas 6
  #
  #
  ################################################################################
  #
  #  FHI-aims code project
  #  VB, Fritz-Haber Institut, 2009
  #
  #  Suggested "light" defaults for H atom (to be pasted into control.in file)
  #  Be sure to double-check any results obtained with these settings for post-processing,
  #  e.g., with the "tight" defaults and larger basis sets.
  #
  ################################################################################
    species        H
  #     global species definitions
      nucleus             1
      mass                1.00794
  #
      l_hartree           4
  #
      cut_pot             3.5  1.5  1.0
      basis_dep_cutoff    1e-4
  #
      radial_base         24 5.0
      radial_multiplier   1
      angular_grids       specified
        division   0.2421   50
        division   0.3822  110
        division   0.4799  194
        division   0.5341  302
  #      division   0.5626  434
  #      division   0.5922  590
  #      division   0.6542  770
  #      division   0.6868 1202
  #      outer_grid  770
        outer_grid  302
  ################################################################################
  #
  #  Definition of "minimal" basis
  #
  ################################################################################
  #     valence basis states
      valence      1  s   1.
  #     ion occupancy
      ion_occ      1  s   0.5
  ################################################################################
  #
  #  Suggested additional basis functions. For production calculations,
  #  uncomment them one after another (the most important basis functions are
  #  listed first).
  #
  #  Basis constructed for dimers: 0.5 A, 0.7 A, 1.0 A, 1.5 A, 2.5 A
  #
  ################################################################################
  #  "First tier" - improvements: -1014.90 meV to -62.69 meV
       hydro 2 s 2.1
       hydro 2 p 3.5
  #  "Second tier" - improvements: -12.89 meV to -1.83 meV
  #     hydro 1 s 0.85
  #     hydro 2 p 3.7
  #     hydro 2 s 1.2
  #     hydro 3 d 7
  #  "Third tier" - improvements: -0.25 meV to -0.12 meV
  #     hydro 4 f 11.2
  #     hydro 3 p 4.8
  #     hydro 4 d 9
  #     hydro 3 s 3.2
  ################################################################################
  ################################################################################
  #
  #  FHI-aims code project
  #  VB, Fritz-Haber Institut, 2009
  #
  #  Suggested "light" defaults for C atom (to be pasted into control.in file)
  #  Be sure to double-check any results obtained with these settings for post-processing,
  #  e.g., with the "tight" defaults and larger basis sets.
  #
  ################################################################################
    species        C
  #     global species definitions
      nucleus             6
      mass                12.0107
  #
      l_hartree           4
  #
      cut_pot             3.5  1.5  1.0
      basis_dep_cutoff    1e-4
  #
      radial_base         34 5.0
      radial_multiplier   1
      angular_grids specified
        division   0.3326   50
        division   0.5710  110
        division   0.7727  194
        division   0.8772  302
  #      division   0.9334  434
  #      division   0.9625  590
  #      division   0.9924  770
  #      division   1.0230  974
  #      division   1.4589 1202
  #     outer_grid  974
       outer_grid 302
  ################################################################################
  #
  #  Definition of "minimal" basis
  #
  ################################################################################
  #     valence basis states
      valence      2  s   2.
      valence      2  p   2.
  #     ion occupancy
      ion_occ      2  s   1.
      ion_occ      2  p   1.
  ################################################################################
  #
  #  Suggested additional basis functions. For production calculations,
  #  uncomment them one after another (the most important basis functions are
  #  listed first).
  #
  #  Constructed for dimers: 1.0 A, 1.25 A, 1.5 A, 2.0 A, 3.0 A
  #
  ################################################################################
  #  "First tier" - improvements: -1214.57 meV to -155.61 meV
       hydro 2 p 1.7
       hydro 3 d 6
       hydro 2 s 4.9
  #  "Second tier" - improvements: -67.75 meV to -5.23 meV
  #     hydro 4 f 9.8
  #     hydro 3 p 5.2
  #     hydro 3 s 4.3
  #     hydro 5 g 14.4
  #     hydro 3 d 6.2
  #  "Third tier" - improvements: -2.43 meV to -0.60 meV
  #     hydro 2 p 5.6
  #     hydro 2 s 1.4
  #     hydro 3 d 4.9
  #     hydro 4 f 11.2
  #  "Fourth tier" - improvements: -0.39 meV to -0.18 meV
  #     hydro 2 p 2.1
  #     hydro 5 g 16.4
  #     hydro 4 d 13.2
  #     hydro 3 s 13.6
  #     hydro 4 f 17.6
  #  Further basis functions - improvements: -0.08 meV and below
  #     hydro 3 s 2
  #     hydro 3 p 6
  #     hydro 4 d 20
  
  -----------------------------------------------------------------------
  Completed first pass over input file control.in .
  -----------------------------------------------------------------------
  
  
  -----------------------------------------------------------------------
  Parsing geometry.in (first pass over file, find array dimensions only).
  The contents of geometry.in will be repeated verbatim below
  unless switched off by setting 'verbatim_writeout .false.' .
  in the first line of geometry.in .
  -----------------------------------------------------------------------
  
  #=======================================================
  # FHI-aims file: /ada/ptmp/mpsd/alewis/naphthalene/qmdata/data/geoms/308.in
  # Created using the Atomic Simulation Environment (ASE)
  # Thu Jan 19 15:19:17 2023
  #=======================================================
  lattice_vector 8.1020000000000003 0.0000000000000000 0.0000000000000000
  lattice_vector 0.0000000000000000 11.8800000000000008 0.0000000000000000
  lattice_vector -9.7850918486534706 0.0000000000000000 14.2571119625755713
  atom -0.8937310000000001 0.1346810000000000 2.3017300000000001 C
  atom 0.0922848000000000 3.0205500000000001 4.8603300000000003 C
  atom 4.1979199999999999 5.8768099999999999 4.8671499999999996 C
  atom 3.3786800000000001 2.6899500000000001 2.4132899999999999 C
  atom 0.0109009000000000 0.9367880000000000 1.6047300000000000 C
  atom -0.6258160000000000 3.9465100000000000 5.6154900000000003 C
  atom 3.3456100000000002 5.0635800000000000 5.5971399999999996 C
  atom 4.2351500000000000 1.9475400000000000 1.5894800000000000 C
  atom 0.3972590000000000 0.5999520000000000 0.2665220000000000 C
  atom -0.9463790000000000 3.6634300000000000 6.9759599999999997 C
  atom 2.9755400000000001 5.3724400000000001 6.9324199999999996 C
  atom 4.5633600000000003 2.3590000000000000 0.2863430000000000 C
  atom -3.7554599999999998 1.4286000000000001 6.6276799999999998 C
  atom 3.2167900000000000 4.3679500000000004 0.6677970000000000 C
  atom 7.2558400000000001 4.4293800000000001 0.5818460000000000 C
  atom 0.2051170000000000 1.4986699999999999 6.7544000000000004 C
  atom -3.5125400000000000 1.0585400000000000 5.3231299999999999 C
  atom 2.9456500000000001 3.9621100000000000 1.9573199999999999 C
  atom 6.9048400000000001 4.7886300000000004 1.8752400000000000 C
  atom 0.4711660000000000 1.7629800000000000 5.4238700000000000 C
  atom -1.2149900000000000 0.4062040000000000 3.3064399999999998 H
  atom 0.3252940000000000 3.2079000000000000 3.8000900000000000 H
  atom 4.5160000000000000 5.5521399999999996 3.8486099999999999 H
  atom 3.1353900000000001 2.3255400000000002 3.4114900000000001 H
  atom 0.3821770000000000 1.9095200000000001 1.9637500000000001 H
  atom -0.9439000000000000 4.9293699999999996 5.2199700000000000 H
  atom 2.9240100000000000 4.1358499999999996 5.1599500000000003 H
  atom 4.6266600000000002 1.0108999999999999 1.9408799999999999 H
  atom -3.3974700000000002 2.4120900000000001 6.9455400000000003 H
  atom 2.8922599999999998 5.3820199999999998 0.3836310000000000 H
  atom 6.8875599999999997 3.4521600000000001 0.1684250000000000 H
  atom 0.5480850000000000 0.5895700000000000 7.2278500000000001 H
  atom -2.9147400000000001 1.6760100000000000 4.6232199999999999 H
  atom 2.3388300000000002 4.6167600000000002 2.6056400000000002 H
  atom 6.3779300000000001 4.1079400000000001 2.5423700000000000 H
  atom 0.9565439999999999 1.0215099999999999 4.7767200000000001 H
  atom -5.5003799999999998 0.0562943000000000 9.6213800000000003 C
  atom -4.7428400000000002 3.1965200000000000 11.8423999999999996 C
  atom -0.7243190000000000 5.8306300000000002 11.9174000000000007 C
  atom -1.6657800000000000 2.9685299999999999 9.6011500000000005 C
  atom -4.8427300000000004 0.9289210000000000 8.7963699999999996 C
  atom -5.4964399999999998 3.9717799999999999 12.6746999999999996 C
  atom -1.3733800000000000 4.9297199999999997 12.7263000000000002 C
  atom -0.8892180000000000 2.0932700000000000 8.8590199999999992 C
  atom -4.5689500000000001 0.6076070000000000 7.4472199999999997 C
  atom -5.7515200000000002 3.6093899999999999 14.0437999999999992 C
  atom -1.8000600000000000 5.3420600000000000 14.0137999999999998 C
  atom -0.5237730000000000 2.4095800000000001 7.5461099999999997 C
  atom -8.4806200000000000 1.4369200000000000 13.7819000000000003 C
  atom -1.7341800000000001 4.5151899999999996 7.7614500000000000 C
  atom 2.1629600000000000 4.4820399999999996 7.7146400000000002 C
  atom -4.4340900000000003 1.5871400000000000 13.6491000000000007 C
  atom -8.0122000000000000 1.0918099999999999 12.5579999999999998 C
  atom -2.0957800000000000 4.1700699999999999 9.0511199999999992 C
  atom 1.7541500000000001 4.8489800000000001 8.9678599999999999 C
  atom -4.1797100000000000 1.9899199999999999 12.3628999999999998 C
  atom -5.7141599999999997 0.2891010000000000 10.6656999999999993 H
  atom -4.5396500000000000 3.5234100000000002 10.8192000000000004 H
  atom -0.3794960000000000 5.5264199999999999 10.9223999999999997 H
  atom -2.0105700000000000 2.6539999999999999 10.5845000000000002 H
  atom -4.4389000000000003 1.8538399999999999 9.1853200000000008 H
  atom -5.9386000000000001 4.9324199999999996 12.3622999999999994 H
  atom -1.5519499999999999 3.9131300000000002 12.4115000000000002 H
  atom -0.4729370000000000 1.1955600000000000 9.2802799999999994 H
  atom -8.2302800000000005 2.3997199999999999 14.2231000000000005 H
  atom -2.1086100000000001 5.4522300000000001 7.3831100000000003 H
  atom 1.9028900000000000 3.5156999999999998 7.2972799999999998 H
  atom -4.0265300000000002 0.6295809999999999 13.9978999999999996 H
  atom -7.3438100000000004 1.7516400000000001 12.0079999999999991 H
  atom -2.7445700000000000 4.8417700000000004 9.5930700000000009 H
  atom 1.0993400000000000 4.1830400000000001 9.5333799999999993 H
  atom -3.4590399999999999 1.3852599999999999 11.7597000000000005 H
  atom -0.7963519999999999 6.0407400000000004 2.3793299999999999 C
  atom 0.1494280000000000 9.0333699999999997 4.7442099999999998 C
  atom 4.0589700000000004 11.7257999999999996 4.7724799999999998 C
  atom 3.1447699999999998 8.5003100000000007 2.4743599999999999 C
  atom -0.0841717000000000 6.9287799999999997 1.5720400000000001 C
  atom -0.6606290000000000 9.8900799999999993 5.4622999999999999 C
  atom 3.2530899999999998 10.9358000000000004 5.5456099999999999 C
  atom 3.8812600000000002 7.6824199999999996 1.6652300000000000 C
  atom 0.2862260000000000 6.6324800000000002 0.2227140000000000 C
  atom -1.0227400000000000 9.5993700000000004 6.8269599999999997 C
  atom 3.0186700000000002 11.2359000000000009 6.9060199999999998 C
  atom 4.3032700000000004 8.1081299999999992 0.3611420000000000 C
  atom -3.7788200000000001 7.3974700000000002 6.7519700000000000 C
  atom 3.1158800000000002 10.2263000000000002 0.7742760000000000 C
  atom 7.0916300000000003 10.4474999999999998 0.4527340000000000 C
  atom 0.2203490000000000 7.4724899999999996 6.6661099999999998 C
  atom -3.4174500000000001 7.0754400000000004 5.4633900000000004 C
  atom 2.8076500000000002 9.7982899999999997 2.0535500000000000 C
  atom 6.6935300000000000 10.8476999999999997 1.6838700000000000 C
  atom 0.5404490000000000 7.8086099999999998 5.3787500000000001 C
  atom -1.0892200000000001 6.2864300000000002 3.4069799999999999 H
  atom 0.4111880000000000 9.2242999999999995 3.7165599999999999 H
  atom 4.2725400000000002 11.4489999999999998 3.7539500000000001 H
  atom 2.7952200000000000 8.1611600000000006 3.4472700000000001 H
  atom 0.1439800000000000 7.9275200000000003 1.9221699999999999 H
  atom -1.0128400000000000 10.8050999999999995 4.9940499999999997 H
  atom 2.8967100000000001 9.9602400000000006 5.1217800000000002 H
  atom 4.1969599999999998 6.6995699999999996 1.9742500000000001 H
  atom -3.4570200000000000 8.2900399999999994 7.2762300000000000 H
  atom 2.8961399999999999 11.2456999999999994 0.5167610000000000 H
  atom 6.7504099999999996 9.5571400000000004 -0.0535913000000000 H
  atom 0.4745690000000000 6.4839099999999998 7.0691400000000000 H
  atom -2.7669999999999999 7.7762500000000001 4.9171300000000002 H
  atom 2.2970600000000001 10.5038999999999998 2.7389100000000002 H
  atom 6.0287800000000002 10.2180999999999997 2.2306800000000000 H
  atom 1.1814899999999999 7.1198199999999998 4.8498999999999999 H
  atom -5.8833399999999996 6.0587499999999999 9.5485799999999994 C
  atom -4.6971900000000000 9.1302299999999992 12.0622000000000007 C
  atom -0.4130580000000000 11.7337000000000007 11.9909999999999997 C
  atom -1.6318100000000000 8.9801699999999993 9.5149399999999993 C
  atom -5.0654599999999999 6.8850600000000002 8.8518299999999996 C
  atom -5.5043899999999999 9.8972400000000000 12.8808000000000007 C
  atom -1.3270299999999999 10.9446999999999992 12.6861999999999995 C
  atom -0.8996740000000000 8.0985899999999997 8.7708200000000005 C
  atom -4.6219700000000001 6.5621900000000002 7.5353800000000000 C
  atom -5.9070600000000004 9.4361200000000007 14.1574000000000009 C
  atom -1.8018099999999999 11.2622999999999998 13.9505999999999997 C
  atom -0.5767440000000000 8.3823399999999992 7.4257400000000002 C
  atom -8.7713500000000000 7.5020199999999999 13.6328999999999994 C
  atom -1.8270500000000001 10.4756000000000000 7.6264200000000004 C
  atom 2.3510700000000000 10.3636999999999997 7.8023300000000004 C
  atom -4.6413399999999996 7.3739499999999998 13.7665000000000006 C
  atom -8.4108300000000007 7.0910700000000002 12.3787000000000003 C
  atom -2.1030300000000000 10.1987000000000005 8.9202200000000005 C
  atom 2.1459700000000002 10.6943999999999999 9.1124500000000008 C
  atom -4.2855100000000004 7.8411299999999997 12.5149000000000008 C
  atom -6.2000299999999999 6.3163600000000004 10.5513999999999992 H
  atom -4.3226500000000003 9.5037599999999998 11.1102000000000007 H
  atom -0.1274050000000000 11.4761000000000006 10.9730000000000008 H
  atom -1.8305400000000001 8.7392800000000008 10.5484000000000009 H
  atom -4.6906200000000000 7.8100500000000004 9.3222400000000007 H
  atom -5.8053900000000001 10.9482999999999997 12.5571999999999999 H
  atom -1.7425800000000000 10.0312999999999999 12.2225999999999999 H
  atom -0.4531830000000000 7.1988799999999999 9.2315299999999993 H
  atom -8.5066000000000006 8.4903800000000000 13.9735999999999994 H
  atom -2.1496900000000001 11.3958999999999993 7.1556499999999996 H
  atom 1.9134899999999999 9.4514399999999998 7.4098300000000004 H
  atom -4.2658399999999999 6.3919199999999998 14.0617999999999999 H
  atom -7.8493899999999996 7.7220199999999997 11.6751000000000005 H
  atom -2.8119200000000002 10.8216000000000001 9.4879700000000007 H
  atom 1.4771700000000001 10.0396999999999998 9.6709899999999998 H
  atom -3.6324200000000002 7.2385000000000002 11.8838000000000008 H
  
  -----------------------------------------------------------------------
  Completed first pass over input file geometry.in .
  -----------------------------------------------------------------------
  

  Basic array size parameters:
  | Number of species                 :        2
  | Number of atoms                   :      144
  | Number of lattice vectors         :        3
  | Max. basis fn. angular momentum   :        2
  | Max. atomic/ionic basis occupied n:        2
  | Max. number of basis fn. types    :        2
  | Max. radial fns per species/type  :        3
  | Max. logarithmic grid size        :     1277
  | Max. radial integration grid size :       34
  | Max. angular integration grid size:      302
  | Max. angular grid division number :        8
  | Radial grid for Hartree potential :     1277
  | Number of spin channels           :        1

------------------------------------------------------------
          Reading file control.in.
------------------------------------------------------------
  XC: Using Perdew-Wang parametrisation of Ceperley-Alder LDA.
  Spin treatment: No spin polarisation.
  Non-relativistic treatment of kinetic energy.
  Charge =   0.000000E+00: Neutral system requested explicitly.
  Found k-point grid:         2         1         1
  DFPT calculation will begin after the DFT/HF calculation.
  Charge density mixing - mixing parameter:     0.7500
  Forces will not be computed.
 
  Reading configuration options for species H                   .
  | Found nuclear charge :   1.0000
  | Found atomic mass :    1.00794000000000      amu
  | Found l_max for Hartree potential  :   4
  | Found cutoff potl. onset [A], width [A], scale factor :    3.50000    1.50000    1.00000
  | Threshold for basis-dependent cutoff potential is   0.100000E-03
  | Found data for basic radial integration grid :    24 points, outermost radius =    5.000 A
  | Found multiplier for basic radial grid :   1
  | Found angular grid specification: user-specified.
  | Specified grid contains     5 separate shells.
  | Check grid settings after all constraints further below.
  | Found free-atom valence shell :  1 s   1.000
  | No ionic wave fns used. Skipping ion_occ.
  | Found hydrogenic basis function :  2 s   2.100
  | Found hydrogenic basis function :  2 p   3.500
  Species H                   : Missing cutoff potential type.
  Defaulting to exp(1/x)/(1-x)^2 type cutoff potential.
  Species H : No 'logarithmic' tag. Using default grid for free atom:
  | Default logarithmic grid data [bohr] : 0.1000E-03 0.1000E+03 0.1012E+01
  Species H : On-site basis accuracy parameter (for Gram-Schmidt orthonormalisation) not specified.
  Using default value basis_acc =  0.1000000E-03.
  Species H                   : Using default innermost maximum threshold i_radial=  2 for radial functions.
  Species H                   : Default cutoff onset for free atom density etc. : 0.35000000E+01 AA.
  Species H                   : Basic radial grid will be enhanced according to radial_multiplier =   1, to contain    24 grid points.
 
  Reading configuration options for species C                   .
  | Found nuclear charge :   6.0000
  | Found atomic mass :    12.0107000000000      amu
  | Found l_max for Hartree potential  :   4
  | Found cutoff potl. onset [A], width [A], scale factor :    3.50000    1.50000    1.00000
  | Threshold for basis-dependent cutoff potential is   0.100000E-03
  | Found data for basic radial integration grid :    34 points, outermost radius =    5.000 A
  | Found multiplier for basic radial grid :   1
  | Found angular grid specification: user-specified.
  | Specified grid contains     5 separate shells.
  | Check grid settings after all constraints further below.
  | Found free-atom valence shell :  2 s   2.000
  | Found free-atom valence shell :  2 p   2.000
  | No ionic wave fns used. Skipping ion_occ.
  | No ionic wave fns used. Skipping ion_occ.
  | Found hydrogenic basis function :  2 p   1.700
  | Found hydrogenic basis function :  3 d   6.000
  | Found hydrogenic basis function :  2 s   4.900
  Species C                   : Missing cutoff potential type.
  Defaulting to exp(1/x)/(1-x)^2 type cutoff potential.
  Species C : No 'logarithmic' tag. Using default grid for free atom:
  | Default logarithmic grid data [bohr] : 0.1000E-03 0.1000E+03 0.1012E+01
  Species C : On-site basis accuracy parameter (for Gram-Schmidt orthonormalisation) not specified.
  Using default value basis_acc =  0.1000000E-03.
  Species C                   : Using default innermost maximum threshold i_radial=  2 for radial functions.
  Species C                   : Default cutoff onset for free atom density etc. : 0.35000000E+01 AA.
  Species C                   : Basic radial grid will be enhanced according to radial_multiplier =   1, to contain    34 grid points.
 
  Finished reading input file 'control.in'.
 
------------------------------------------------------------


------------------------------------------------------------
          Reading geometry description geometry.in.
------------------------------------------------------------
  | The smallest distance between any two atoms is         1.06643795 AA.
  | The first atom of this pair is atom number                     91 .
  | The second atom of this pair is atom number                   107 .
  | Wigner-Seitz cell of the first atom image           0     0     0 .
  | (The Wigner-Seitz cell of the second atom is 0 0 0  by definition.)

  Symmetry information by spglib:
  | Precision set to  0.1E-04
  | Number of Operations  : 1
  | Space group           : 1
  | International         : P1
  | Schoenflies           : C1^1
  Input structure read successfully.
  The structure contains      144 atoms,  and a total of        544.000 electrons.

  Input geometry:
  | Unit cell:
  |        8.10200000        0.00000000        0.00000000
  |        0.00000000       11.88000000        0.00000000
  |       -9.78509185        0.00000000       14.25711196
  | Atomic structure:
  |       Atom                x [A]            y [A]            z [A]
  |    1: Species C            -0.89373100        0.13468100        2.30173000
  |    2: Species C             0.09228480        3.02055000        4.86033000
  |    3: Species C             4.19792000        5.87681000        4.86715000
  |    4: Species C             3.37868000        2.68995000        2.41329000
  |    5: Species C             0.01090090        0.93678800        1.60473000
  |    6: Species C            -0.62581600        3.94651000        5.61549000
  |    7: Species C             3.34561000        5.06358000        5.59714000
  |    8: Species C             4.23515000        1.94754000        1.58948000
  |    9: Species C             0.39725900        0.59995200        0.26652200
  |   10: Species C            -0.94637900        3.66343000        6.97596000
  |   11: Species C             2.97554000        5.37244000        6.93242000
  |   12: Species C             4.56336000        2.35900000        0.28634300
  |   13: Species C            -3.75546000        1.42860000        6.62768000
  |   14: Species C             3.21679000        4.36795000        0.66779700
  |   15: Species C             7.25584000        4.42938000        0.58184600
  |   16: Species C             0.20511700        1.49867000        6.75440000
  |   17: Species C            -3.51254000        1.05854000        5.32313000
  |   18: Species C             2.94565000        3.96211000        1.95732000
  |   19: Species C             6.90484000        4.78863000        1.87524000
  |   20: Species C             0.47116600        1.76298000        5.42387000
  |   21: Species H            -1.21499000        0.40620400        3.30644000
  |   22: Species H             0.32529400        3.20790000        3.80009000
  |   23: Species H             4.51600000        5.55214000        3.84861000
  |   24: Species H             3.13539000        2.32554000        3.41149000
  |   25: Species H             0.38217700        1.90952000        1.96375000
  |   26: Species H            -0.94390000        4.92937000        5.21997000
  |   27: Species H             2.92401000        4.13585000        5.15995000
  |   28: Species H             4.62666000        1.01090000        1.94088000
  |   29: Species H            -3.39747000        2.41209000        6.94554000
  |   30: Species H             2.89226000        5.38202000        0.38363100
  |   31: Species H             6.88756000        3.45216000        0.16842500
  |   32: Species H             0.54808500        0.58957000        7.22785000
  |   33: Species H            -2.91474000        1.67601000        4.62322000
  |   34: Species H             2.33883000        4.61676000        2.60564000
  |   35: Species H             6.37793000        4.10794000        2.54237000
  |   36: Species H             0.95654400        1.02151000        4.77672000
  |   37: Species C            -5.50038000        0.05629430        9.62138000
  |   38: Species C            -4.74284000        3.19652000       11.84240000
  |   39: Species C            -0.72431900        5.83063000       11.91740000
  |   40: Species C            -1.66578000        2.96853000        9.60115000
  |   41: Species C            -4.84273000        0.92892100        8.79637000
  |   42: Species C            -5.49644000        3.97178000       12.67470000
  |   43: Species C            -1.37338000        4.92972000       12.72630000
  |   44: Species C            -0.88921800        2.09327000        8.85902000
  |   45: Species C            -4.56895000        0.60760700        7.44722000
  |   46: Species C            -5.75152000        3.60939000       14.04380000
  |   47: Species C            -1.80006000        5.34206000       14.01380000
  |   48: Species C            -0.52377300        2.40958000        7.54611000
  |   49: Species C            -8.48062000        1.43692000       13.78190000
  |   50: Species C            -1.73418000        4.51519000        7.76145000
  |   51: Species C             2.16296000        4.48204000        7.71464000
  |   52: Species C            -4.43409000        1.58714000       13.64910000
  |   53: Species C            -8.01220000        1.09181000       12.55800000
  |   54: Species C            -2.09578000        4.17007000        9.05112000
  |   55: Species C             1.75415000        4.84898000        8.96786000
  |   56: Species C            -4.17971000        1.98992000       12.36290000
  |   57: Species H            -5.71416000        0.28910100       10.66570000
  |   58: Species H            -4.53965000        3.52341000       10.81920000
  |   59: Species H            -0.37949600        5.52642000       10.92240000
  |   60: Species H            -2.01057000        2.65400000       10.58450000
  |   61: Species H            -4.43890000        1.85384000        9.18532000
  |   62: Species H            -5.93860000        4.93242000       12.36230000
  |   63: Species H            -1.55195000        3.91313000       12.41150000
  |   64: Species H            -0.47293700        1.19556000        9.28028000
  |   65: Species H            -8.23028000        2.39972000       14.22310000
  |   66: Species H            -2.10861000        5.45223000        7.38311000
  |   67: Species H             1.90289000        3.51570000        7.29728000
  |   68: Species H            -4.02653000        0.62958100       13.99790000
  |   69: Species H            -7.34381000        1.75164000       12.00800000
  |   70: Species H            -2.74457000        4.84177000        9.59307000
  |   71: Species H             1.09934000        4.18304000        9.53338000
  |   72: Species H            -3.45904000        1.38526000       11.75970000
  |   73: Species C            -0.79635200        6.04074000        2.37933000
  |   74: Species C             0.14942800        9.03337000        4.74421000
  |   75: Species C             4.05897000       11.72580000        4.77248000
  |   76: Species C             3.14477000        8.50031000        2.47436000
  |   77: Species C            -0.08417170        6.92878000        1.57204000
  |   78: Species C            -0.66062900        9.89008000        5.46230000
  |   79: Species C             3.25309000       10.93580000        5.54561000
  |   80: Species C             3.88126000        7.68242000        1.66523000
  |   81: Species C             0.28622600        6.63248000        0.22271400
  |   82: Species C            -1.02274000        9.59937000        6.82696000
  |   83: Species C             3.01867000       11.23590000        6.90602000
  |   84: Species C             4.30327000        8.10813000        0.36114200
  |   85: Species C            -3.77882000        7.39747000        6.75197000
  |   86: Species C             3.11588000       10.22630000        0.77427600
  |   87: Species C             7.09163000       10.44750000        0.45273400
  |   88: Species C             0.22034900        7.47249000        6.66611000
  |   89: Species C            -3.41745000        7.07544000        5.46339000
  |   90: Species C             2.80765000        9.79829000        2.05355000
  |   91: Species C             6.69353000       10.84770000        1.68387000
  |   92: Species C             0.54044900        7.80861000        5.37875000
  |   93: Species H            -1.08922000        6.28643000        3.40698000
  |   94: Species H             0.41118800        9.22430000        3.71656000
  |   95: Species H             4.27254000       11.44900000        3.75395000
  |   96: Species H             2.79522000        8.16116000        3.44727000
  |   97: Species H             0.14398000        7.92752000        1.92217000
  |   98: Species H            -1.01284000       10.80510000        4.99405000
  |   99: Species H             2.89671000        9.96024000        5.12178000
  |  100: Species H             4.19696000        6.69957000        1.97425000
  |  101: Species H            -3.45702000        8.29004000        7.27623000
  |  102: Species H             2.89614000       11.24570000        0.51676100
  |  103: Species H             6.75041000        9.55714000       -0.05359130
  |  104: Species H             0.47456900        6.48391000        7.06914000
  |  105: Species H            -2.76700000        7.77625000        4.91713000
  |  106: Species H             2.29706000       10.50390000        2.73891000
  |  107: Species H             6.02878000       10.21810000        2.23068000
  |  108: Species H             1.18149000        7.11982000        4.84990000
  |  109: Species C            -5.88334000        6.05875000        9.54858000
  |  110: Species C            -4.69719000        9.13023000       12.06220000
  |  111: Species C            -0.41305800       11.73370000       11.99100000
  |  112: Species C            -1.63181000        8.98017000        9.51494000
  |  113: Species C            -5.06546000        6.88506000        8.85183000
  |  114: Species C            -5.50439000        9.89724000       12.88080000
  |  115: Species C            -1.32703000       10.94470000       12.68620000
  |  116: Species C            -0.89967400        8.09859000        8.77082000
  |  117: Species C            -4.62197000        6.56219000        7.53538000
  |  118: Species C            -5.90706000        9.43612000       14.15740000
  |  119: Species C            -1.80181000       11.26230000       13.95060000
  |  120: Species C            -0.57674400        8.38234000        7.42574000
  |  121: Species C            -8.77135000        7.50202000       13.63290000
  |  122: Species C            -1.82705000       10.47560000        7.62642000
  |  123: Species C             2.35107000       10.36370000        7.80233000
  |  124: Species C            -4.64134000        7.37395000       13.76650000
  |  125: Species C            -8.41083000        7.09107000       12.37870000
  |  126: Species C            -2.10303000       10.19870000        8.92022000
  |  127: Species C             2.14597000       10.69440000        9.11245000
  |  128: Species C            -4.28551000        7.84113000       12.51490000
  |  129: Species H            -6.20003000        6.31636000       10.55140000
  |  130: Species H            -4.32265000        9.50376000       11.11020000
  |  131: Species H            -0.12740500       11.47610000       10.97300000
  |  132: Species H            -1.83054000        8.73928000       10.54840000
  |  133: Species H            -4.69062000        7.81005000        9.32224000
  |  134: Species H            -5.80539000       10.94830000       12.55720000
  |  135: Species H            -1.74258000       10.03130000       12.22260000
  |  136: Species H            -0.45318300        7.19888000        9.23153000
  |  137: Species H            -8.50660000        8.49038000       13.97360000
  |  138: Species H            -2.14969000       11.39590000        7.15565000
  |  139: Species H             1.91349000        9.45144000        7.40983000
  |  140: Species H            -4.26584000        6.39192000       14.06180000
  |  141: Species H            -7.84939000        7.72202000       11.67510000
  |  142: Species H            -2.81192000       10.82160000        9.48797000
  |  143: Species H             1.47717000       10.03970000        9.67099000
  |  144: Species H            -3.63242000        7.23850000       11.88380000

  Lattice parameters for 3D lattice (in Angstroms) :     8.102000   11.880000   17.292000
  Angle(s) between unit vectors (in degrees)       :    90.000000  124.463000   90.000000


  Quantities derived from the lattice vectors (in Angstrom^-1):
  | Reciprocal lattice vector 1:  0.775510  0.000000  0.532257
  | Reciprocal lattice vector 2:  0.000000  0.528888  0.000000
  | Reciprocal lattice vector 3: -0.000000  0.000000  0.440705
  | Unit cell volume                               :   0.137227E+04  Angstrom^3

  Fractional coordinates:
                         L1                L2                L3
       atom_frac         0.08467251        0.01133678        0.16144434  C
       atom_frac         0.42311502        0.25425505        0.34090565  C
       atom_frac         0.93043617        0.49468098        0.34138401  C
       atom_frac         0.62145084        0.22642677        0.16926920  C
       atom_frac         0.13728415        0.07885421        0.11255646  C
       atom_frac         0.39845303        0.33219781        0.39387290  C
       atom_frac         0.88707706        0.42622727        0.39258582  C
       atom_frac         0.65737580        0.16393434        0.11148681  C
       atom_frac         0.07160963        0.05050101        0.01869397  C
       atom_frac         0.47413424        0.30836953        0.48929685  C
       atom_frac         0.95451392        0.45222559        0.48624294  C
       atom_frac         0.58749518        0.19856902        0.02008422  C
       atom_frac         0.09791649        0.12025253        0.46486834  C
       atom_frac         0.45360646        0.36767256        0.04683957  C
       atom_frac         0.94485049        0.37284343        0.04081093  C
       atom_frac         0.59749053        0.12615067        0.47375654  C
       atom_frac         0.01738915        0.08910269        0.37336664  C
       atom_frac         0.52937775        0.33351094        0.13728727  C
       atom_frac         1.01109288        0.40308333        0.13153014  C
       atom_frac         0.51761711        0.14839899        0.38043259  C
       atom_frac         0.13013094        0.03419226        0.23191513  H
       atom_frac         0.36206023        0.27002525        0.26653996  H
       atom_frac         0.88341381        0.46735185        0.26994317  H
       atom_frac         0.67598123        0.19575253        0.23928338  H
       atom_frac         0.21352242        0.16073401        0.13773827  H
       atom_frac         0.32568810        0.41493013        0.36613095  H
       atom_frac         0.79800561        0.34813552        0.36192112  H
       atom_frac         0.73546597        0.08509259        0.13613416  H
       atom_frac         0.16902820        0.20303788        0.48716318  H
       atom_frac         0.38947886        0.45303199        0.02690804  H
       atom_frac         0.86437364        0.29058586        0.01181340  H
       atom_frac         0.67992834        0.04962710        0.50696453  H
       atom_frac         0.03188314        0.14107828        0.32427465  H
       atom_frac         0.50940020        0.38861616        0.18276072  H
       atom_frac         1.00257174        0.34578620        0.17832293  H
       atom_frac         0.52270464        0.08598569        0.33504121  H
       atom_frac         0.13614753        0.00473858        0.67484775  C
       atom_frac         0.41779329        0.26906734        0.83063106  C
       atom_frac         0.92013787        0.49079377        0.83589159  C
       atom_frac         0.60772436        0.24987626        0.67342881  C
       atom_frac         0.14743121        0.07819200        0.61698120  C
       atom_frac         0.39528439        0.33432492        0.88900894  C
       atom_frac         0.90854959        0.41495960        0.89262819  C
       atom_frac         0.64070579        0.17620118        0.62137549  C
       atom_frac         0.06693468        0.05114537        0.52235123  C
       atom_frac         0.47977898        0.30382071        0.98503821  C
       atom_frac         0.96495179        0.44966835        0.98293399  C
       atom_frac         0.57459307        0.20282660        0.52928742  C
       atom_frac         0.12075035        0.12095286        0.96666843  C
       atom_frac         0.44343871        0.38006650        0.54439146  C
       atom_frac         0.92048300        0.37727609        0.54110819  C
       atom_frac         0.60894898        0.13359764        0.95735378  C
       atom_frac         0.07488760        0.09190320        0.88082355  C
       atom_frac         0.50805732        0.35101599        0.63484947  C
       atom_frac         0.97618693        0.40816330        0.62900958  C
       atom_frac         0.53139055        0.16750168        0.86713915  C
       atom_frac         0.19822711        0.02433510        0.74809681  H
       atom_frac         0.35619572        0.29658333        0.75886337  H
       atom_frac         0.87841040        0.46518687        0.76610186  H
       atom_frac         0.64846902        0.22340067        0.74240141  H
       atom_frac         0.23022290        0.15604714        0.64426232  H
       atom_frac         0.31424642        0.41518687        0.86709707  H
       atom_frac         0.85984225        0.32938805        0.87054798  H
       atom_frac         0.72777128        0.10063636        0.65092285  H
       atom_frac         0.18902350        0.20199663        0.99761439  H
       atom_frac         0.36517454        0.45894192        0.51785453  H
       atom_frac         0.85302843        0.29593434        0.51183438  H
       atom_frac         0.68879990        0.05299503        0.98181876  H
       atom_frac         0.11079333        0.14744444        0.84224631  H
       atom_frac         0.47388882        0.40755640        0.67286208  H
       atom_frac         0.94327205        0.35210774        0.66867540  H
       atom_frac         0.56924237        0.11660438        0.82483044  H
       atom_frac         0.10326523        0.50847980        0.16688724  C
       atom_frac         0.42033132        0.76038468        0.33276094  C
       atom_frac         0.90526647        0.98702020        0.33474381  C
       atom_frac         0.59775351        0.71551431        0.17355268  C
       atom_frac         0.12278048        0.58323064        0.11026357  C
       atom_frac         0.38117928        0.83249832        0.38312808  C
       atom_frac         0.87129248        0.92052189        0.38897148  C
       atom_frac         0.62011334        0.64666835        0.11679995  C
       atom_frac         0.05419420        0.55828956        0.01562126  C
       atom_frac         0.45208731        0.80802778        0.47884593  C
       atom_frac         0.95760092        0.94578283        0.48439123  C
       atom_frac         0.56172955        0.68250253        0.02533066  C
       atom_frac         0.10556202        0.62268266        0.47358610  C
       atom_frac         0.45017148        0.86079966        0.05430805  C
       atom_frac         0.91364542        0.87941919        0.03175496  C
       atom_frac         0.59189140        0.62899747        0.46756384  C
       atom_frac         0.04100736        0.59557576        0.38320454  C
       atom_frac         0.52049669        0.82477189        0.14403689  C
       atom_frac         0.96880048        0.91310606        0.11810737  C
       atom_frac         0.52234628        0.65729040        0.37726785  C
       atom_frac         0.15417114        0.52916077        0.23896705  H
       atom_frac         0.36558588        0.77645623        0.26068113  H
       atom_frac         0.84534568        0.96372054        0.26330368  H
       atom_frac         0.63702627        0.68696633        0.24179301  H
       atom_frac         0.18060035        0.66729966        0.13482184  H
       atom_frac         0.29804113        0.90952020        0.35028483  H
       atom_frac         0.79140264        0.83840404        0.35924386  H
       atom_frac         0.68525650        0.56393687        0.13847475  H
       atom_frac         0.18969133        0.69781481        0.51035792  H
       atom_frac         0.40123536        0.94660774        0.03624584  H
       atom_frac         0.82863844        0.80447306       -0.00375892  H
       atom_frac         0.65741001        0.54578367        0.49583254  H
       atom_frac         0.07501563        0.65456650        0.34488963  H
       atom_frac         0.51553415        0.88416667        0.19210833  H
       atom_frac         0.93307379        0.86010943        0.15646086  H
       atom_frac         0.55666806        0.59931145        0.34017408  H
       atom_frac         0.08271321        0.50999579        0.66974153  C
       atom_frac         0.44204723        0.76853788        0.84604793  C
       atom_frac         0.96479041        0.98768519        0.84105393  C
       atom_frac         0.60461420        0.75590657        0.66738201  C
       atom_frac         0.12463855        0.57955051        0.62087119  C
       atom_frac         0.41176214        0.83310101        0.90346488  C
       atom_frac         0.91087348        0.92127104        0.88981556  C
       atom_frac         0.63194371        0.68169949        0.61518911  C
       atom_frac         0.06785876        0.55237290        0.52853481  C
       atom_frac         0.47020445        0.79428620        0.99300616  C
       atom_frac         0.95938204        0.94800505        0.97850112  C
       atom_frac         0.55785836        0.70558418        0.52084462  C
       atom_frac         0.07224464        0.63148316        0.95621750  C
       atom_frac         0.42053755        0.88178451        0.53492040  C
       atom_frac         0.95112906        0.87236532        0.54725880  C
       atom_frac         0.59331398        0.62070286        0.96558826  C
       atom_frac         0.01049744        0.59689141        0.86824737  C
       atom_frac         0.49607377        0.85847643        0.62566809  C
       atom_frac         1.03679623        0.90020202        0.63915118  C
       atom_frac         0.53120816        0.66002778        0.87780050  C
       atom_frac         0.12857547        0.53168013        0.74007976  H
       atom_frac         0.40763021        0.79997980        0.77927423  H
       atom_frac         0.91381145        0.96600168        0.76965097  H
       atom_frac         0.66763138        0.73562963        0.73986934  H
       atom_frac         0.21075270        0.65741162        0.65386595  H
       atom_frac         0.34719826        0.92157407        0.88076744  H
       atom_frac         0.82031154        0.84438552        0.85729845  H
       atom_frac         0.72607977        0.60596633        0.64750351  H
       atom_frac         0.13378288        0.71467845        0.98011435  H
       atom_frac         0.34083577        0.95925084        0.50190039  H
       atom_frac         0.86387101        0.79557576        0.51972868  H
       atom_frac         0.66467579        0.53804040        0.98630073  H
       atom_frac         0.02019108        0.65000168        0.81889656  H
       atom_frac         0.45667291        0.91090909        0.66549032  H
       atom_frac         1.00156333        0.84509259        0.67832742  H
       atom_frac         0.55835538        0.60930135        0.83353487  H

 
  Finished reading input file 'geometry.in'.
 

 
  Consistency checks for stacksize environment parameter are next.
 
  | Maximum stacksize for task 0: unlimited
  | Maximum stacksize for task 1: unlimited
  | Maximum stacksize for task 2: unlimited
  | Maximum stacksize for task 3: unlimited
  | Maximum stacksize for task 4: unlimited
  | Maximum stacksize for task 5: unlimited
  | Maximum stacksize for task 6: unlimited
  | Maximum stacksize for task 7: unlimited
  | Maximum stacksize for task 8: unlimited
  | Maximum stacksize for task 9: unlimited
  | Maximum stacksize for task 10: unlimited
  | Maximum stacksize for task 11: unlimited
  | Maximum stacksize for task 12: unlimited
  | Maximum stacksize for task 13: unlimited
  | Maximum stacksize for task 14: unlimited
  | Maximum stacksize for task 15: unlimited
  | Maximum stacksize for task 16: unlimited
  | Maximum stacksize for task 17: unlimited
  | Current stacksize for task 0: unlimited
  | Current stacksize for task 1: unlimited
  | Current stacksize for task 2: unlimited
  | Current stacksize for task 3: unlimited
  | Current stacksize for task 4: unlimited
  | Current stacksize for task 5: unlimited
  | Current stacksize for task 6: unlimited
  | Current stacksize for task 7: unlimited
  | Current stacksize for task 8: unlimited
  | Current stacksize for task 9: unlimited
  | Current stacksize for task 10: unlimited
  | Current stacksize for task 11: unlimited
  | Current stacksize for task 12: unlimited
  | Current stacksize for task 13: unlimited
  | Current stacksize for task 14: unlimited
  | Current stacksize for task 15: unlimited
  | Current stacksize for task 16: unlimited
  | Current stacksize for task 17: unlimited
 
  Consistency checks for the contents of control.in are next.
 
  MPI_IN_PLACE appears to work with this MPI implementation.
  | Keeping use_mpi_in_place .true. (see manual).
  Explicit treatment of the Coulomb operator is needed, but the RI method is not specified.
  Coulomb operator: Defaulting to 'LVL fast' resolution of identity - RI_type = LVL_fast
  Species H: Using default value for prodbas_acc =   1.000000E-06.
  Species H: Using default value max_l_prodbas =     6.
  Species C: Using default value for prodbas_acc =   1.000000E-06.
  Species C: Using default value max_l_prodbas =     6.
  Target number of points in a grid batch is not set.  Since GPU acceleration is enabled, defaulting to  200
  Method for grid partitioning is not set. Defaulting to parallel hash+maxmin partitioning.
  Batch size limit is not set. Defaulting to    200
  By default, will store active basis functions for each batch.
  If in need of memory, prune_basis_once .false. can be used to disable this option.
  communication_type for Hartree potential was not specified.
  Defaulting to calc_hartree .
  Defaulting to Pulay charge density mixer.
  Pulay mixer: Number of relevant iterations not set.
  Defaulting to    8 iterations.
  Pulay mixer: Number of initial linear mixing iterations not set.
  Defaulting to    0 iterations.
  Work space size for distributed Hartree potential not set.
  Defaulting to   0.200000E+03 MB.
  Algorithm-dependent basis array size parameters:
  | n_max_pulay                         :        8
  Maximum number of self-consistency iterations not provided.
  Presetting  1000 iterations.
  Presetting      1001 iterations before the initial mixing cycle
  is restarted anyway using the sc_init_iter criterion / keyword.
  Presetting a factor      1.000 between actual scf density residual
  and density convergence criterion sc_accuracy_rho below which sc_init_iter
  takes no effect.
 * No s.c.f. convergence criteria (sc_accuracy_*) were provided in control.in.
 * The run will proceed with a reasonable default guess, but please check whether.
 * the s.c.f. cycles seem to take too much or too little time.
  Geometry relaxation not requested: no relaxation will be performed.
 * Notice: The s.c.f. convergence criterion sc_accuracy_rho was not provided.
 * We used to stop in this case, and ask the user to provide reasonable
 * scf convergence criteria. However, this led some users to employ criteria
 * that led to extremely long run times, e.g., for simple relaxation.
 * We now preset a default value for sc_accuracy_rho if it is not set.
 * You may still wish to check if this setting is too tight or too loose for your needs.
 * Based on n_atoms and forces and force-correction status, FHI-aims chose sc_accuracy_rho =  0.391918E-04 .
  No accuracy limit for integral partition fn. given. Defaulting to  0.1000E-14.
  No threshold value for u(r) in integrations given. Defaulting to  0.1000E-05.
  No occupation type (smearing scheme) given. Defaulting to Gaussian broadening, width =  0.1000E-01 eV.
  The width will be adjusted in iteration number     2 of the first full s.c.f. cycle only.
  S.C.F. convergence parameters will be adjusted in iteration number     2 of the first full s.c.f. cycle only.
  No accuracy for occupation numbers given. Defaulting to  0.1000E-12.
  No threshold value for occupation numbers given. Defaulting to  0.0000E+00.
  No accuracy for fermi level given. Defaulting to  0.1000E-19.
  Maximum # of iterations to find E_F not set. Defaulting to  200.
  Preferred method for the eigenvalue solver ('KS_method') not specified in 'control.in'.
  Calling BLACS routine to test compilation state
  Since ScaLAPACK support is enabled, defaulting to ELPA (via ELSI).
  Will not use alltoall communication since running on < 1024 CPUs.
  Threshold for basis singularities not set.
  Default threshold for basis singularities:  0.1000E-04
  partition_type (choice of integration weights) for integrals was not specified.
  | Using a version of the partition function of Stratmann and coworkers ('stratmann_sparse').
  | At each grid point, the set of atoms used to build the partition table is smoothly restricted to
  | only those atoms whose free-atom density would be non-zero at that grid point.
  Partitioning for Hartree potential was not defined. Using partition_type for integrals.
  | Adjusted default value of keyword multip_moments_threshold to:       0.10000000E-11
  | This value may affect high angular momentum components of the Hartree potential in periodic systems.
  Angular momentum expansion for Kerker preconditioner not set explicitly.
  | Using default value of   0
  No explicit requirement for turning off preconditioner.
  | By default, it will be turned off when the charge convergence reaches
  | sc_accuracy_rho  =   0.391918E-04
  No special mixing parameter while Kerker preconditioner is on.
  Using default: charge_mix_param =     0.7500.
  Threshold for auxiliary basis singularities not set.
  Default threshold for auxiliary basis singularities:  0.1000E-04
  No q(lm)/r^(l+1) cutoff set for long-range Hartree potential.
  | Using default value of  0.100000E-09 .
  | Verify using the multipole_threshold keyword.
  Defaulting to new monopole extrapolation.
  Density update method: automatic selection selected.
  Using density matrix based charge density update.
  Using density matrix based charge density update.
  Using packed matrix style: index .
  Defaulting to use time-reversal symmetry for k-point grid.
  Charge integration errors on the 3D integration grid will be compensated
  by explicit normalization and distribution of residual charges.
  Use the "compensate_multipole_errors" flag to change this behaviour.
  Default to 1D ("use_logsbt") integrations for auxiliary 2-center integrals.
  Default onset of logarithmic r-grid for SBT is -38.000000000000
  Default onset of logarithmic k-grid for SBT is -25.000000000000
  Default range of logarithmic r- and k-grid for SBT is  45.000000000000
  Default number of logarithmic r- and k-grid for SBT is   4096
  Default of use_2d_corr is to use the efficient 2D distribution where possible
 
  Consistency checks for the contents of geometry.in are next.
 

  Range separation radius for Ewald summation (hartree_convergence_parameter):      2.91768261 bohr.
  Number of empty states per atom not set in control.in .
  | Since you are using a method that relies on the unoccupied spectrum
  | (MP2,GW,RPA et al.), will use the full Hamiltonian size (see below)
  | as the max. possible number of states (occupied plus empty).

  Structure-dependent array size parameters: 
  | Maximum number of distinct radial functions  :        9
  | Maximum number of basis functions            :     1440
  | Number of Kohn-Sham states (occupied + empty):     1440
------------------------------------------------------------
CUDA runtime version: 11060
CUDA driver version: 11060
  Initializing GPUs...

  Number of GPUs available to MPI task         0 :   1
  Number of GPUs available to MPI task         1 :   1
  Number of GPUs available to MPI task         2 :   1
  Number of GPUs available to MPI task         3 :   1
  Number of GPUs available to MPI task         4 :   1
  Number of GPUs available to MPI task         5 :   1
  Number of GPUs available to MPI task         6 :   1
  Number of GPUs available to MPI task         7 :   1
  Number of GPUs available to MPI task         8 :   1
  Number of GPUs available to MPI task         9 :   1
  Number of GPUs available to MPI task        10 :   1
  Number of GPUs available to MPI task        11 :   1
  Number of GPUs available to MPI task        12 :   1
  Number of GPUs available to MPI task        13 :   1
  Number of GPUs available to MPI task        14 :   1
  Number of GPUs available to MPI task        15 :   1
  Number of GPUs available to MPI task        16 :   1
  Number of GPUs available to MPI task        17 :   1

  | MPI task         0, GPU activated = T, Device Name = NVIDIA A100-SXM4-80GB
  | MPI task         1, GPU activated = T, Device Name = NVIDIA A100-SXM4-80GB
  | MPI task         2, GPU activated = T, Device Name = NVIDIA A100-SXM4-80GB
  | MPI task         3, GPU activated = T, Device Name = NVIDIA A100-SXM4-80GB
  | MPI task         4, GPU activated = T, Device Name = NVIDIA A100-SXM4-80GB
  | MPI task         5, GPU activated = T, Device Name = NVIDIA A100-SXM4-80GB
  | MPI task         6, GPU activated = T, Device Name = NVIDIA A100-SXM4-80GB
  | MPI task         7, GPU activated = T, Device Name = NVIDIA A100-SXM4-80GB
  | MPI task         8, GPU activated = T, Device Name = NVIDIA A100-SXM4-80GB
  | MPI task         9, GPU activated = T, Device Name = NVIDIA A100-SXM4-80GB
  | MPI task        10, GPU activated = T, Device Name = NVIDIA A100-SXM4-80GB
  | MPI task        11, GPU activated = T, Device Name = NVIDIA A100-SXM4-80GB
  | MPI task        12, GPU activated = T, Device Name = NVIDIA A100-SXM4-80GB
  | MPI task        13, GPU activated = T, Device Name = NVIDIA A100-SXM4-80GB
  | MPI task        14, GPU activated = T, Device Name = NVIDIA A100-SXM4-80GB
  | MPI task        15, GPU activated = T, Device Name = NVIDIA A100-SXM4-80GB
  | MPI task        16, GPU activated = T, Device Name = NVIDIA A100-SXM4-80GB
  | MPI task        17, GPU activated = T, Device Name = NVIDIA A100-SXM4-80GB

------------------------------------------------------------
          Preparing all fixed parts of the calculation.
------------------------------------------------------------
  Determining machine precision:
    2.225073858507201E-308
  Setting up grids for atomic and cluster calculations.

  Creating wave function, potential, and density for free atoms.
  Runtime choices for atomic solver:
  | atomic solver xc        : PW-LDA
  | compute density gradient: 0
  | compute kinetic density : F

  Species: H

  List of occupied orbitals and eigenvalues:
    n    l              occ      energy [Ha]    energy [eV]
    1    0           1.0000        -0.232375        -6.3233


  Species: C

  List of occupied orbitals and eigenvalues:
    n    l              occ      energy [Ha]    energy [eV]
    1    0           2.0000        -9.944615      -270.6068
    2    0           2.0000        -0.498807       -13.5732
    2    1           2.0000        -0.196968        -5.3598


  Adding cutoff potential to free-atom effective potential.
  Creating fixed part of basis set: Ionic, confined, hydrogenic.
 
  H                    hydrogenic:
 
  List of hydrogenic basis orbitals: 
    n    l      effective z      eigenvalue [eV]  inner max. [A]     outer max. [A]     outer radius [A]   
    2    0         2.100000       -14.9728           0.193243           1.317208           4.583499
    2    1         3.500000       -41.6669           0.602369           0.602369           3.723403
 
 
  C                    hydrogenic:
 
  List of hydrogenic basis orbitals: 
    n    l      effective z      eigenvalue [eV]  inner max. [A]     outer max. [A]     outer radius [A]   
    2    1         1.700000        -9.7616           1.230570           1.230570           4.607917
    3    2         6.000000       -54.4224           0.792453           0.792453           3.883070
    2    0         4.900000       -81.6679           0.082559           0.562749           3.078220
 
  Creating atomic-like basis functions for current effective potential.

  Species H                   :

  List of atomic basis orbitals and eigenvalues:
    n    l      energy [Ha]    energy [eV]    outer radius [A]
    1    0        -0.232375        -6.3233       4.527807


  Species C                   :

  List of atomic basis orbitals and eigenvalues:
    n    l      energy [Ha]    energy [eV]    outer radius [A]
    1    0        -9.944615      -270.6068       1.934409
    2    0        -0.498807       -13.5732       4.496620
    2    1        -0.196968        -5.3598       4.551928

  Assembling full basis from fixed parts.
  | Species H :   atomic orbital   1 s accepted.
  | Species H :    hydro orbital   2 s accepted.
  | Species H :    hydro orbital   2 p accepted.
  | Species C :   atomic orbital   1 s accepted.
  | Species C :    hydro orbital   2 s accepted.
  | Species C :   atomic orbital   2 s accepted.
  | Species C :   atomic orbital   2 p accepted.
  | Species C :    hydro orbital   2 p accepted.
  | Species C :    hydro orbital   3 d accepted.
 
  Basis size parameters after reduction:
  | Total number of radial functions:        9
  | Total number of basis functions :     1440
 
  Per-task memory consumption for arrays in subroutine allocate_ext:
  |           2.242384MB.
  Testing on-site integration grid accuracy.
  |  Species  Function  <phi|h_atom|phi> (log., in eV)  <phi|h_atom|phi> (rad., in eV)
           1        1                 -6.3245358373                 -6.3232436907
           1        2                 14.1326137532                 14.1384481100
           1        3                 25.3627025200                 25.3628451197
           2        4               -270.6067544938               -270.6067222788
           2        5                -10.5634280949                -10.5635685736
           2        6                 16.2089822398                 16.2052121796
           2        7                 -5.3613872565                 -5.3627872378
           2        8                  8.5292058327                  8.5051734780
           2        9                 27.4884461005                 27.4884542459

  Preparing densities etc. for the partition functions (integrals / Hartree potential).

  Preparations completed.
  max(cpu_time)          :      0.082 s.
  Wall clock time (cpu1) :      0.082 s.
------------------------------------------------------------

  Initializing index lists of integration centers etc. from given atomic structure:
  Mapping all atomic coordinates to central unit cell.

  Initializing the k-points
  Using symmetry for reducing the k-points
  | k-points reduced from:        2 to        2
  | Number of k-points                             :         2
  | Consuming          0 KiB for k_phase_exx.
  The eigenvectors in the calculations are REAL.
  | Number of basis functions in the Hamiltonian integrals :      8005
  | Number of basis functions in a single unit cell        :      1440
  | Number of centers in hartree potential         :      3333
  | Number of centers in hartree multipole         :      2566
  | Number of centers in electron density summation:      1997
  | Number of centers in basis integrals           :      2132
  | Number of centers in integrals                 :       965
  | Number of centers in hamiltonian               :      2010
  | Consuming          1 KiB for k_phase.
  | Number of super-cells (origin) [n_cells]                     :         175
  | Number of super-cells (after PM_index) [n_cells]             :          40
  | Number of super-cells in hamiltonian [n_cells_in_hamiltonian]:          40
  | Size of matrix packed + index [n_hamiltonian_matrix_size] :     1928692
  | Size of matrix packed + index (no_symmetry):     3854567

------------------------------------------------------------
          Begin self-consistency loop: Initialization.

          Date     :  20230120, Time     :  153301.033
------------------------------------------------------------
  | Estimated reciprocal-space cutoff momentum G_max:         3.24344278 bohr^-1 .
  | Reciprocal lattice points for long-range Hartree potential:    5310
  Using simple linear distribution as default method for k-point parallelism.
  * Using 18 tasks for Scalapack Eigenvalue solver.
  Detailed listing of tasks and assigned k-points:
   Task     0 k-point     1 on adag005
   Task     1 k-point     1 on adag005
   Task     2 k-point     1 on adag005
   Task     3 k-point     1 on adag005
   Task     4 k-point     1 on adag005
   Task     5 k-point     1 on adag005
   Task     6 k-point     1 on adag005
   Task     7 k-point     1 on adag005
   Task     8 k-point     1 on adag005
   Task     9 k-point     2 on adag005
   Task    10 k-point     2 on adag005
   Task    11 k-point     2 on adag005
   Task    12 k-point     2 on adag005
   Task    13 k-point     2 on adag005
   Task    14 k-point     2 on adag005
   Task    15 k-point     2 on adag005
   Task    16 k-point     2 on adag005
   Task    17 k-point     2 on adag005
  K-point:     1 Tasks:     9 split into      3 X      3 BLACS grid
  Calculating block size based on n_basis =         1440  max_nprow =            3  max_npcol =            3
  ScaLAPACK block size set to:           16
  Allocating        1.758 MB for ovlp
  Allocating        1.758 MB for ham
  Allocating        1.758 MB for eigenvec
  Required Scalapack workspace - INTEGER:            1  REAL:             1
  Partitioning the integration grid into batches with parallel hashing+maxmin method.
  | Number of batches:     5528
  | Maximal batch size:     200
  | Minimal batch size:      99
  | Average batch size:     138.177
  | Standard deviation of batch sizes:      31.455

  Integration load balanced across    18 MPI tasks.
  Work distribution over tasks is as follows:
  Task     0 has      42433 integration points.
  Task     1 has      42443 integration points.
  Task     2 has      42437 integration points.
  Task     3 has      42413 integration points.
  Task     4 has      42428 integration points.
  Task     5 has      42413 integration points.
  Task     6 has      42448 integration points.
  Task     7 has      42494 integration points.
  Task     8 has      42442 integration points.
  Task     9 has      42433 integration points.
  Task    10 has      42425 integration points.
  Task    11 has      42467 integration points.
  Task    12 has      42440 integration points.
  Task    13 has      42447 integration points.
  Task    14 has      42456 integration points.
  Task    15 has      42394 integration points.
  Task    16 has      42456 integration points.
  Task    17 has      42371 integration points.
  Initializing partition tables, free-atom densities, potentials, etc. across the integration grid (initialize_grid_storage).
  | initialize_grid_storage: Actual outermost partition radius vs. multipole_radius_free
  | (-- VB: in principle, multipole_radius_free should be larger, hence this output)
  | Species        1: Confinement radius =              4.999999999999999 AA, multipole_radius_free =              5.054417573612229 AA.
  | Species        1: outer_partition_radius set to              5.054417573612229 AA .
  | Species        2: Confinement radius =              4.999999999999999 AA, multipole_radius_free =              5.019602836301480 AA.
  | Species        2: outer_partition_radius set to              5.019602836301480 AA .
  | The sparse table of interatomic distances needs       7673.87 kbyte instead of     36363.39 kbyte of memory.
  | Net number of integration points:   763840
  | of which are non-zero points    :   605402
  | Numerical average free-atom electrostatic potential    :     -8.61469254 eV
  Renormalizing the initial density to the exact electron count on the 3D integration grid.
  | Initial density: Formal number of electrons (from input files) :     544.0000000000
  | Integrated number of electrons on 3D grid     :     543.9973795463
  | Charge integration error                      :      -0.0026204537
  | Normalization factor for density and gradient :       1.0000048170
  Renormalizing the free-atom superposition density to the exact electron count on the 3D integration grid.
  | Formal number of electrons (from input files) :     544.0000000000
  | Integrated number of electrons on 3D grid     :     543.9973795463
  | Charge integration error                      :      -0.0026204537
  | Normalization factor for density and gradient :       1.0000048170
  Obtaining max. number of non-zero basis functions in each batch (get_n_compute_maxes).
  | Maximal number of non-zero basis functions:      538 in task     0
  | Maximal number of non-zero basis functions:      534 in task     1
  | Maximal number of non-zero basis functions:      539 in task     2
  | Maximal number of non-zero basis functions:      546 in task     3
  | Maximal number of non-zero basis functions:      570 in task     4
  | Maximal number of non-zero basis functions:      554 in task     5
  | Maximal number of non-zero basis functions:      544 in task     6
  | Maximal number of non-zero basis functions:      540 in task     7
  | Maximal number of non-zero basis functions:      546 in task     8
  | Maximal number of non-zero basis functions:      552 in task     9
  | Maximal number of non-zero basis functions:      551 in task    10
  | Maximal number of non-zero basis functions:      556 in task    11
  | Maximal number of non-zero basis functions:      541 in task    12
  | Maximal number of non-zero basis functions:      529 in task    13
  | Maximal number of non-zero basis functions:      560 in task    14
  | Maximal number of non-zero basis functions:      542 in task    15
  | Maximal number of non-zero basis functions:      532 in task    16
  | Maximal number of non-zero basis functions:      562 in task    17
  Integrating Hamiltonian matrix: batch-based integration.
  GPU acceleration will be used when integrating the Hamiltonian matrix.
  Reporting GPU memory usage by myid 0.  Note that it is likely not the only MPI task binding to its GPU!
  Allocating        2.316 MB on GPU for hamiltonian_shell
  Allocating        0.861 MB on GPU for wave
  Allocating        0.002 MB on GPU for partition
  Allocating        0.861 MB on GPU for h_times_psi
  Time summed over all CPUs for integration: real work       35.659 s, elapsed       37.033 s
  Deallocating memory used on GPU for Hamiltonian integration.
  Integrating overlap matrix.
  Time summed over all CPUs for integration: real work       29.687 s, elapsed       30.675 s
  Deallocating overlap matrix.

  Updating Kohn-Sham eigenvalues and eigenvectors using ELSI and the ELPA eigensolver.
  Singularity check in k-point 1 (analysis for other k-points may follow below):
  Overlap matrix is not singular
  | Lowest and highest eigenvalues :  0.7835E-03,  0.8237E+01
  Finished singularity check of overlap matrix
  | Time :     0.113 s
  Starting ELPA eigensolver
  Finished Cholesky decomposition
  | Time :     0.018 s
  Finished transformation to standard eigenproblem
  | Time :     0.028 s
  Finished solving standard eigenproblem
  | Time :     0.238 s
  Finished back-transformation of eigenvectors
  | Time :     0.022 s

  Obtaining occupation numbers and electronic chemical potential using ELSI.
  | Note that, for insulating systems, the printed 'chemical potential' value is not uniquely defined.
  | It can be anywhere in the energy gap, as long as it correctly separates occupied and unoccupied states.
  | In systems with a gap, the physically relevant chemical potential is the VBM or HOMO.

  | Chemical potential (Fermi level):    -8.17949112 eV
  Writing Kohn-Sham eigenvalues.
  K-point:       1 at    0.000000    0.000000    0.000000 (in units of recip. lattice)

  State    Occupation    Eigenvalue [Ha]    Eigenvalue [eV]
      1       2.00000         -10.072145         -274.07700
      2       2.00000         -10.069717         -274.01095
      3       2.00000         -10.069290         -273.99933
      4       2.00000         -10.069056         -273.99294
      5       2.00000         -10.068581         -273.98003
      6       2.00000         -10.068415         -273.97550
      7       2.00000         -10.068094         -273.96677
      8       2.00000         -10.068088         -273.96662
      9       2.00000         -10.068040         -273.96532
     10       2.00000         -10.068004         -273.96432
     11       2.00000         -10.067794         -273.95861
     12       2.00000         -10.067763         -273.95776
     13       2.00000         -10.067447         -273.94917
     14       2.00000         -10.067168         -273.94157
     15       2.00000         -10.066932         -273.93515
     16       2.00000         -10.066743         -273.93001
     17       2.00000         -10.066449         -273.92200
     18       2.00000         -10.066344         -273.91915
     19       2.00000         -10.066059         -273.91140
     20       2.00000         -10.065961         -273.90874
     21       2.00000         -10.065923         -273.90769
     22       2.00000         -10.065914         -273.90745
     23       2.00000         -10.065870         -273.90627
     24       2.00000         -10.065808         -273.90457
     25       2.00000         -10.065790         -273.90408
     26       2.00000         -10.065579         -273.89833
     27       2.00000         -10.065510         -273.89647
     28       2.00000         -10.065377         -273.89283
     29       2.00000         -10.065195         -273.88789
     30       2.00000         -10.065180         -273.88747
     31       2.00000         -10.064883         -273.87940
     32       2.00000         -10.064687         -273.87407
     33       2.00000         -10.064619         -273.87223
     34       2.00000         -10.064587         -273.87135
     35       2.00000         -10.064562         -273.87068
     36       2.00000         -10.064451         -273.86764
     37       2.00000         -10.064161         -273.85975
     38       2.00000         -10.064045         -273.85659
     39       2.00000         -10.063848         -273.85124
     40       2.00000         -10.063654         -273.84595
     41       2.00000         -10.063434         -273.83997
     42       2.00000         -10.062953         -273.82689
     43       2.00000         -10.062896         -273.82534
     44       2.00000         -10.062856         -273.82424
     45       2.00000         -10.062611         -273.81758
     46       2.00000         -10.062375         -273.81117
     47       2.00000         -10.062350         -273.81048
     48       2.00000         -10.062258         -273.80798
     49       2.00000         -10.062245         -273.80763
     50       2.00000         -10.062016         -273.80138
     51       2.00000         -10.061315         -273.78231
     52       2.00000         -10.061311         -273.78220
     53       2.00000         -10.061167         -273.77828
     54       2.00000         -10.060987         -273.77338
     55       2.00000         -10.060714         -273.76596
     56       2.00000         -10.060690         -273.76530
     57       2.00000         -10.060625         -273.76354
     58       2.00000         -10.060493         -273.75995
     59       2.00000         -10.060360         -273.75633
     60       2.00000         -10.058974         -273.71862
     61       2.00000         -10.058962         -273.71830
     62       2.00000         -10.058527         -273.70643
     63       2.00000         -10.058163         -273.69653
     64       2.00000         -10.058161         -273.69650
     65       2.00000         -10.058104         -273.69495
     66       2.00000         -10.058025         -273.69279
     67       2.00000         -10.058018         -273.69259
     68       2.00000         -10.057635         -273.68217
     69       2.00000         -10.057274         -273.67234
     70       2.00000         -10.057269         -273.67222
     71       2.00000         -10.056991         -273.66465
     72       2.00000         -10.056640         -273.65510
     73       2.00000         -10.056080         -273.63986
[...]
  |    H      0     4.527807 A      4.583499 A        4.713786E-16 a.u.
  |    H      2     3.678162 A  1.011968E+04 A            0.556529 a.u.
  |    H      1     3.958095 A  1.721251E+06 A            0.841931 a.u.
  |    H      0     4.527807 A  3.866455E+12 A            0.581436 a.u.
  |    C      0     2.562483 A      2.562483 A        6.563029E-17 a.u.
  |    C      0     2.967371 A      2.967371 A        1.352164E-16 a.u.
  |    C      0     3.003870 A      3.003870 A        2.312640E-17 a.u.
  |    C      1     3.272245 A      3.272245 A       -3.835259E-17 a.u.
  |    C      0     3.312494 A      3.312494 A       -2.710381E-16 a.u.
  |    C      3     4.077671 A      4.077671 A       -1.683752E-15 a.u.
  |    C      3     4.077671 A      4.077671 A        1.412852E-15 a.u.
  |    C      1     4.496620 A      4.496620 A       -3.011059E-16 a.u.
  |    C      0     4.496620 A      4.551928 A        2.873903E-17 a.u.
  |    C      2     4.551928 A      4.551928 A       -4.610785E-16 a.u.
  |    C      2     4.551928 A      4.551928 A        7.440584E-16 a.u.
  |    C      2     4.551928 A      4.551928 A       -7.110458E-16 a.u.
  |    C      2     4.551928 A      4.551928 A       -1.935424E-16 a.u.
  |    C      0     4.551928 A      4.607917 A        2.067142E-16 a.u.
  |    C      0     4.551928 A      4.607917 A       -1.109786E-16 a.u.
  |    C      1     4.551928 A      4.607917 A       -9.951742E-17 a.u.
  |    C      1     4.551928 A      4.607917 A        1.937809E-16 a.u.
  |    C      1     4.607917 A      4.607917 A       -2.813308E-16 a.u.
  |    C      1     4.607917 A      4.607917 A       -7.330363E-17 a.u.
  |    C      2     4.607917 A      4.607917 A        1.318462E-15 a.u.
  |    C      2     4.607917 A      4.607917 A       -1.318397E-15 a.u.
  |    C      0     4.607917 A      4.664595 A        3.157826E-16 a.u.
  |    C      1     4.607917 A      4.664595 A        7.356967E-16 a.u.
  |    C      4     3.835889 A  2.962973E+02 A            4.379483 a.u.
  |    C      3     4.127827 A  1.725964E+03 A            9.005588 a.u.
  |    C      2     4.607917 A  2.608475E+04 A            9.531178 a.u.
  |    C      1     4.607917 A  2.736013E+06 A            2.127278 a.u.
  |    C      0     4.607917 A  4.399765E+12 A            0.661635 a.u.

  | Shrink_full_auxil_basis : there are       36  radial auxiliary wave functions
                            accepted and       7 rejected.
  | Shrink_full_auxil_basis : there are totally                8992 partial auxiliary wave functions.
 
  | Maximal number of product basis functions per thread :   512   512
 
  | Minimal total memory requirement for three-center overlap :      72.476 Gbs
  | Number of local auxiliary basis functions on task:      0   512
  | Number of local auxiliary basis functions on task:      1   512
  | Number of local auxiliary basis functions on task:      2   512
  | Number of local auxiliary basis functions on task:      3   512
  | Number of local auxiliary basis functions on task:      4   496
  | Number of local auxiliary basis functions on task:      5   496
  | Number of local auxiliary basis functions on task:      6   496
  | Number of local auxiliary basis functions on task:      7   496
  | Number of local auxiliary basis functions on task:      8   496
  | Number of local auxiliary basis functions on task:      9   496
  | Number of local auxiliary basis functions on task:     10   496
  | Number of local auxiliary basis functions on task:     11   496
  | Number of local auxiliary basis functions on task:     12   496
  | Number of local auxiliary basis functions on task:     13   496
  | Number of local auxiliary basis functions on task:     14   496
  | Number of local auxiliary basis functions on task:     15   496
  | Number of local auxiliary basis functions on task:     16   496
  | Number of local auxiliary basis functions on task:     17   496
  | 2D aux task distribution:      3 X      6
  | 2D block size (nb_aux_2d):     64
 
  Basis pair condensation :   1037520  -->     541380
 
 --------------------------------------------
  Constructing auxiliary basis (full product) ...
 
  Product basis:
  | charge radius: extent of product basis function
  | field radius: extent of its Coulomb potential
  | Species   l  charge radius    field radius  multipol momen
  |    H      1     3.910002 A      3.910002 A       -2.487223E-16 a.u.
  |    H      1     3.958095 A      3.958095 A       -2.441841E-16 a.u.
  |    H      0     4.527807 A      4.527807 A        1.268855E-16 a.u.
  |    H      0     4.527807 A      4.583499 A       -4.900954E-17 a.u.
  |    H      0     4.527807 A      4.583499 A        4.713786E-16 a.u.
  |    H      2     3.678162 A  1.011968E+04 A            0.556529 a.u.
  |    H      1     3.958095 A  1.721251E+06 A            0.841931 a.u.
  |    H      0     4.527807 A  3.866455E+12 A            0.581436 a.u.
  |    C      0     2.562483 A      2.562483 A        6.563029E-17 a.u.
  |    C      0     2.967371 A      2.967371 A        1.352164E-16 a.u.
  |    C      0     3.003870 A      3.003870 A        2.312640E-17 a.u.
  |    C      1     3.272245 A      3.272245 A       -3.835259E-17 a.u.
  |    C      0     3.312494 A      3.312494 A       -2.710381E-16 a.u.
  |    C      3     4.077671 A      4.077671 A       -1.683752E-15 a.u.
  |    C      3     4.077671 A      4.077671 A        1.412852E-15 a.u.
  |    C      1     4.496620 A      4.496620 A       -3.011059E-16 a.u.
  |    C      0     4.496620 A      4.551928 A        2.873903E-17 a.u.
  |    C      2     4.551928 A      4.551928 A       -4.610785E-16 a.u.
  |    C      2     4.551928 A      4.551928 A        7.440584E-16 a.u.
  |    C      2     4.551928 A      4.551928 A       -7.110458E-16 a.u.
  |    C      2     4.551928 A      4.551928 A       -1.935424E-16 a.u.
  |    C      0     4.551928 A      4.607917 A        2.067142E-16 a.u.
  |    C      0     4.551928 A      4.607917 A       -1.109786E-16 a.u.
  |    C      1     4.551928 A      4.607917 A       -9.951742E-17 a.u.
  |    C      1     4.551928 A      4.607917 A        1.937809E-16 a.u.
  |    C      1     4.607917 A      4.607917 A       -2.813308E-16 a.u.
  |    C      1     4.607917 A      4.607917 A       -7.330363E-17 a.u.
  |    C      2     4.607917 A      4.607917 A        1.318462E-15 a.u.
  |    C      2     4.607917 A      4.607917 A       -1.318397E-15 a.u.
  |    C      0     4.607917 A      4.664595 A        3.157826E-16 a.u.
  |    C      1     4.607917 A      4.664595 A        7.356967E-16 a.u.
  |    C      4     3.835889 A  2.962973E+02 A            4.379483 a.u.
  |    C      3     4.127827 A  1.725964E+03 A            9.005588 a.u.
  |    C      2     4.607917 A  2.608475E+04 A            9.531178 a.u.
  |    C      1     4.607917 A  2.736013E+06 A            2.127278 a.u.
  |    C      0     4.607917 A  4.399765E+12 A            0.661635 a.u.

  | Shrink_full_auxil_basis : there are       36  radial auxiliary wave functions
                            accepted and       7 rejected.
  | Shrink_full_auxil_basis : there are totally                8992 partial auxiliary wave functions.
 
  | Maximal number of product basis functions per thread :   512   512
 
  | Minimal total memory requirement for three-center overlap :      72.476 Gbs
  | Number of local auxiliary basis functions on task:      0   512
  | Number of local auxiliary basis functions on task:      1   512
  | Number of local auxiliary basis functions on task:      2   512
  | Number of local auxiliary basis functions on task:      3   512
  | Number of local auxiliary basis functions on task:      4   496
  | Number of local auxiliary basis functions on task:      5   496
  | Number of local auxiliary basis functions on task:      6   496
  | Number of local auxiliary basis functions on task:      7   496
  | Number of local auxiliary basis functions on task:      8   496
  | Number of local auxiliary basis functions on task:      9   496
  | Number of local auxiliary basis functions on task:     10   496
  | Number of local auxiliary basis functions on task:     11   496
  | Number of local auxiliary basis functions on task:     12   496
  | Number of local auxiliary basis functions on task:     13   496
  | Number of local auxiliary basis functions on task:     14   496
  | Number of local auxiliary basis functions on task:     15   496
  | Number of local auxiliary basis functions on task:     16   496
  | Number of local auxiliary basis functions on task:     17   496
  | 2D aux task distribution:      3 X      6
  | 2D block size (nb_aux_2d):     64
 
  Basis pair condensation :   1037520  -->     541380
  Allocating        0.069 MB for t_coeff
  Allocating        0.034 MB for basbas_idx
  Allocating        0.069 MB for wave
  Allocating        0.069 MB for total_wave
  Allocating        0.206 MB for wave_gradient
  Allocating        0.206 MB for total_wave_grad
 HERE1
 HERE2
  Deallocating        0.069 MB for t_coeff
  Deallocating        0.034 MB for basbas_idx
  Deallocating        0.069 MB for wave
  Deallocating        0.206 MB for wave_gradient
  Deallocating        0.206 MB for total_wave_grad
dP_dE (Bohr^3) at every cycle:--->
 (1020.55775287460,0.000000000000000E+000) (10.4503452695352,0.000000000000000E+000) (-452.040602105132,0.000000000000000E+000)
 (10.5053826528128,0.000000000000000E+000) (1326.70256102008,0.000000000000000E+000) (0.626000158090740,0.000000000000000E+000)
 (-452.173580222871,0.000000000000000E+000) (0.619389143570039,0.000000000000000E+000) (1700.85983614672,0.000000000000000E+000)
DFPT polarizability (Bohr^3)        xx        yy        zz        xy        xz        yz
  | Polarizability:--->                      1020.557752875                 1326.702561020                 1700.859836147                   10.450345270                 -452.040602105                    0.626000158

DFPT for dielectric_constant:--->  # PARSE DFPT_dielectric_tensor
               2.384875101711444             0.014180895620363            -0.613409454834612
               0.014255580175500             2.800307076163358             0.000849468861674
              -0.613589903303903             0.000840497855986             3.308030517573285

                                               :  max(cpu_time)    wall_clock(cpu1)
  | Time for  dielectric calculation            :        0.000 s           0.000 s
===========================================================================

------------------------------------------------------------------------------
  Final output of selected total energy values:

  The following output summarizes some interesting total energy values
  at the end of a run (AFTER all relaxation, molecular dynamics, etc.).

  | Total energy of the DFT / Hartree-Fock s.c.f. calculation      :         -83267.409272954 eV
  | Final zero-broadening corrected energy (caution - metals only) :         -83267.409272954 eV
  | For reference only, the value of 1 Hartree used in FHI-aims is :             27.211384500 eV
  | For reference only, the overall average (free atom contribution
  | + realspace contribution) of the electrostatic potential after
  | s.c.f. convergence is                                          :             -7.707804394 eV

  Before relying on these values, please be sure to understand exactly which
  total energy value is referred to by a given number. Different objects may
  all carry the same name 'total energy'. Definitions:

  Total energy of the DFT / Hartree-Fock s.c.f. calculation:
  | Note that this energy does not include ANY quantities calculated after the
  | s.c.f. cycle, in particular not ANY RPA, MP2, etc. many-body perturbation terms.

  Final zero-broadening corrected energy:
  | For metallic systems only, a broadening of the occupation numbers at the Fermi
  | level can be extrapolated back to zero broadening by an electron-gas inspired
  | formula. For all systems that are not real metals, this value can be
  | meaningless and should be avoided.

------------------------------------------------------------------------------
  Methods described in the following list of references were used in this FHI-aims run.
  If you publish the results, please make sure to cite these reference if they apply.
  FHI-aims is an academic code, and for our developers (often, Ph.D. students
  and postdocs), scientific credit in the community is essential.
  Thank you for helping us!

  For any use of FHI-aims, please cite:

    Volker Blum, Ralf Gehrke, Felix Hanke, Paula Havu, Ville Havu,
    Xinguo Ren, Karsten Reuter, and Matthias Scheffler
    'Ab initio molecular simulations with numeric atom-centered orbitals'
    Computer Physics Communications 180, 2175-2196 (2009)
    http://doi.org/10.1016/j.cpc.2009.06.022


  For Hartree-Fock, hybrid functionals, or many-body perturbation theory used in your run, please cite:

    Xinguo Ren, Patrick Rinke, Volker Blum, Juergen Wieferink, Alex Tkatchenko,
    Andrea Sanfilippo, Karsten Reuter, and Matthias Scheffler,
    'Resolution-of-identity approach to Hartree-Fock, hybrid density functionals,
    RPA, MP2, and GW with numeric atom-centered orbital basis functions'
    New Journal of Physics 14, 053020 (2012).
    http://doi.org/10.1088/1367-2630/14/5/053020


  The provided symmetry information was generated with SPGlib:

    Atsushi Togo, Yusuke Seto, Dimitar Pashov
    SPGlib 1.7.3 obtained from http://spglib.sourceforge.net
    Copyright (C) 2008 Atsushi Togo


  The DFPT (perturbation by an electric field) part of the code was used.
  Here is the corresponding reference:

    Honghui Shang, Nathaniel Raimbault, Mariana Rossi,
    Christian Carbogno, Patrick Rinke and Matthias Scheffler,
    'All-Electron, Real-Space Perturbation Theory for Homogeneous
    Electric Fields: Theory, Implementation, and Application within dft'
    New Journal of Physics, 20(7):073040, 2018


  The ELSI infrastructure was used in your run to solve the Kohn-Sham electronic structure.
  Please check out http://elsi-interchange.org to learn more.
  If scalability is important for your project, please acknowledge ELSI by citing:

    V. W-z. Yu, F. Corsetti, A. Garcia, W. P. Huhn, M. Jacquelin, W. Jia,
    B. Lange, L. Lin, J. Lu, W. Mi, A. Seifitokaldani, A. Vazquez-Mayagoitia,
    C. Yang, H. Yang, and V. Blum
    'ELSI: A unified software interface for Kohn-Sham electronic structure solvers'
    Computer Physics Communications 222, 267-285 (2018).
    http://doi.org/10.1016/j.cpc.2017.09.007


  For the real-space grid partitioning and parallelization used in this calculation, please cite:

    Ville Havu, Volker Blum, Paula Havu, and Matthias Scheffler,
    'Efficient O(N) integration for all-electron electronic structure calculation'
    'using numerically tabulated basis functions'
    Journal of Computational Physics 228, 8367-8379 (2009).
    http://doi.org/10.1016/j.jcp.2009.08.008


  The high-level electronic structure method used in your calculation
  employed our efficient localized resolution of identity for the Coulomb operator.
  Some calculations, especially large-scale hybrid density functional theory,
  are only possible thanks to this development. For this feature, please cite:

    Arvid Ihrig, Juergen Wieferink, Igor Ying Zhang, Matti Ropo, Xinguo Ren,
    Patrick Rinke, Matthias Scheffler, and Volker Blum,
    'Accurate localized resolution of identity approach for linear-scaling
    hybrid density functionals and for many-body perturbation theory'
    New Journal of Physics 117, 093020 (2015).
    http://doi.org/10.1088/1367-2630/17/9/093020

  Of course, there are many other important community references, e.g., those cited in the
  above references. Our list is limited to references that describe implementations in the
  FHI-aims code. The reason is purely practical (length of this list) - please credit others as well.

------------------------------------------------------------
          Leaving FHI-aims.
          Date     :  20230120, Time     :  155852.421

          Computational steps:
          | Number of self-consistency cycles          :           48
          | Number of SCF (re)initializations          :            1
          | Number of coupled perturbed self-consistency cycles          :            0
          | Number of CPSCF (re)initializations          :            0

          Detailed time accounting                     :  max(cpu_time)    wall_clock(cpu1)
          | Total time                                  :     1554.129 s        1574.706 s
          | GPU initialization                          :        2.715 s          22.121 s
          | Preparation time                            :        0.082 s           0.082 s
          | Boundary condition initalization            :        0.978 s           0.979 s
          | Grid partitioning                           :        1.260 s           1.260 s
          | Preloading free-atom quantities on grid     :        3.997 s           3.998 s
          | Free-atom superposition energy              :        0.516 s           0.517 s
          | Total time for integrations                 :       26.862 s          27.017 s
          | Product basis setup: Total time             :        0.000 s           0.000 s
          | Product basis: | 2-center integrations     :(       0.000 s)  (       0.000 s)
          | Product basis: | LVL 3-center & coefficient:(       0.000 s)  (       0.000 s)
          | Total time for solution of K.-S. equations  :        4.264 s           4.265 s
          | Total time for density update               :       19.232 s          19.433 s
          | Total time for mixing & preconditioning     :       12.455 s          12.458 s
          | Total time for Hartree multipole update     :        0.095 s           0.094 s
          | Total time for Hartree multipole sum        :       50.956 s          50.975 s
          | Total time for total energy evaluation      :        0.006 s           0.004 s
          | Total time first_order_DM                   :        1.967 s           1.962 s
          | Total time first_order_density              :      319.555 s         319.620 s
          | Total time first_order_potential            :      121.163 s         121.200 s
          | Total time first_order_H                    :      601.771 s         601.921 s
          | Total time solving of Sternheimer equations :        1.931 s           1.930 s
          | Total time for dielectric constant          :        0.000 s           0.000 s
          | Total time momentum matrix                  :        0.000 s           0.000 s

          GPU acceleration has been used for charge density update.
          GPU acceleration has been used for real-space Hamiltonian integration.
          Due to GPU usage, wall_clock(cpu1) will give a more reliable estimate for timings.

          Partial memory accounting:
          | Residual value for overall tracked memory usage across tasks:     1.234863 MB (should be 0.000000 MB)
          |
          | Largest tracked array allocation:
          |   Minimum:      103.003 MB (DFPT_pulay_mixing::initialize_pulay_mixing::X_in_diffs on task  0)
          |   Maximum:      103.003 MB (DFPT_pulay_mixing::initialize_pulay_mixing::X_in_diffs on task  0)
          |   Average:      103.003 MB
          |
          | Because the residual tracked memory usage was not zero, the peak value for overall
          | tracked memory usage was not output, as it is probably incorrect.  This is likely due
          | to a missing aims_deallocate statement in the source code, which should be otherwise
          | harmless.
          |
          Note:  These values currently only include a subset of arrays which are explicitly tracked.
          The "true" memory usage will be greater.

          Have a nice day.
------------------------------------------------------------
