------------------------------------------------------------
          Invoking FHI-aims ...

          When using FHI-aims, please cite the following reference:

            Volker Blum, Ralf Gehrke, Felix Hanke, Paula Havu,
            Ville Havu, Xinguo Ren, Karsten Reuter, and Matthias Scheffler,
            'Ab Initio Molecular Simulations with Numeric Atom-Centered Orbitals',
            Computer Physics Communications 180, 2175-2196 (2009)

          In addition, many other developments in FHI-aims are likely important for
          your particular application. A partial list of references is given at the end of
          this file. Thank you for giving credit to the authors of these developments.

          For any questions about FHI-aims, please visit our slack channel at

            https://fhi-aims.slack.com

          and our main development and support site at

            https://aims-git.rz-berlin.mpg.de .

          The latter site, in particular, has a wiki to collect information, as well
          as an issue tracker to log discussions, suggest improvements, and report issues
          or bugs. https://aims-git.rz-berlin.mpg.de is also the main development site
          of the project and all new and updated code versions can be obtained there.
          Please send an email to aims-coordinators@fhi-berlin.mpg.de and we will add
          you to these sites. They are for you and everyone is welcome there.

------------------------------------------------------------



  Date     :  20230120, Time     :  134957.108
  Time zero on CPU 1             :   0.381802000000000E+00  s.
  Internal wall clock time zero  :           443454597.108  s.

  FHI-aims created a unique identifier for this run for later identification
  aims_uuid : CC91516F-2A3A-468D-A24F-09369BFD4D03

  Build configuration of the current instance of FHI-aims
  -------------------------------------------------------
  FHI-aims version      : 220829
  Commit number         : 9895fc21d
  CMake host system     : Linux-5.3.18-150300.59.68-default
  CMake version         : 3.17.0
  Fortran compiler      : /mpcdf/soft/SLE_15/packages/x86_64/intel_oneapi/2021.3/mpi/2021.3.0/bin/mpiifort (Intel) version 20.2.3.20210609
  Fortran compiler flags: -O3 -ip -fp-model precise
  C compiler            : /mpcdf/soft/SLE_15/packages/x86_64/intel/2021.3.0/bin/icc (Intel) version 20.2.3.20210609
  C compiler flags      : -O3 -ip -fp-model precise -std=gnu99
  CUDA compiler         : /mpcdf/soft/SLE_15/packages/x86_64/cuda/11.6.2/bin/nvcc
  CUDA compiler flags   : -O3 -DAdd_ -lcublas
  ELPA2 kernel          : AVX512
  Using MPI
  Using ScaLAPACK
  Using LibXC
  Using CUDA
  Using i-PI
  Using RLSY
  Linking against: /mpcdf/soft/SLE_15/packages/x86_64/cuda/11.6.2/lib64/libcublas.so
                   /mpcdf/soft/SLE_15/packages/x86_64/cuda/11.6.2/lib64/libcudart.so
                   /mpcdf/soft/SLE_15/packages/x86_64/intel_oneapi/2021.3/mkl/latest/lib/intel64/libmkl_intel_lp64.so
                   /mpcdf/soft/SLE_15/packages/x86_64/intel_oneapi/2021.3/mkl/latest/lib/intel64/libmkl_sequential.so
                   /mpcdf/soft/SLE_15/packages/x86_64/intel_oneapi/2021.3/mkl/latest/lib/intel64/libmkl_core.so
                   /mpcdf/soft/SLE_15/packages/x86_64/intel_oneapi/2021.3/mkl/latest/lib/intel64/libmkl_blacs_intelmpi_lp64.so
                   /mpcdf/soft/SLE_15/packages/x86_64/intel_oneapi/2021.3/mkl/latest/lib/intel64/libmkl_scalapack_lp64.so

  Using       18 parallel tasks.
  Task        0 on host adag004 reporting.
  Task        1 on host adag004 reporting.
  Task        2 on host adag004 reporting.
  Task        3 on host adag004 reporting.
  Task        4 on host adag004 reporting.
  Task        5 on host adag004 reporting.
  Task        6 on host adag004 reporting.
  Task        7 on host adag004 reporting.
  Task        8 on host adag004 reporting.
  Task        9 on host adag004 reporting.
  Task       10 on host adag004 reporting.
  Task       11 on host adag004 reporting.
  Task       12 on host adag004 reporting.
  Task       13 on host adag004 reporting.
  Task       14 on host adag004 reporting.
  Task       15 on host adag004 reporting.
  Task       16 on host adag004 reporting.
  Task       17 on host adag004 reporting.

  Performing system and environment tests:
  | Environment variable OMP_NUM_THREADS correctly set to 1.
  | Checking for ScaLAPACK...
  | Testing pdtran()...
  | All pdtran() tests passed.

  Obtaining array dimensions for all initial allocations:
  
  -----------------------------------------------------------------------
  Parsing control.in (first pass over file, find array dimensions only).
  The contents of control.in will be repeated verbatim below
  unless switched off by setting 'verbatim_writeout .false.' .
  in the first line of control.in .
  -----------------------------------------------------------------------
  
  #
  # Input for polarizability replays on generic oligoacene molecular crystals (light settings,  LDA+MBD).
  #
  #########################################################################################
  #
  #  Physical model
  #
    xc                 pw-lda
    spin               none
    relativistic       none
    charge             0.0
    k_grid 	     2 1 1
    DFPT dielectric
  #
  #  GPU acceleration
  #
  # Turns on GPU acceleration everywhere
    use_gpu
  
  # Turns OFF GPU acceleration of ELPA - may be necessary if GPU ELPA is slow
    elsi_elpa_gpu 0
  #
  #  Relaxation
  #
  #  relax_geometry trm 1E-3
  #  relax_unit_cell fixed_angles
  #
  #  SCF convergence        #
    charge_mix_param   0.75
    #sc_accuracy_rho 1E-4
  #
  # i-PI communication
  #
  compute_forces .false.
  # use_pimd_wrapper 130.183.223.27 26118
  #communicate_pimd_wrapper polarizability
  #output_level MD_light
  #
  # Output SALTED info
    ri_density_restart write
    ri_rho1 write
    ri_full_output .true.
  #  sc_accuracy_rho    1d-6
    default_prodbas_acc 1e-6
    default_max_l_prodbas 6
  #
  #
  ################################################################################
  #
  #  FHI-aims code project
  #  VB, Fritz-Haber Institut, 2009
  #
  #  Suggested "light" defaults for H atom (to be pasted into control.in file)
  #  Be sure to double-check any results obtained with these settings for post-processing,
  #  e.g., with the "tight" defaults and larger basis sets.
  #
  ################################################################################
    species        H
  #     global species definitions
      nucleus             1
      mass                1.00794
  #
      l_hartree           4
  #
      cut_pot             3.5  1.5  1.0
      basis_dep_cutoff    1e-4
  #
      radial_base         24 5.0
      radial_multiplier   1
      angular_grids       specified
        division   0.2421   50
        division   0.3822  110
        division   0.4799  194
        division   0.5341  302
  #      division   0.5626  434
  #      division   0.5922  590
  #      division   0.6542  770
  #      division   0.6868 1202
  #      outer_grid  770
        outer_grid  302
  ################################################################################
  #
  #  Definition of "minimal" basis
  #
  ################################################################################
  #     valence basis states
      valence      1  s   1.
  #     ion occupancy
      ion_occ      1  s   0.5
  ################################################################################
  #
  #  Suggested additional basis functions. For production calculations,
  #  uncomment them one after another (the most important basis functions are
  #  listed first).
  #
  #  Basis constructed for dimers: 0.5 A, 0.7 A, 1.0 A, 1.5 A, 2.5 A
  #
  ################################################################################
  #  "First tier" - improvements: -1014.90 meV to -62.69 meV
       hydro 2 s 2.1
       hydro 2 p 3.5
  #  "Second tier" - improvements: -12.89 meV to -1.83 meV
  #     hydro 1 s 0.85
  #     hydro 2 p 3.7
  #     hydro 2 s 1.2
  #     hydro 3 d 7
  #  "Third tier" - improvements: -0.25 meV to -0.12 meV
  #     hydro 4 f 11.2
  #     hydro 3 p 4.8
  #     hydro 4 d 9
  #     hydro 3 s 3.2
  ################################################################################
  ################################################################################
  #
  #  FHI-aims code project
  #  VB, Fritz-Haber Institut, 2009
  #
  #  Suggested "light" defaults for C atom (to be pasted into control.in file)
  #  Be sure to double-check any results obtained with these settings for post-processing,
  #  e.g., with the "tight" defaults and larger basis sets.
  #
  ################################################################################
    species        C
  #     global species definitions
      nucleus             6
      mass                12.0107
  #
      l_hartree           4
  #
      cut_pot             3.5  1.5  1.0
      basis_dep_cutoff    1e-4
  #
      radial_base         34 5.0
      radial_multiplier   1
      angular_grids specified
        division   0.3326   50
        division   0.5710  110
        division   0.7727  194
        division   0.8772  302
  #      division   0.9334  434
  #      division   0.9625  590
  #      division   0.9924  770
  #      division   1.0230  974
  #      division   1.4589 1202
  #     outer_grid  974
       outer_grid 302
  ################################################################################
  #
  #  Definition of "minimal" basis
  #
  ################################################################################
  #     valence basis states
      valence      2  s   2.
      valence      2  p   2.
  #     ion occupancy
      ion_occ      2  s   1.
      ion_occ      2  p   1.
  ################################################################################
  #
  #  Suggested additional basis functions. For production calculations,
  #  uncomment them one after another (the most important basis functions are
  #  listed first).
  #
  #  Constructed for dimers: 1.0 A, 1.25 A, 1.5 A, 2.0 A, 3.0 A
  #
  ################################################################################
  #  "First tier" - improvements: -1214.57 meV to -155.61 meV
       hydro 2 p 1.7
       hydro 3 d 6
       hydro 2 s 4.9
  #  "Second tier" - improvements: -67.75 meV to -5.23 meV
  #     hydro 4 f 9.8
  #     hydro 3 p 5.2
  #     hydro 3 s 4.3
  #     hydro 5 g 14.4
  #     hydro 3 d 6.2
  #  "Third tier" - improvements: -2.43 meV to -0.60 meV
  #     hydro 2 p 5.6
  #     hydro 2 s 1.4
  #     hydro 3 d 4.9
  #     hydro 4 f 11.2
  #  "Fourth tier" - improvements: -0.39 meV to -0.18 meV
  #     hydro 2 p 2.1
  #     hydro 5 g 16.4
  #     hydro 4 d 13.2
  #     hydro 3 s 13.6
  #     hydro 4 f 17.6
  #  Further basis functions - improvements: -0.08 meV and below
  #     hydro 3 s 2
  #     hydro 3 p 6
  #     hydro 4 d 20
  
  -----------------------------------------------------------------------
  Completed first pass over input file control.in .
  -----------------------------------------------------------------------
  
  
  -----------------------------------------------------------------------
  Parsing geometry.in (first pass over file, find array dimensions only).
  The contents of geometry.in will be repeated verbatim below
  unless switched off by setting 'verbatim_writeout .false.' .
  in the first line of geometry.in .
  -----------------------------------------------------------------------
  
  #=======================================================
  # FHI-aims file: /ada/ptmp/mpsd/alewis/naphthalene/qmdata/data/geoms/311.in
  # Created using the Atomic Simulation Environment (ASE)
  # Thu Jan 19 15:19:17 2023
  #=======================================================
  lattice_vector 8.1020000000000003 0.0000000000000000 0.0000000000000000
  lattice_vector 0.0000000000000000 11.8800000000000008 0.0000000000000000
  lattice_vector -9.7850918486534706 0.0000000000000000 14.2571119625755713
  atom -0.8457550000000000 0.2375360000000000 2.4552000000000000 C
  atom 0.2411020000000000 3.1150500000000001 4.8081100000000001 C
  atom 4.1590199999999999 5.7018599999999999 4.7623199999999999 C
  atom 3.2683000000000000 2.9586999999999999 2.4656300000000000 C
  atom -0.1348370000000000 1.0210399999999999 1.6037100000000000 C
  atom -0.5092740000000000 3.9523600000000001 5.6212700000000000 C
  atom 3.4393600000000002 4.8852599999999997 5.5921900000000004 C
  atom 3.9633799999999999 2.0417000000000001 1.7285999999999999 C
  atom 0.1768700000000000 0.6531950000000000 0.2538810000000000 C
  atom -0.8728740000000000 3.5903600000000000 6.9456800000000003 C
  atom 3.0807500000000001 5.2788399999999998 6.8994099999999996 C
  atom 4.3352899999999996 2.3306300000000002 0.3823170000000000 C
  atom -3.7823500000000001 1.5144599999999999 6.7534599999999996 C
  atom 3.1926700000000001 4.5398899999999998 0.5955340000000000 C
  atom 7.2307199999999998 4.4672900000000002 0.5410430000000001 C
  atom 0.2896620000000000 1.4463400000000000 6.5843999999999996 C
  atom -3.3012000000000001 1.1513100000000001 5.5154100000000001 C
  atom 2.8665099999999999 4.2184799999999996 1.9035800000000000 C
  atom 6.8404800000000003 4.8037000000000001 1.8249899999999999 C
  atom 0.6310550000000000 1.8425400000000001 5.2828200000000001 C
  atom -1.1677299999999999 0.5379420000000000 3.4551699999999999 H
  atom 0.5824050000000000 3.4420199999999999 3.8293800000000000 H
  atom 4.3259999999999996 5.4092500000000001 3.7552699999999999 H
  atom 3.0720299999999998 2.7336299999999998 3.5176900000000000 H
  atom 0.2340610000000000 2.0091000000000001 1.9080100000000000 H
  atom -0.8857800000000000 4.8885500000000004 5.2721700000000000 H
  atom 3.0983399999999999 3.9078800000000000 5.2964300000000000 H
  atom 4.2826599999999999 1.0604899999999999 2.1426599999999998 H
  atom -3.4234200000000001 2.4257200000000001 7.2526500000000000 H
  atom 2.8836499999999998 5.4788800000000002 0.1512200000000000 H
  atom 6.9946099999999998 3.4840000000000000 0.1602240000000000 H
  atom 0.6225520000000000 0.4552540000000000 6.9187000000000003 H
  atom -2.6468200000000000 1.8279300000000001 4.9408599999999998 H
  atom 2.3136199999999998 4.9263700000000004 2.5415199999999998 H
  atom 6.2465400000000004 4.1061199999999998 2.4352999999999998 H
  atom 1.2184400000000000 1.2124299999999999 4.6355000000000004 H
  atom -5.8954899999999997 0.0257578000000000 9.4671800000000008 C
  atom -4.8479299999999999 2.8677500000000000 11.9774999999999991 C
  atom -0.5748170000000000 5.9313399999999996 12.0009999999999994 C
  atom -1.6306900000000000 2.7932399999999999 9.5123099999999994 C
  atom -5.1220600000000003 0.9365580000000000 8.7759900000000002 C
  atom -5.5841900000000004 3.8057500000000002 12.6782000000000004 C
  atom -1.3824500000000000 5.0649100000000002 12.7173999999999996 C
  atom -0.8736630000000000 1.9426600000000001 8.7523700000000009 C
  atom -4.6390000000000002 0.6309800000000000 7.4975600000000000 C
  atom -5.9060499999999996 3.5766800000000001 14.0334000000000003 C
  atom -1.7704100000000000 5.3655099999999996 14.0300999999999991 C
  atom -0.4741580000000000 2.3180000000000001 7.4328099999999999 C
  atom -8.8347300000000004 1.4429300000000000 13.6501000000000001 C
  atom -1.6285499999999999 4.4712500000000004 7.7739900000000004 C
  atom 2.3319800000000002 4.5019099999999996 7.8105300000000000 C
  atom -4.6839800000000000 1.3981600000000001 13.8878000000000004 C
  atom -8.5543499999999995 1.0203400000000000 12.3642000000000003 C
  atom -1.9854700000000001 4.0787399999999998 9.0259199999999993 C
  atom 1.9879300000000000 4.9588099999999997 9.0563900000000004 C
  atom -4.4058000000000002 1.6743800000000000 12.5611999999999995 C
  atom -6.2942299999999998 0.3245690000000000 10.4313000000000002 H
  atom -4.5537500000000000 3.1432000000000002 10.9540000000000006 H
  atom -0.3060800000000000 5.6561800000000000 10.9860000000000007 H
  atom -1.9753900000000000 2.4639600000000002 10.4947999999999997 H
  atom -4.9545700000000004 1.9463600000000001 9.1649999999999991 H
  atom -5.8118699999999999 4.7467199999999998 12.1834000000000007 H
  atom -1.6877300000000000 4.1214199999999996 12.2585999999999995 H
  atom -0.6498070000000000 0.9275230000000000 9.1013199999999994 H
  atom -8.5452499999999993 2.4022500000000000 14.0856999999999992 H
  atom -1.9781700000000000 5.4137700000000004 7.3217600000000003 H
  atom 1.9663600000000001 3.5516100000000002 7.4203099999999997 H
  atom -4.3079900000000002 0.4794670000000000 14.3078000000000003 H
  atom -8.0470199999999998 1.6553400000000000 11.6639999999999997 H
  atom -2.5504099999999998 4.7216699999999996 9.7063199999999998 H
  atom 1.3918200000000001 4.3051899999999996 9.7040500000000005 H
  atom -3.7999200000000002 1.0139100000000001 11.9699000000000009 H
  atom -0.8212390000000001 6.0158800000000001 2.4613999999999998 C
  atom 0.4007030000000000 9.0637799999999995 4.9066500000000000 C
  atom 4.3938300000000003 11.8246000000000002 4.9069500000000001 C
  atom 3.2066599999999998 9.0077999999999996 2.3662500000000000 C
  atom -0.0504909000000000 6.9159899999999999 1.7300899999999999 C
  atom -0.4571110000000000 9.8551400000000005 5.6491899999999999 C
  atom 3.5935299999999999 10.9700000000000006 5.6109299999999998 C
  atom 4.1191100000000000 8.2210999999999999 1.6983699999999999 C
  atom 0.3186890000000000 6.6075999999999997 0.3903670000000000 C
  atom -0.9667660000000000 9.4656800000000008 6.9323399999999999 C
  atom 3.1450200000000001 11.2357999999999993 6.9117199999999999 C
  atom 4.4122500000000002 8.4579500000000003 0.3563740000000000 C
  atom -3.6847599999999998 7.3481399999999999 6.5508600000000001 C
  atom 3.0927500000000001 10.5244999999999997 0.5080390000000000 C
  atom 7.0847800000000003 10.4601000000000006 0.6564520000000000 C
  atom 0.3907300000000000 7.3915800000000003 6.6500700000000004 C
  atom -3.4123800000000002 6.9408899999999996 5.2775499999999997 C
  atom 2.7300200000000001 10.2171000000000003 1.7755300000000001 C
  atom 6.7932399999999999 10.8660999999999994 1.9393199999999999 C
  atom 0.7745450000000000 7.7931200000000000 5.3808499999999997 C
  atom -1.0996400000000000 6.2897100000000004 3.4840700000000000 H
  atom 0.7662120000000000 9.3332200000000007 3.9003899999999998 H
  atom 4.6840400000000004 11.6181999999999999 3.8700399999999999 H
  atom 2.9369399999999999 8.7860499999999995 3.3948800000000001 H
  atom 0.2894910000000000 7.8339900000000000 2.2119499999999999 H
  atom -0.7682160000000000 10.8332999999999995 5.2741699999999998 H
  atom 3.2233399999999999 10.1140000000000008 5.0858100000000004 H
  atom 4.4903899999999997 7.3081800000000001 2.1932399999999999 H
  atom -3.2593800000000002 8.2893000000000008 6.9263700000000004 H
  atom 2.6368200000000002 11.4164999999999992 0.0308089000000000 H
  atom 6.7056600000000000 9.5010899999999996 0.2925530000000000 H
  atom 0.7802420000000000 6.4934599999999998 7.1397100000000000 H
  atom -2.7722000000000002 7.6177599999999996 4.7155399999999998 H
  atom 2.0863800000000001 10.8872000000000000 2.3366600000000002 H
  atom 6.1317599999999999 10.2045999999999992 2.5809899999999999 H
  atom 1.5271399999999999 7.2264799999999996 4.8162900000000004 H
  atom -5.6682300000000003 6.2159700000000004 9.4949399999999997 C
  atom -4.7857200000000004 8.9700100000000003 11.9286999999999992 C
  atom -0.8770030000000000 11.6190999999999995 11.9306999999999999 C
  atom -1.6987500000000000 8.5953700000000008 9.4591700000000003 C
  atom -4.8573800000000000 6.9771000000000001 8.6786799999999999 C
  atom -5.5602999999999998 9.8655200000000001 12.6239000000000008 C
  atom -1.5921300000000000 10.7956000000000003 12.7440999999999995 C
  atom -0.8173210000000000 7.8164199999999999 8.7322399999999991 C
  atom -4.5060599999999997 6.5529099999999998 7.3768200000000004 C
  atom -5.8597099999999998 9.6614299999999993 14.0039999999999996 C
  atom -1.9802599999999999 11.2579999999999991 14.0497999999999994 C
  atom -0.4504350000000000 8.1956100000000003 7.4341799999999996 C
  atom -8.7339000000000002 7.5005600000000001 13.8541000000000007 C
  atom -1.8139400000000001 10.2576999999999998 7.7263700000000002 C
  atom 2.3412400000000000 10.3499999999999996 7.6372900000000001 C
  atom -4.5839499999999997 7.5493199999999998 13.8515999999999995 C
  atom -8.3163300000000007 7.1553500000000003 12.5724999999999998 C
  atom -2.2060900000000001 9.8049099999999996 8.9775700000000001 C
  atom 1.9247600000000000 10.6248000000000005 8.9249200000000002 C
  atom -4.3169000000000004 7.7694799999999997 12.5353999999999992 C
  atom -5.9074600000000004 6.5762499999999999 10.4903999999999993 H
  atom -4.5225900000000001 9.1824899999999996 10.8977000000000004 H
  atom -0.6245330000000000 11.2510999999999992 10.9069000000000003 H
  atom -1.9890000000000001 8.2551799999999993 10.4715000000000007 H
  atom -4.4882700000000000 7.9231199999999999 9.0288400000000006 H
  atom -5.8784299999999998 10.7738999999999994 12.1874000000000002 H
  atom -1.9262100000000000 9.8152600000000003 12.4673999999999996 H
  atom -0.4930540000000000 6.8499100000000004 9.0919699999999999 H
  atom -8.4573800000000006 8.4798700000000000 14.2683999999999997 H
  atom -2.2120099999999998 11.1929999999999996 7.3232100000000004 H
  atom 2.1083500000000002 9.3508099999999992 7.2332299999999998 H
  atom -4.1782100000000000 6.6308400000000001 14.2952999999999992 H
  atom -7.7926700000000002 7.8951900000000004 11.9992999999999999 H
  atom -2.8726400000000001 10.4113000000000007 9.5857600000000005 H
  atom 1.3780600000000001 9.8711800000000007 9.5244900000000001 H
  atom -3.6817500000000001 7.0641900000000000 11.9570000000000007 H
  
  -----------------------------------------------------------------------
  Completed first pass over input file geometry.in .
  -----------------------------------------------------------------------
  

  Basic array size parameters:
  | Number of species                 :        2
  | Number of atoms                   :      144
  | Number of lattice vectors         :        3
  | Max. basis fn. angular momentum   :        2
  | Max. atomic/ionic basis occupied n:        2
  | Max. number of basis fn. types    :        2
  | Max. radial fns per species/type  :        3
  | Max. logarithmic grid size        :     1277
  | Max. radial integration grid size :       34
  | Max. angular integration grid size:      302
  | Max. angular grid division number :        8
  | Radial grid for Hartree potential :     1277
  | Number of spin channels           :        1

------------------------------------------------------------
          Reading file control.in.
------------------------------------------------------------
  XC: Using Perdew-Wang parametrisation of Ceperley-Alder LDA.
  Spin treatment: No spin polarisation.
  Non-relativistic treatment of kinetic energy.
  Charge =   0.000000E+00: Neutral system requested explicitly.
  Found k-point grid:         2         1         1
  DFPT calculation will begin after the DFT/HF calculation.
  Charge density mixing - mixing parameter:     0.7500
  Forces will not be computed.
 
  Reading configuration options for species H                   .
  | Found nuclear charge :   1.0000
  | Found atomic mass :    1.00794000000000      amu
  | Found l_max for Hartree potential  :   4
  | Found cutoff potl. onset [A], width [A], scale factor :    3.50000    1.50000    1.00000
  | Threshold for basis-dependent cutoff potential is   0.100000E-03
  | Found data for basic radial integration grid :    24 points, outermost radius =    5.000 A
  | Found multiplier for basic radial grid :   1
  | Found angular grid specification: user-specified.
  | Specified grid contains     5 separate shells.
  | Check grid settings after all constraints further below.
  | Found free-atom valence shell :  1 s   1.000
  | No ionic wave fns used. Skipping ion_occ.
  | Found hydrogenic basis function :  2 s   2.100
  | Found hydrogenic basis function :  2 p   3.500
  Species H                   : Missing cutoff potential type.
  Defaulting to exp(1/x)/(1-x)^2 type cutoff potential.
  Species H : No 'logarithmic' tag. Using default grid for free atom:
  | Default logarithmic grid data [bohr] : 0.1000E-03 0.1000E+03 0.1012E+01
  Species H : On-site basis accuracy parameter (for Gram-Schmidt orthonormalisation) not specified.
  Using default value basis_acc =  0.1000000E-03.
  Species H                   : Using default innermost maximum threshold i_radial=  2 for radial functions.
  Species H                   : Default cutoff onset for free atom density etc. : 0.35000000E+01 AA.
  Species H                   : Basic radial grid will be enhanced according to radial_multiplier =   1, to contain    24 grid points.
 
  Reading configuration options for species C                   .
  | Found nuclear charge :   6.0000
  | Found atomic mass :    12.0107000000000      amu
  | Found l_max for Hartree potential  :   4
  | Found cutoff potl. onset [A], width [A], scale factor :    3.50000    1.50000    1.00000
  | Threshold for basis-dependent cutoff potential is   0.100000E-03
  | Found data for basic radial integration grid :    34 points, outermost radius =    5.000 A
  | Found multiplier for basic radial grid :   1
  | Found angular grid specification: user-specified.
  | Specified grid contains     5 separate shells.
  | Check grid settings after all constraints further below.
  | Found free-atom valence shell :  2 s   2.000
  | Found free-atom valence shell :  2 p   2.000
  | No ionic wave fns used. Skipping ion_occ.
  | No ionic wave fns used. Skipping ion_occ.
  | Found hydrogenic basis function :  2 p   1.700
  | Found hydrogenic basis function :  3 d   6.000
  | Found hydrogenic basis function :  2 s   4.900
  Species C                   : Missing cutoff potential type.
  Defaulting to exp(1/x)/(1-x)^2 type cutoff potential.
  Species C : No 'logarithmic' tag. Using default grid for free atom:
  | Default logarithmic grid data [bohr] : 0.1000E-03 0.1000E+03 0.1012E+01
  Species C : On-site basis accuracy parameter (for Gram-Schmidt orthonormalisation) not specified.
  Using default value basis_acc =  0.1000000E-03.
  Species C                   : Using default innermost maximum threshold i_radial=  2 for radial functions.
  Species C                   : Default cutoff onset for free atom density etc. : 0.35000000E+01 AA.
  Species C                   : Basic radial grid will be enhanced according to radial_multiplier =   1, to contain    34 grid points.
 
  Finished reading input file 'control.in'.
 
------------------------------------------------------------


------------------------------------------------------------
          Reading geometry description geometry.in.
------------------------------------------------------------
  | The smallest distance between any two atoms is         1.05683167 AA.
  | The first atom of this pair is atom number                    114 .
  | The second atom of this pair is atom number                   134 .
  | Wigner-Seitz cell of the first atom image           0     0     0 .
  | (The Wigner-Seitz cell of the second atom is 0 0 0  by definition.)

  Symmetry information by spglib:
  | Precision set to  0.1E-04
  | Number of Operations  : 1
  | Space group           : 1
  | International         : P1
  | Schoenflies           : C1^1
  Input structure read successfully.
  The structure contains      144 atoms,  and a total of        544.000 electrons.

  Input geometry:
  | Unit cell:
  |        8.10200000        0.00000000        0.00000000
  |        0.00000000       11.88000000        0.00000000
  |       -9.78509185        0.00000000       14.25711196
  | Atomic structure:
  |       Atom                x [A]            y [A]            z [A]
  |    1: Species C            -0.84575500        0.23753600        2.45520000
  |    2: Species C             0.24110200        3.11505000        4.80811000
  |    3: Species C             4.15902000        5.70186000        4.76232000
  |    4: Species C             3.26830000        2.95870000        2.46563000
  |    5: Species C            -0.13483700        1.02104000        1.60371000
  |    6: Species C            -0.50927400        3.95236000        5.62127000
  |    7: Species C             3.43936000        4.88526000        5.59219000
  |    8: Species C             3.96338000        2.04170000        1.72860000
  |    9: Species C             0.17687000        0.65319500        0.25388100
  |   10: Species C            -0.87287400        3.59036000        6.94568000
  |   11: Species C             3.08075000        5.27884000        6.89941000
  |   12: Species C             4.33529000        2.33063000        0.38231700
  |   13: Species C            -3.78235000        1.51446000        6.75346000
  |   14: Species C             3.19267000        4.53989000        0.59553400
  |   15: Species C             7.23072000        4.46729000        0.54104300
  |   16: Species C             0.28966200        1.44634000        6.58440000
  |   17: Species C            -3.30120000        1.15131000        5.51541000
  |   18: Species C             2.86651000        4.21848000        1.90358000
  |   19: Species C             6.84048000        4.80370000        1.82499000
  |   20: Species C             0.63105500        1.84254000        5.28282000
  |   21: Species H            -1.16773000        0.53794200        3.45517000
  |   22: Species H             0.58240500        3.44202000        3.82938000
  |   23: Species H             4.32600000        5.40925000        3.75527000
  |   24: Species H             3.07203000        2.73363000        3.51769000
  |   25: Species H             0.23406100        2.00910000        1.90801000
  |   26: Species H            -0.88578000        4.88855000        5.27217000
  |   27: Species H             3.09834000        3.90788000        5.29643000
  |   28: Species H             4.28266000        1.06049000        2.14266000
  |   29: Species H            -3.42342000        2.42572000        7.25265000
  |   30: Species H             2.88365000        5.47888000        0.15122000
  |   31: Species H             6.99461000        3.48400000        0.16022400
  |   32: Species H             0.62255200        0.45525400        6.91870000
  |   33: Species H            -2.64682000        1.82793000        4.94086000
  |   34: Species H             2.31362000        4.92637000        2.54152000
  |   35: Species H             6.24654000        4.10612000        2.43530000
  |   36: Species H             1.21844000        1.21243000        4.63550000
  |   37: Species C            -5.89549000        0.02575780        9.46718000
  |   38: Species C            -4.84793000        2.86775000       11.97750000
  |   39: Species C            -0.57481700        5.93134000       12.00100000
  |   40: Species C            -1.63069000        2.79324000        9.51231000
  |   41: Species C            -5.12206000        0.93655800        8.77599000
  |   42: Species C            -5.58419000        3.80575000       12.67820000
  |   43: Species C            -1.38245000        5.06491000       12.71740000
  |   44: Species C            -0.87366300        1.94266000        8.75237000
  |   45: Species C            -4.63900000        0.63098000        7.49756000
  |   46: Species C            -5.90605000        3.57668000       14.03340000
  |   47: Species C            -1.77041000        5.36551000       14.03010000
  |   48: Species C            -0.47415800        2.31800000        7.43281000
  |   49: Species C            -8.83473000        1.44293000       13.65010000
  |   50: Species C            -1.62855000        4.47125000        7.77399000
  |   51: Species C             2.33198000        4.50191000        7.81053000
  |   52: Species C            -4.68398000        1.39816000       13.88780000
  |   53: Species C            -8.55435000        1.02034000       12.36420000
  |   54: Species C            -1.98547000        4.07874000        9.02592000
  |   55: Species C             1.98793000        4.95881000        9.05639000
  |   56: Species C            -4.40580000        1.67438000       12.56120000
  |   57: Species H            -6.29423000        0.32456900       10.43130000
  |   58: Species H            -4.55375000        3.14320000       10.95400000
  |   59: Species H            -0.30608000        5.65618000       10.98600000
  |   60: Species H            -1.97539000        2.46396000       10.49480000
  |   61: Species H            -4.95457000        1.94636000        9.16500000
  |   62: Species H            -5.81187000        4.74672000       12.18340000
  |   63: Species H            -1.68773000        4.12142000       12.25860000
  |   64: Species H            -0.64980700        0.92752300        9.10132000
  |   65: Species H            -8.54525000        2.40225000       14.08570000
  |   66: Species H            -1.97817000        5.41377000        7.32176000
  |   67: Species H             1.96636000        3.55161000        7.42031000
  |   68: Species H            -4.30799000        0.47946700       14.30780000
  |   69: Species H            -8.04702000        1.65534000       11.66400000
  |   70: Species H            -2.55041000        4.72167000        9.70632000
  |   71: Species H             1.39182000        4.30519000        9.70405000
  |   72: Species H            -3.79992000        1.01391000       11.96990000
  |   73: Species C            -0.82123900        6.01588000        2.46140000
  |   74: Species C             0.40070300        9.06378000        4.90665000
  |   75: Species C             4.39383000       11.82460000        4.90695000
  |   76: Species C             3.20666000        9.00780000        2.36625000
  |   77: Species C            -0.05049090        6.91599000        1.73009000
  |   78: Species C            -0.45711100        9.85514000        5.64919000
  |   79: Species C             3.59353000       10.97000000        5.61093000
  |   80: Species C             4.11911000        8.22110000        1.69837000
  |   81: Species C             0.31868900        6.60760000        0.39036700
  |   82: Species C            -0.96676600        9.46568000        6.93234000
  |   83: Species C             3.14502000       11.23580000        6.91172000
  |   84: Species C             4.41225000        8.45795000        0.35637400
  |   85: Species C            -3.68476000        7.34814000        6.55086000
  |   86: Species C             3.09275000       10.52450000        0.50803900
  |   87: Species C             7.08478000       10.46010000        0.65645200
  |   88: Species C             0.39073000        7.39158000        6.65007000
  |   89: Species C            -3.41238000        6.94089000        5.27755000
  |   90: Species C             2.73002000       10.21710000        1.77553000
  |   91: Species C             6.79324000       10.86610000        1.93932000
  |   92: Species C             0.77454500        7.79312000        5.38085000
  |   93: Species H            -1.09964000        6.28971000        3.48407000
  |   94: Species H             0.76621200        9.33322000        3.90039000
  |   95: Species H             4.68404000       11.61820000        3.87004000
  |   96: Species H             2.93694000        8.78605000        3.39488000
  |   97: Species H             0.28949100        7.83399000        2.21195000
  |   98: Species H            -0.76821600       10.83330000        5.27417000
  |   99: Species H             3.22334000       10.11400000        5.08581000
  |  100: Species H             4.49039000        7.30818000        2.19324000
  |  101: Species H            -3.25938000        8.28930000        6.92637000
  |  102: Species H             2.63682000       11.41650000        0.03080890
  |  103: Species H             6.70566000        9.50109000        0.29255300
  |  104: Species H             0.78024200        6.49346000        7.13971000
  |  105: Species H            -2.77220000        7.61776000        4.71554000
  |  106: Species H             2.08638000       10.88720000        2.33666000
  |  107: Species H             6.13176000       10.20460000        2.58099000
  |  108: Species H             1.52714000        7.22648000        4.81629000
  |  109: Species C            -5.66823000        6.21597000        9.49494000
  |  110: Species C            -4.78572000        8.97001000       11.92870000
  |  111: Species C            -0.87700300       11.61910000       11.93070000
  |  112: Species C            -1.69875000        8.59537000        9.45917000
  |  113: Species C            -4.85738000        6.97710000        8.67868000
  |  114: Species C            -5.56030000        9.86552000       12.62390000
  |  115: Species C            -1.59213000       10.79560000       12.74410000
  |  116: Species C            -0.81732100        7.81642000        8.73224000
  |  117: Species C            -4.50606000        6.55291000        7.37682000
  |  118: Species C            -5.85971000        9.66143000       14.00400000
  |  119: Species C            -1.98026000       11.25800000       14.04980000
  |  120: Species C            -0.45043500        8.19561000        7.43418000
  |  121: Species C            -8.73390000        7.50056000       13.85410000
  |  122: Species C            -1.81394000       10.25770000        7.72637000
  |  123: Species C             2.34124000       10.35000000        7.63729000
  |  124: Species C            -4.58395000        7.54932000       13.85160000
  |  125: Species C            -8.31633000        7.15535000       12.57250000
  |  126: Species C            -2.20609000        9.80491000        8.97757000
  |  127: Species C             1.92476000       10.62480000        8.92492000
  |  128: Species C            -4.31690000        7.76948000       12.53540000
  |  129: Species H            -5.90746000        6.57625000       10.49040000
  |  130: Species H            -4.52259000        9.18249000       10.89770000
  |  131: Species H            -0.62453300       11.25110000       10.90690000
  |  132: Species H            -1.98900000        8.25518000       10.47150000
  |  133: Species H            -4.48827000        7.92312000        9.02884000
  |  134: Species H            -5.87843000       10.77390000       12.18740000
  |  135: Species H            -1.92621000        9.81526000       12.46740000
  |  136: Species H            -0.49305400        6.84991000        9.09197000
  |  137: Species H            -8.45738000        8.47987000       14.26840000
  |  138: Species H            -2.21201000       11.19300000        7.32321000
  |  139: Species H             2.10835000        9.35081000        7.23323000
  |  140: Species H            -4.17821000        6.63084000       14.29530000
  |  141: Species H            -7.79267000        7.89519000       11.99930000
  |  142: Species H            -2.87264000       10.41130000        9.58576000
  |  143: Species H             1.37806000        9.87118000        9.52449000
  |  144: Species H            -3.68175000        7.06419000       11.95700000

  Lattice parameters for 3D lattice (in Angstroms) :     8.102000   11.880000   17.292000
  Angle(s) between unit vectors (in degrees)       :    90.000000  124.463000   90.000000


  Quantities derived from the lattice vectors (in Angstrom^-1):
  | Reciprocal lattice vector 1:  0.775510  0.000000  0.532257
  | Reciprocal lattice vector 2:  0.000000  0.528888  0.000000
  | Reciprocal lattice vector 3: -0.000000  0.000000  0.440705
  | Unit cell volume                               :   0.137227E+04  Angstrom^3

  Fractional coordinates:
                         L1                L2                L3
       atom_frac         0.10359465        0.01999461        0.17220879  C
       atom_frac         0.43705936        0.26220960        0.33724292  C
       atom_frac         0.91675461        0.47995455        0.33403118  C
       atom_frac         0.61226083        0.24904882        0.17294035  C
       atom_frac         0.11920985        0.08594613        0.11248491  C
       atom_frac         0.41332701        0.33269024        0.39427831  C
       atom_frac         0.89822895        0.41121717        0.39223863  C
       atom_frac         0.63561726        0.17186027        0.12124475  C
       atom_frac         0.04333699        0.05498274        0.01780732  C
       atom_frac         0.48064164        0.30221886        0.48717300  C
       atom_frac         0.96470329        0.44434680        0.48392760  C
       atom_frac         0.56747542        0.19618098        0.02681588  C
       atom_frac         0.10525254        0.12747980        0.47369061  C
       atom_frac         0.44450792        0.38214562        0.04177101  C
       atom_frac         0.93829355        0.37603451        0.03794899  C
       atom_frac         0.59352469        0.12174579        0.46183266  C
       atom_frac         0.05976234        0.09691162        0.38685324  C
       atom_frac         0.51505741        0.35509091        0.13351792  C
       atom_frac         0.99889243        0.40435185        0.12800559  C
       atom_frac         0.52540310        0.15509596        0.37053928  C
       atom_frac         0.14856317        0.04528131        0.24234712  H
       atom_frac         0.39627568        0.28973232        0.26859437  H
       atom_frac         0.85205586        0.45532407        0.26339626  H
       atom_frac         0.67715727        0.23010354        0.24673230  H
       atom_frac         0.19051921        0.16911616        0.13382865  H
       atom_frac         0.33728357        0.41149411        0.36979228  H
       atom_frac         0.83108391        0.32894613        0.37149389  H
       atom_frac         0.71010035        0.08926684        0.15028710  H
       atom_frac         0.19184096        0.20418519        0.50870401  H
       atom_frac         0.36872833        0.46118519        0.01060664  H
       atom_frac         0.87689171        0.29326599        0.01123818  H
       atom_frac         0.66293105        0.03832104        0.48528061  H
       atom_frac         0.09185921        0.15386616        0.34655406  H
       atom_frac         0.50085693        0.41467761        0.17826331  H
       atom_frac         0.97728473        0.34563300        0.17081300  H
       atom_frac         0.54306657        0.10205640        0.32513598  H
       atom_frac         0.07431808        0.00216816        0.66403210  C
       atom_frac         0.41626690        0.24139310        0.84010703  C
       atom_frac         0.94567221        0.49927104        0.84175533  C
       atom_frac         0.60452965        0.23512121        0.66719754  C
       atom_frac         0.11122812        0.07883485        0.61555173  C
       atom_frac         0.38475022        0.32034933        0.88925443  C
       atom_frac         0.90667619        0.42633923        0.89200394  C
       atom_frac         0.63359123        0.16352357        0.61389502  C
       atom_frac         0.06255303        0.05311279        0.52588210  C
       atom_frac         0.45982492        0.30106734        0.98430875  C
       atom_frac         0.96999217        0.45164226        0.98407728  C
       atom_frac         0.57111908        0.19511785        0.52134051  C
       atom_frac         0.06587892        0.12145875        0.95742392  C
       atom_frac         0.45753851        0.37636785        0.54527102  C
       atom_frac         0.94946748        0.37894865        0.54783395  C
       atom_frac         0.59832656        0.11769024        0.97409630  C
       atom_frac        -0.00844501        0.08588721        0.86723034  C
       atom_frac         0.51953775        0.34332828        0.63308193  C
       atom_frac         1.01254102        0.41740825        0.63521911  C
       atom_frac         0.52028334        0.14094108        0.88104800  C
       atom_frac         0.10677489        0.02732062        0.73165589  H
       atom_frac         0.36587449        0.26457912        0.76831830  H
       atom_frac         0.89285950        0.47610943        0.77056279  H
       atom_frac         0.64521255        0.20740404        0.73610981  H
       atom_frac         0.16485432        0.16383502        0.64283706  H
       atom_frac         0.31473339        0.39955556        0.85454895  H
       atom_frac         0.83013108        0.34692088        0.85982351  H
       atom_frac         0.69078094        0.07807433        0.63837052  H
       atom_frac         0.13850859        0.20220960        0.98797709  H
       atom_frac         0.37607723        0.45570455        0.51355141  H
       atom_frac         0.87128433        0.29895707        0.52046375  H
       atom_frac         0.68031234        0.04035918        1.00355528  H
       atom_frac        -0.00514196        0.13933838        0.81811801  H
       atom_frac         0.50744683        0.39744697        0.68080548  H
       atom_frac         0.99382945        0.36238973        0.68064626  H
       atom_frac         0.54497511        0.08534596        0.83957396  H
       atom_frac         0.10714578        0.50638721        0.17264366  C
       atom_frac         0.46510577        0.76294444        0.34415455  C
       atom_frac         0.95798813        0.99533670        0.34417560  C
       atom_frac         0.59623423        0.75823232        0.16596980  C
       atom_frac         0.14032619        0.58215404        0.12134926  C
       atom_frac         0.42213044        0.82955724        0.39623663  C
       atom_frac         0.91884508        0.92340067        0.39355306  C
       atom_frac         0.65227762        0.69201178        0.11912441  C
       atom_frac         0.07240309        0.55619529        0.02738051  C
       atom_frac         0.46792285        0.79677441        0.48623733  C
       atom_frac         0.97367869        0.94577441        0.48479103  C
       atom_frac         0.57477664        0.71194865        0.02499623  C
       atom_frac         0.10013521        0.61853030        0.45948015  C
       atom_frac         0.42476335        0.88590067        0.03563408  C
       atom_frac         0.93005716        0.88047980        0.04604383  C
       atom_frac         0.61156213        0.62218687        0.46643879  C
       atom_frac         0.02589039        0.58425000        0.37016964  C
       atom_frac         0.48736368        0.86002525        0.12453644  C
       atom_frac         1.00274680        0.91465488        0.13602474  C
       atom_frac         0.55141778        0.65598653        0.37741515  C
       atom_frac         0.15941542        0.52943687        0.24437418  H
       atom_frac         0.42497765        0.78562458        0.27357504  H
       atom_frac         0.90596973        0.97796296        0.27144628  H
       atom_frac         0.65008022        0.73956650        0.23811835  H
       atom_frac         0.22310786        0.65942677        0.15514713  H
       atom_frac         0.35196348        0.91189394        0.36993257  H
       atom_frac         0.82867032        0.85134680        0.35672091  H
       atom_frac         0.74002440        0.61516667        0.15383480  H
       atom_frac         0.18444822        0.69775253        0.48581859  H
       atom_frac         0.32806284        0.96098485        0.00216095  H
       atom_frac         0.85243743        0.79975505        0.02051979  H
       atom_frac         0.70111618        0.54658754        0.50078235  H
       atom_frac         0.05729687        0.64122559        0.33075002  H
       atom_frac         0.45545559        0.91643098        0.16389434  H
       atom_frac         0.97545944        0.85897306        0.18103176  H
       atom_frac         0.59648322        0.60828956        0.33781666  H
       atom_frac         0.10471953        0.52322980        0.66597920  C
       atom_frac         0.41981135        0.75505135        0.83668418  C
       atom_frac         0.90241930        0.97803872        0.83682446  C
       atom_frac         0.59162769        0.72351599        0.66347028  C
       atom_frac         0.13565335        0.58729798        0.60872637  C
       atom_frac         0.38309905        0.83043098        0.88544581  C
       atom_frac         0.88305795        0.90872054        0.89387669  C
       atom_frac         0.63884008        0.65794781        0.61248309  C
       atom_frac         0.06873329        0.55159175        0.51741335  C
       atom_frac         0.46305398        0.81325168        0.98224662  C
       atom_frac         0.94575997        0.94764310        0.98545905  C
       atom_frac         0.57416317        0.68986616        0.52143660  C
       atom_frac         0.09560509        0.63136027        0.97173257  C
       atom_frac         0.43062256        0.86344276        0.54193093  C
       atom_frac         0.93593503        0.87121212        0.53568282  C
       atom_frac         0.60760634        0.63546465        0.97155722  C
       atom_frac         0.03857827        0.60230219        0.88184059  C
       atom_frac         0.48821165        0.82532912        0.62969064  C
       atom_frac         0.99360719        0.89434343        0.62599775  C
       atom_frac         0.52907039        0.65399663        0.87923838  C
       atom_frac         0.15951892        0.55355640        0.73580119  H
       atom_frac         0.36495121        0.77293687        0.76436939  H
       atom_frac         0.84685336        0.94706229        0.76501468  H
       atom_frac         0.64155895        0.69488047        0.73447554  H
       atom_frac         0.21087373        0.66692929        0.63328674  H
       atom_frac         0.30685698        0.90689394        0.85482951  H
       atom_frac         0.81838408        0.82620034        0.87446883  H
       atom_frac         0.70933634        0.57659175        0.63771471  H
       atom_frac         0.16483080        0.71379377        1.00079175  H
       atom_frac         0.34733806        0.94217172        0.51365312  H
       atom_frac         0.87296185        0.78710522        0.50734188  H
       atom_frac         0.69527172        0.55815152        1.00267853  H
       atom_frac         0.05465520        0.66457828        0.84163609  H
       atom_frac         0.45746238        0.87637205        0.67234935  H
       atom_frac         0.97692035        0.83090741        0.66805185  H
       atom_frac         0.55846762        0.59462879        0.83866915  H

 
  Finished reading input file 'geometry.in'.
 

 
  Consistency checks for stacksize environment parameter are next.
 
  | Maximum stacksize for task 0: unlimited
  | Maximum stacksize for task 1: unlimited
  | Maximum stacksize for task 2: unlimited
  | Maximum stacksize for task 3: unlimited
  | Maximum stacksize for task 4: unlimited
  | Maximum stacksize for task 5: unlimited
  | Maximum stacksize for task 6: unlimited
  | Maximum stacksize for task 7: unlimited
  | Maximum stacksize for task 8: unlimited
  | Maximum stacksize for task 9: unlimited
  | Maximum stacksize for task 10: unlimited
  | Maximum stacksize for task 11: unlimited
  | Maximum stacksize for task 12: unlimited
  | Maximum stacksize for task 13: unlimited
  | Maximum stacksize for task 14: unlimited
  | Maximum stacksize for task 15: unlimited
  | Maximum stacksize for task 16: unlimited
  | Maximum stacksize for task 17: unlimited
  | Current stacksize for task 0: unlimited
  | Current stacksize for task 1: unlimited
  | Current stacksize for task 2: unlimited
  | Current stacksize for task 3: unlimited
  | Current stacksize for task 4: unlimited
  | Current stacksize for task 5: unlimited
  | Current stacksize for task 6: unlimited
  | Current stacksize for task 7: unlimited
  | Current stacksize for task 8: unlimited
  | Current stacksize for task 9: unlimited
  | Current stacksize for task 10: unlimited
  | Current stacksize for task 11: unlimited
  | Current stacksize for task 12: unlimited
  | Current stacksize for task 13: unlimited
  | Current stacksize for task 14: unlimited
  | Current stacksize for task 15: unlimited
  | Current stacksize for task 16: unlimited
  | Current stacksize for task 17: unlimited
 
  Consistency checks for the contents of control.in are next.
 
  MPI_IN_PLACE appears to work with this MPI implementation.
  | Keeping use_mpi_in_place .true. (see manual).
  Explicit treatment of the Coulomb operator is needed, but the RI method is not specified.
  Coulomb operator: Defaulting to 'LVL fast' resolution of identity - RI_type = LVL_fast
  Species H: Using default value for prodbas_acc =   1.000000E-06.
  Species H: Using default value max_l_prodbas =     6.
  Species C: Using default value for prodbas_acc =   1.000000E-06.
  Species C: Using default value max_l_prodbas =     6.
  Target number of points in a grid batch is not set.  Since GPU acceleration is enabled, defaulting to  200
  Method for grid partitioning is not set. Defaulting to parallel hash+maxmin partitioning.
  Batch size limit is not set. Defaulting to    200
  By default, will store active basis functions for each batch.
  If in need of memory, prune_basis_once .false. can be used to disable this option.
  communication_type for Hartree potential was not specified.
  Defaulting to calc_hartree .
  Defaulting to Pulay charge density mixer.
  Pulay mixer: Number of relevant iterations not set.
  Defaulting to    8 iterations.
  Pulay mixer: Number of initial linear mixing iterations not set.
  Defaulting to    0 iterations.
  Work space size for distributed Hartree potential not set.
  Defaulting to   0.200000E+03 MB.
  Algorithm-dependent basis array size parameters:
  | n_max_pulay                         :        8
  Maximum number of self-consistency iterations not provided.
  Presetting  1000 iterations.
  Presetting      1001 iterations before the initial mixing cycle
  is restarted anyway using the sc_init_iter criterion / keyword.
  Presetting a factor      1.000 between actual scf density residual
  and density convergence criterion sc_accuracy_rho below which sc_init_iter
  takes no effect.
 * No s.c.f. convergence criteria (sc_accuracy_*) were provided in control.in.
 * The run will proceed with a reasonable default guess, but please check whether.
 * the s.c.f. cycles seem to take too much or too little time.
  Geometry relaxation not requested: no relaxation will be performed.
 * Notice: The s.c.f. convergence criterion sc_accuracy_rho was not provided.
 * We used to stop in this case, and ask the user to provide reasonable
 * scf convergence criteria. However, this led some users to employ criteria
 * that led to extremely long run times, e.g., for simple relaxation.
 * We now preset a default value for sc_accuracy_rho if it is not set.
 * You may still wish to check if this setting is too tight or too loose for your needs.
 * Based on n_atoms and forces and force-correction status, FHI-aims chose sc_accuracy_rho =  0.391918E-04 .
  No accuracy limit for integral partition fn. given. Defaulting to  0.1000E-14.
  No threshold value for u(r) in integrations given. Defaulting to  0.1000E-05.
  No occupation type (smearing scheme) given. Defaulting to Gaussian broadening, width =  0.1000E-01 eV.
  The width will be adjusted in iteration number     2 of the first full s.c.f. cycle only.
  S.C.F. convergence parameters will be adjusted in iteration number     2 of the first full s.c.f. cycle only.
  No accuracy for occupation numbers given. Defaulting to  0.1000E-12.
  No threshold value for occupation numbers given. Defaulting to  0.0000E+00.
  No accuracy for fermi level given. Defaulting to  0.1000E-19.
  Maximum # of iterations to find E_F not set. Defaulting to  200.
  Preferred method for the eigenvalue solver ('KS_method') not specified in 'control.in'.
  Calling BLACS routine to test compilation state
  Since ScaLAPACK support is enabled, defaulting to ELPA (via ELSI).
  Will not use alltoall communication since running on < 1024 CPUs.
  Threshold for basis singularities not set.
  Default threshold for basis singularities:  0.1000E-04
  partition_type (choice of integration weights) for integrals was not specified.
  | Using a version of the partition function of Stratmann and coworkers ('stratmann_sparse').
  | At each grid point, the set of atoms used to build the partition table is smoothly restricted to
  | only those atoms whose free-atom density would be non-zero at that grid point.
  Partitioning for Hartree potential was not defined. Using partition_type for integrals.
  | Adjusted default value of keyword multip_moments_threshold to:       0.10000000E-11
  | This value may affect high angular momentum components of the Hartree potential in periodic systems.
  Angular momentum expansion for Kerker preconditioner not set explicitly.
  | Using default value of   0
  No explicit requirement for turning off preconditioner.
  | By default, it will be turned off when the charge convergence reaches
  | sc_accuracy_rho  =   0.391918E-04
  No special mixing parameter while Kerker preconditioner is on.
  Using default: charge_mix_param =     0.7500.
  Threshold for auxiliary basis singularities not set.
  Default threshold for auxiliary basis singularities:  0.1000E-04
  No q(lm)/r^(l+1) cutoff set for long-range Hartree potential.
  | Using default value of  0.100000E-09 .
  | Verify using the multipole_threshold keyword.
  Defaulting to new monopole extrapolation.
  Density update method: automatic selection selected.
  Using density matrix based charge density update.
  Using density matrix based charge density update.
  Using packed matrix style: index .
  Defaulting to use time-reversal symmetry for k-point grid.
  Charge integration errors on the 3D integration grid will be compensated
  by explicit normalization and distribution of residual charges.
  Use the "compensate_multipole_errors" flag to change this behaviour.
  Default to 1D ("use_logsbt") integrations for auxiliary 2-center integrals.
  Default onset of logarithmic r-grid for SBT is -38.000000000000
  Default onset of logarithmic k-grid for SBT is -25.000000000000
  Default range of logarithmic r- and k-grid for SBT is  45.000000000000
  Default number of logarithmic r- and k-grid for SBT is   4096
  Default of use_2d_corr is to use the efficient 2D distribution where possible
 
  Consistency checks for the contents of geometry.in are next.
 

  Range separation radius for Ewald summation (hartree_convergence_parameter):      2.91768261 bohr.
  Number of empty states per atom not set in control.in .
  | Since you are using a method that relies on the unoccupied spectrum
  | (MP2,GW,RPA et al.), will use the full Hamiltonian size (see below)
  | as the max. possible number of states (occupied plus empty).

  Structure-dependent array size parameters: 
  | Maximum number of distinct radial functions  :        9
  | Maximum number of basis functions            :     1440
  | Number of Kohn-Sham states (occupied + empty):     1440
------------------------------------------------------------
CUDA runtime version: 11060
CUDA driver version: 11060
  Initializing GPUs...

  Number of GPUs available to MPI task         0 :   1
  Number of GPUs available to MPI task         1 :   1
  Number of GPUs available to MPI task         2 :   1
  Number of GPUs available to MPI task         3 :   1
  Number of GPUs available to MPI task         4 :   1
  Number of GPUs available to MPI task         5 :   1
  Number of GPUs available to MPI task         6 :   1
  Number of GPUs available to MPI task         7 :   1
  Number of GPUs available to MPI task         8 :   1
  Number of GPUs available to MPI task         9 :   1
  Number of GPUs available to MPI task        10 :   1
  Number of GPUs available to MPI task        11 :   1
  Number of GPUs available to MPI task        12 :   1
  Number of GPUs available to MPI task        13 :   1
  Number of GPUs available to MPI task        14 :   1
  Number of GPUs available to MPI task        15 :   1
  Number of GPUs available to MPI task        16 :   1
  Number of GPUs available to MPI task        17 :   1

  | MPI task         0, GPU activated = T, Device Name = NVIDIA A100-SXM4-80GB
  | MPI task         1, GPU activated = T, Device Name = NVIDIA A100-SXM4-80GB
  | MPI task         2, GPU activated = T, Device Name = NVIDIA A100-SXM4-80GB
  | MPI task         3, GPU activated = T, Device Name = NVIDIA A100-SXM4-80GB
  | MPI task         4, GPU activated = T, Device Name = NVIDIA A100-SXM4-80GB
  | MPI task         5, GPU activated = T, Device Name = NVIDIA A100-SXM4-80GB
  | MPI task         6, GPU activated = T, Device Name = NVIDIA A100-SXM4-80GB
  | MPI task         7, GPU activated = T, Device Name = NVIDIA A100-SXM4-80GB
  | MPI task         8, GPU activated = T, Device Name = NVIDIA A100-SXM4-80GB
  | MPI task         9, GPU activated = T, Device Name = NVIDIA A100-SXM4-80GB
  | MPI task        10, GPU activated = T, Device Name = NVIDIA A100-SXM4-80GB
  | MPI task        11, GPU activated = T, Device Name = NVIDIA A100-SXM4-80GB
  | MPI task        12, GPU activated = T, Device Name = NVIDIA A100-SXM4-80GB
  | MPI task        13, GPU activated = T, Device Name = NVIDIA A100-SXM4-80GB
  | MPI task        14, GPU activated = T, Device Name = NVIDIA A100-SXM4-80GB
  | MPI task        15, GPU activated = T, Device Name = NVIDIA A100-SXM4-80GB
  | MPI task        16, GPU activated = T, Device Name = NVIDIA A100-SXM4-80GB
  | MPI task        17, GPU activated = T, Device Name = NVIDIA A100-SXM4-80GB

------------------------------------------------------------
          Preparing all fixed parts of the calculation.
------------------------------------------------------------
  Determining machine precision:
    2.225073858507201E-308
  Setting up grids for atomic and cluster calculations.

  Creating wave function, potential, and density for free atoms.
  Runtime choices for atomic solver:
  | atomic solver xc        : PW-LDA
  | compute density gradient: 0
  | compute kinetic density : F

  Species: H

  List of occupied orbitals and eigenvalues:
    n    l              occ      energy [Ha]    energy [eV]
    1    0           1.0000        -0.232375        -6.3233


  Species: C

  List of occupied orbitals and eigenvalues:
    n    l              occ      energy [Ha]    energy [eV]
    1    0           2.0000        -9.944615      -270.6068
    2    0           2.0000        -0.498807       -13.5732
    2    1           2.0000        -0.196968        -5.3598


  Adding cutoff potential to free-atom effective potential.
  Creating fixed part of basis set: Ionic, confined, hydrogenic.
 
  H                    hydrogenic:
 
  List of hydrogenic basis orbitals: 
    n    l      effective z      eigenvalue [eV]  inner max. [A]     outer max. [A]     outer radius [A]   
    2    0         2.100000       -14.9728           0.193243           1.317208           4.583499
    2    1         3.500000       -41.6669           0.602369           0.602369           3.723403
 
 
  C                    hydrogenic:
 
  List of hydrogenic basis orbitals: 
    n    l      effective z      eigenvalue [eV]  inner max. [A]     outer max. [A]     outer radius [A]   
    2    1         1.700000        -9.7616           1.230570           1.230570           4.607917
    3    2         6.000000       -54.4224           0.792453           0.792453           3.883070
    2    0         4.900000       -81.6679           0.082559           0.562749           3.078220
 
  Creating atomic-like basis functions for current effective potential.

  Species H                   :

  List of atomic basis orbitals and eigenvalues:
    n    l      energy [Ha]    energy [eV]    outer radius [A]
    1    0        -0.232375        -6.3233       4.527807


  Species C                   :

  List of atomic basis orbitals and eigenvalues:
    n    l      energy [Ha]    energy [eV]    outer radius [A]
    1    0        -9.944615      -270.6068       1.934409
    2    0        -0.498807       -13.5732       4.496620
    2    1        -0.196968        -5.3598       4.551928

  Assembling full basis from fixed parts.
  | Species H :   atomic orbital   1 s accepted.
  | Species H :    hydro orbital   2 s accepted.
  | Species H :    hydro orbital   2 p accepted.
  | Species C :   atomic orbital   1 s accepted.
  | Species C :    hydro orbital   2 s accepted.
  | Species C :   atomic orbital   2 s accepted.
  | Species C :   atomic orbital   2 p accepted.
  | Species C :    hydro orbital   2 p accepted.
  | Species C :    hydro orbital   3 d accepted.
 
  Basis size parameters after reduction:
  | Total number of radial functions:        9
  | Total number of basis functions :     1440
 
  Per-task memory consumption for arrays in subroutine allocate_ext:
  |           2.242384MB.
  Testing on-site integration grid accuracy.
  |  Species  Function  <phi|h_atom|phi> (log., in eV)  <phi|h_atom|phi> (rad., in eV)
           1        1                 -6.3245358373                 -6.3232436907
           1        2                 14.1326137532                 14.1384481100
           1        3                 25.3627025200                 25.3628451197
           2        4               -270.6067544938               -270.6067222788
           2        5                -10.5634280949                -10.5635685736
           2        6                 16.2089822398                 16.2052121796
           2        7                 -5.3613872565                 -5.3627872378
           2        8                  8.5292058327                  8.5051734780
           2        9                 27.4884461005                 27.4884542459

  Preparing densities etc. for the partition functions (integrals / Hartree potential).

  Preparations completed.
  max(cpu_time)          :      0.074 s.
  Wall clock time (cpu1) :      0.070 s.
------------------------------------------------------------

  Initializing index lists of integration centers etc. from given atomic structure:
  Mapping all atomic coordinates to central unit cell.

  Initializing the k-points
  Using symmetry for reducing the k-points
  | k-points reduced from:        2 to        2
  | Number of k-points                             :         2
  | Consuming          0 KiB for k_phase_exx.
  The eigenvectors in the calculations are REAL.
  | Number of basis functions in the Hamiltonian integrals :      8067
  | Number of basis functions in a single unit cell        :      1440
  | Number of centers in hartree potential         :      3330
  | Number of centers in hartree multipole         :      2544
  | Number of centers in electron density summation:      1994
  | Number of centers in basis integrals           :      2127
  | Number of centers in integrals                 :       969
  | Number of centers in hamiltonian               :      2003
  | Consuming          1 KiB for k_phase.
  | Number of super-cells (origin) [n_cells]                     :         175
  | Number of super-cells (after PM_index) [n_cells]             :          40
  | Number of super-cells in hamiltonian [n_cells_in_hamiltonian]:          40
  | Size of matrix packed + index [n_hamiltonian_matrix_size] :     1930560
  | Size of matrix packed + index (no_symmetry):     3858303

------------------------------------------------------------
          Begin self-consistency loop: Initialization.

          Date     :  20230120, Time     :  135013.232
------------------------------------------------------------
  | Estimated reciprocal-space cutoff momentum G_max:         3.24344278 bohr^-1 .
  | Reciprocal lattice points for long-range Hartree potential:    5310
  Using simple linear distribution as default method for k-point parallelism.
  * Using 18 tasks for Scalapack Eigenvalue solver.
  Detailed listing of tasks and assigned k-points:
   Task     0 k-point     1 on adag004
   Task     1 k-point     1 on adag004
   Task     2 k-point     1 on adag004
   Task     3 k-point     1 on adag004
   Task     4 k-point     1 on adag004
   Task     5 k-point     1 on adag004
   Task     6 k-point     1 on adag004
   Task     7 k-point     1 on adag004
   Task     8 k-point     1 on adag004
   Task     9 k-point     2 on adag004
   Task    10 k-point     2 on adag004
   Task    11 k-point     2 on adag004
   Task    12 k-point     2 on adag004
   Task    13 k-point     2 on adag004
   Task    14 k-point     2 on adag004
   Task    15 k-point     2 on adag004
   Task    16 k-point     2 on adag004
   Task    17 k-point     2 on adag004
  K-point:     1 Tasks:     9 split into      3 X      3 BLACS grid
  Calculating block size based on n_basis =         1440  max_nprow =            3  max_npcol =            3
  ScaLAPACK block size set to:           16
  Allocating        1.758 MB for ovlp
  Allocating        1.758 MB for ham
  Allocating        1.758 MB for eigenvec
  Required Scalapack workspace - INTEGER:            1  REAL:             1
  Partitioning the integration grid into batches with parallel hashing+maxmin method.
  | Number of batches:     5569
  | Maximal batch size:     200
  | Minimal batch size:      99
  | Average batch size:     137.159
  | Standard deviation of batch sizes:      31.220

  Integration load balanced across    18 MPI tasks.
  Work distribution over tasks is as follows:
  Task     0 has      42450 integration points.
  Task     1 has      42405 integration points.
  Task     2 has      42434 integration points.
  Task     3 has      42441 integration points.
  Task     4 has      42456 integration points.
  Task     5 has      42443 integration points.
  Task     6 has      42425 integration points.
  Task     7 has      42409 integration points.
  Task     8 has      42437 integration points.
  Task     9 has      42422 integration points.
  Task    10 has      42430 integration points.
  Task    11 has      42451 integration points.
  Task    12 has      42434 integration points.
  Task    13 has      42384 integration points.
  Task    14 has      42456 integration points.
  Task    15 has      42489 integration points.
  Task    16 has      42429 integration points.
  Task    17 has      42445 integration points.
  Initializing partition tables, free-atom densities, potentials, etc. across the integration grid (initialize_grid_storage).
  | initialize_grid_storage: Actual outermost partition radius vs. multipole_radius_free
  | (-- VB: in principle, multipole_radius_free should be larger, hence this output)
  | Species        1: Confinement radius =              4.999999999999999 AA, multipole_radius_free =              5.054417573612229 AA.
  | Species        1: outer_partition_radius set to              5.054417573612229 AA .
  | Species        2: Confinement radius =              4.999999999999999 AA, multipole_radius_free =              5.019602836301480 AA.
  | Species        2: outer_partition_radius set to              5.019602836301480 AA .
  | The sparse table of interatomic distances needs       7649.63 kbyte instead of     36193.03 kbyte of memory.
  | Net number of integration points:   763840
  | of which are non-zero points    :   605289
  | Numerical average free-atom electrostatic potential    :     -8.61472607 eV
  Renormalizing the initial density to the exact electron count on the 3D integration grid.
  | Initial density: Formal number of electrons (from input files) :     544.0000000000
  | Integrated number of electrons on 3D grid     :     543.9998721900
  | Charge integration error                      :      -0.0001278100
  | Normalization factor for density and gradient :       1.0000002349
  Renormalizing the free-atom superposition density to the exact electron count on the 3D integration grid.
  | Formal number of electrons (from input files) :     544.0000000000
  | Integrated number of electrons on 3D grid     :     543.9998721900
  | Charge integration error                      :      -0.0001278100
  | Normalization factor for density and gradient :       1.0000002349
  Obtaining max. number of non-zero basis functions in each batch (get_n_compute_maxes).
  | Maximal number of non-zero basis functions:      544 in task     0
  | Maximal number of non-zero basis functions:      546 in task     1
  | Maximal number of non-zero basis functions:      545 in task     2
  | Maximal number of non-zero basis functions:      538 in task     3
  | Maximal number of non-zero basis functions:      537 in task     4
  | Maximal number of non-zero basis functions:      531 in task     5
  | Maximal number of non-zero basis functions:      558 in task     6
  | Maximal number of non-zero basis functions:      552 in task     7
  | Maximal number of non-zero basis functions:      548 in task     8
  | Maximal number of non-zero basis functions:      555 in task     9
  | Maximal number of non-zero basis functions:      547 in task    10
  | Maximal number of non-zero basis functions:      563 in task    11
  | Maximal number of non-zero basis functions:      551 in task    12
  | Maximal number of non-zero basis functions:      543 in task    13
  | Maximal number of non-zero basis functions:      547 in task    14
  | Maximal number of non-zero basis functions:      533 in task    15
  | Maximal number of non-zero basis functions:      552 in task    16
  | Maximal number of non-zero basis functions:      534 in task    17
  Integrating Hamiltonian matrix: batch-based integration.
  GPU acceleration will be used when integrating the Hamiltonian matrix.
  Reporting GPU memory usage by myid 0.  Note that it is likely not the only MPI task binding to its GPU!
  Allocating        2.367 MB on GPU for hamiltonian_shell
  Allocating        0.870 MB on GPU for wave
  Allocating        0.002 MB on GPU for partition
  Allocating        0.870 MB on GPU for h_times_psi
  Time summed over all CPUs for integration: real work       23.480 s, elapsed       24.308 s
  Deallocating memory used on GPU for Hamiltonian integration.
  Integrating overlap matrix.
  Time summed over all CPUs for integration: real work       19.598 s, elapsed       19.965 s
  Deallocating overlap matrix.

  Updating Kohn-Sham eigenvalues and eigenvectors using ELSI and the ELPA eigensolver.
  Singularity check in k-point 1 (analysis for other k-points may follow below):
  Overlap matrix is not singular
  | Lowest and highest eigenvalues :  0.7666E-03,  0.8241E+01
  Finished singularity check of overlap matrix
  | Time :     0.108 s
  Starting ELPA eigensolver
  Finished Cholesky decomposition
  | Time :     0.017 s
  Finished transformation to standard eigenproblem
  | Time :     0.022 s
  Finished solving standard eigenproblem
  | Time :     0.243 s
  Finished back-transformation of eigenvectors
  | Time :     0.018 s

  Obtaining occupation numbers and electronic chemical potential using ELSI.
  | Note that, for insulating systems, the printed 'chemical potential' value is not uniquely defined.
  | It can be anywhere in the energy gap, as long as it correctly separates occupied and unoccupied states.
  | In systems with a gap, the physically relevant chemical potential is the VBM or HOMO.

  | Chemical potential (Fermi level):    -8.08686413 eV
  Writing Kohn-Sham eigenvalues.
  K-point:       1 at    0.000000    0.000000    0.000000 (in units of recip. lattice)

  State    Occupation    Eigenvalue [Ha]    Eigenvalue [eV]
      1       2.00000         -10.071861         -274.06928
      2       2.00000         -10.070378         -274.02892
      3       2.00000         -10.068939         -273.98978
      4       2.00000         -10.068855         -273.98747
      5       2.00000         -10.068635         -273.98150
      6       2.00000         -10.068216         -273.97009
      7       2.00000         -10.067944         -273.96268
      8       2.00000         -10.067584         -273.95290
      9       2.00000         -10.067495         -273.95049
     10       2.00000         -10.067337         -273.94617
     11       2.00000         -10.067211         -273.94275
     12       2.00000         -10.067172         -273.94169
     13       2.00000         -10.067125         -273.94042
     14       2.00000         -10.067034         -273.93792
     15       2.00000         -10.066959         -273.93589
     16       2.00000         -10.066874         -273.93357
     17       2.00000         -10.066680         -273.92830
     18       2.00000         -10.066584         -273.92570
     19       2.00000         -10.066582         -273.92563
     20       2.00000         -10.066549         -273.92474
     21       2.00000         -10.066412         -273.92099
     22       2.00000         -10.066098         -273.91247
     23       2.00000         -10.065939         -273.90813
     24       2.00000         -10.065889         -273.90678
     25       2.00000         -10.065884         -273.90663
     26       2.00000         -10.065828         -273.90513
     27       2.00000         -10.065815         -273.90476
     28       2.00000         -10.065750         -273.90299
     29       2.00000         -10.065705         -273.90177
     30       2.00000         -10.065456         -273.89500
     31       2.00000         -10.065368         -273.89259
     32       2.00000         -10.065336         -273.89172
     33       2.00000         -10.065055         -273.88409
     34       2.00000         -10.064957         -273.88141
     35       2.00000         -10.064884         -273.87942
     36       2.00000         -10.064872         -273.87910
     37       2.00000         -10.064845         -273.87836
     38       2.00000         -10.064835         -273.87809
     39       2.00000         -10.064798         -273.87708
     40       2.00000         -10.064730         -273.87524
     41       2.00000         -10.064405         -273.86640
     42       2.00000         -10.064241         -273.86192
     43       2.00000         -10.064174         -273.86010
     44       2.00000         -10.064141         -273.85922
     45       2.00000         -10.064089         -273.85779
     46       2.00000         -10.064018         -273.85586
     47       2.00000         -10.063967         -273.85448
     48       2.00000         -10.063950         -273.85400
     49       2.00000         -10.063904         -273.85275
     50       2.00000         -10.063657         -273.84603
     51       2.00000         -10.063480         -273.84122
     52       2.00000         -10.063462         -273.84073
     53       2.00000         -10.063165         -273.83266
     54       2.00000         -10.062352         -273.81054
     55       2.00000         -10.062337         -273.81013
     56       2.00000         -10.061717         -273.79324
     57       2.00000         -10.061279         -273.78132
     58       2.00000         -10.061063         -273.77545
     59       2.00000         -10.061004         -273.77384
     60       2.00000         -10.060949         -273.77236
     61       2.00000         -10.060799         -273.76828
     62       2.00000         -10.060552         -273.76154
     63       2.00000         -10.059588         -273.73531
     64       2.00000         -10.059400         -273.73021
     65       2.00000         -10.059178         -273.72416
     66       2.00000         -10.058851         -273.71526
     67       2.00000         -10.058707         -273.71135
     68       2.00000         -10.058506         -273.70586
     69       2.00000         -10.058237         -273.69855
     70       2.00000         -10.058030         -273.69293
     71       2.00000         -10.057857         -273.68821
     72       2.00000         -10.057247         -273.67163
     73       2.00000         -10.057138         -273.66866
[...]
  |    H      0     4.527807 A      4.583499 A        4.713786E-16 a.u.
  |    H      2     3.678162 A  1.011968E+04 A            0.556529 a.u.
  |    H      1     3.958095 A  1.721251E+06 A            0.841931 a.u.
  |    H      0     4.527807 A  3.866455E+12 A            0.581436 a.u.
  |    C      0     2.562483 A      2.562483 A        6.563029E-17 a.u.
  |    C      0     2.967371 A      2.967371 A        1.352164E-16 a.u.
  |    C      0     3.003870 A      3.003870 A        2.312640E-17 a.u.
  |    C      1     3.272245 A      3.272245 A       -3.835259E-17 a.u.
  |    C      0     3.312494 A      3.312494 A       -2.710381E-16 a.u.
  |    C      3     4.077671 A      4.077671 A       -1.683752E-15 a.u.
  |    C      3     4.077671 A      4.077671 A        1.412852E-15 a.u.
  |    C      1     4.496620 A      4.496620 A       -3.011059E-16 a.u.
  |    C      0     4.496620 A      4.551928 A        2.873903E-17 a.u.
  |    C      2     4.551928 A      4.551928 A       -4.610785E-16 a.u.
  |    C      2     4.551928 A      4.551928 A        7.440584E-16 a.u.
  |    C      2     4.551928 A      4.551928 A       -7.110458E-16 a.u.
  |    C      2     4.551928 A      4.551928 A       -1.935424E-16 a.u.
  |    C      0     4.551928 A      4.607917 A        2.067142E-16 a.u.
  |    C      0     4.551928 A      4.607917 A       -1.109786E-16 a.u.
  |    C      1     4.551928 A      4.607917 A       -9.951742E-17 a.u.
  |    C      1     4.551928 A      4.607917 A        1.937809E-16 a.u.
  |    C      1     4.607917 A      4.607917 A       -2.813308E-16 a.u.
  |    C      1     4.607917 A      4.607917 A       -7.330363E-17 a.u.
  |    C      2     4.607917 A      4.607917 A        1.318462E-15 a.u.
  |    C      2     4.607917 A      4.607917 A       -1.318397E-15 a.u.
  |    C      0     4.607917 A      4.664595 A        3.157826E-16 a.u.
  |    C      1     4.607917 A      4.664595 A        7.356967E-16 a.u.
  |    C      4     3.835889 A  2.962973E+02 A            4.379483 a.u.
  |    C      3     4.127827 A  1.725964E+03 A            9.005588 a.u.
  |    C      2     4.607917 A  2.608475E+04 A            9.531178 a.u.
  |    C      1     4.607917 A  2.736013E+06 A            2.127278 a.u.
  |    C      0     4.607917 A  4.399765E+12 A            0.661635 a.u.

  | Shrink_full_auxil_basis : there are       36  radial auxiliary wave functions
                            accepted and       7 rejected.
  | Shrink_full_auxil_basis : there are totally                8992 partial auxiliary wave functions.
 
  | Maximal number of product basis functions per thread :   512   512
 
  | Minimal total memory requirement for three-center overlap :      72.476 Gbs
  | Number of local auxiliary basis functions on task:      0   512
  | Number of local auxiliary basis functions on task:      1   512
  | Number of local auxiliary basis functions on task:      2   512
  | Number of local auxiliary basis functions on task:      3   512
  | Number of local auxiliary basis functions on task:      4   496
  | Number of local auxiliary basis functions on task:      5   496
  | Number of local auxiliary basis functions on task:      6   496
  | Number of local auxiliary basis functions on task:      7   496
  | Number of local auxiliary basis functions on task:      8   496
  | Number of local auxiliary basis functions on task:      9   496
  | Number of local auxiliary basis functions on task:     10   496
  | Number of local auxiliary basis functions on task:     11   496
  | Number of local auxiliary basis functions on task:     12   496
  | Number of local auxiliary basis functions on task:     13   496
  | Number of local auxiliary basis functions on task:     14   496
  | Number of local auxiliary basis functions on task:     15   496
  | Number of local auxiliary basis functions on task:     16   496
  | Number of local auxiliary basis functions on task:     17   496
  | 2D aux task distribution:      3 X      6
  | 2D block size (nb_aux_2d):     64
 
  Basis pair condensation :   1037520  -->     546554
 
 --------------------------------------------
  Constructing auxiliary basis (full product) ...
 
  Product basis:
  | charge radius: extent of product basis function
  | field radius: extent of its Coulomb potential
  | Species   l  charge radius    field radius  multipol momen
  |    H      1     3.910002 A      3.910002 A       -2.487223E-16 a.u.
  |    H      1     3.958095 A      3.958095 A       -2.441841E-16 a.u.
  |    H      0     4.527807 A      4.527807 A        1.268855E-16 a.u.
  |    H      0     4.527807 A      4.583499 A       -4.900954E-17 a.u.
  |    H      0     4.527807 A      4.583499 A        4.713786E-16 a.u.
  |    H      2     3.678162 A  1.011968E+04 A            0.556529 a.u.
  |    H      1     3.958095 A  1.721251E+06 A            0.841931 a.u.
  |    H      0     4.527807 A  3.866455E+12 A            0.581436 a.u.
  |    C      0     2.562483 A      2.562483 A        6.563029E-17 a.u.
  |    C      0     2.967371 A      2.967371 A        1.352164E-16 a.u.
  |    C      0     3.003870 A      3.003870 A        2.312640E-17 a.u.
  |    C      1     3.272245 A      3.272245 A       -3.835259E-17 a.u.
  |    C      0     3.312494 A      3.312494 A       -2.710381E-16 a.u.
  |    C      3     4.077671 A      4.077671 A       -1.683752E-15 a.u.
  |    C      3     4.077671 A      4.077671 A        1.412852E-15 a.u.
  |    C      1     4.496620 A      4.496620 A       -3.011059E-16 a.u.
  |    C      0     4.496620 A      4.551928 A        2.873903E-17 a.u.
  |    C      2     4.551928 A      4.551928 A       -4.610785E-16 a.u.
  |    C      2     4.551928 A      4.551928 A        7.440584E-16 a.u.
  |    C      2     4.551928 A      4.551928 A       -7.110458E-16 a.u.
  |    C      2     4.551928 A      4.551928 A       -1.935424E-16 a.u.
  |    C      0     4.551928 A      4.607917 A        2.067142E-16 a.u.
  |    C      0     4.551928 A      4.607917 A       -1.109786E-16 a.u.
  |    C      1     4.551928 A      4.607917 A       -9.951742E-17 a.u.
  |    C      1     4.551928 A      4.607917 A        1.937809E-16 a.u.
  |    C      1     4.607917 A      4.607917 A       -2.813308E-16 a.u.
  |    C      1     4.607917 A      4.607917 A       -7.330363E-17 a.u.
  |    C      2     4.607917 A      4.607917 A        1.318462E-15 a.u.
  |    C      2     4.607917 A      4.607917 A       -1.318397E-15 a.u.
  |    C      0     4.607917 A      4.664595 A        3.157826E-16 a.u.
  |    C      1     4.607917 A      4.664595 A        7.356967E-16 a.u.
  |    C      4     3.835889 A  2.962973E+02 A            4.379483 a.u.
  |    C      3     4.127827 A  1.725964E+03 A            9.005588 a.u.
  |    C      2     4.607917 A  2.608475E+04 A            9.531178 a.u.
  |    C      1     4.607917 A  2.736013E+06 A            2.127278 a.u.
  |    C      0     4.607917 A  4.399765E+12 A            0.661635 a.u.

  | Shrink_full_auxil_basis : there are       36  radial auxiliary wave functions
                            accepted and       7 rejected.
  | Shrink_full_auxil_basis : there are totally                8992 partial auxiliary wave functions.
 
  | Maximal number of product basis functions per thread :   512   512
 
  | Minimal total memory requirement for three-center overlap :      72.476 Gbs
  | Number of local auxiliary basis functions on task:      0   512
  | Number of local auxiliary basis functions on task:      1   512
  | Number of local auxiliary basis functions on task:      2   512
  | Number of local auxiliary basis functions on task:      3   512
  | Number of local auxiliary basis functions on task:      4   496
  | Number of local auxiliary basis functions on task:      5   496
  | Number of local auxiliary basis functions on task:      6   496
  | Number of local auxiliary basis functions on task:      7   496
  | Number of local auxiliary basis functions on task:      8   496
  | Number of local auxiliary basis functions on task:      9   496
  | Number of local auxiliary basis functions on task:     10   496
  | Number of local auxiliary basis functions on task:     11   496
  | Number of local auxiliary basis functions on task:     12   496
  | Number of local auxiliary basis functions on task:     13   496
  | Number of local auxiliary basis functions on task:     14   496
  | Number of local auxiliary basis functions on task:     15   496
  | Number of local auxiliary basis functions on task:     16   496
  | Number of local auxiliary basis functions on task:     17   496
  | 2D aux task distribution:      3 X      6
  | 2D block size (nb_aux_2d):     64
 
  Basis pair condensation :   1037520  -->     546554
  Allocating        0.069 MB for t_coeff
  Allocating        0.034 MB for basbas_idx
  Allocating        0.069 MB for wave
  Allocating        0.069 MB for total_wave
  Allocating        0.206 MB for wave_gradient
  Allocating        0.206 MB for total_wave_grad
 HERE1
 HERE2
  Deallocating        0.069 MB for t_coeff
  Deallocating        0.034 MB for basbas_idx
  Deallocating        0.069 MB for wave
  Deallocating        0.206 MB for wave_gradient
  Deallocating        0.206 MB for total_wave_grad
dP_dE (Bohr^3) at every cycle:--->
 (1012.20772401182,0.000000000000000E+000) (-15.4970060696647,0.000000000000000E+000) (-455.826401559373,0.000000000000000E+000)
 (-15.5027498819531,0.000000000000000E+000) (1339.58336620982,0.000000000000000E+000) (11.3098387850967,0.000000000000000E+000)
 (-455.978907517736,0.000000000000000E+000) (11.3213731024305,0.000000000000000E+000) (1676.25569771957,0.000000000000000E+000)
DFPT polarizability (Bohr^3)        xx        yy        zz        xy        xz        yz
  | Polarizability:--->                      1012.207724012                 1339.583366210                 1676.255697720                  -15.497006070                 -455.826401559                   11.309838785

DFPT for dielectric_constant:--->  # PARSE DFPT_dielectric_tensor
               2.373544290654388            -0.021029106678676            -0.618546703941273
              -0.021036900909433             2.817786054052664             0.015347209987611
              -0.618753651273753             0.015362861810201             3.274643226544588

                                               :  max(cpu_time)    wall_clock(cpu1)
  | Time for  dielectric calculation            :        0.000 s           0.000 s
===========================================================================

------------------------------------------------------------------------------
  Final output of selected total energy values:

  The following output summarizes some interesting total energy values
  at the end of a run (AFTER all relaxation, molecular dynamics, etc.).

  | Total energy of the DFT / Hartree-Fock s.c.f. calculation      :         -83267.548142491 eV
  | Final zero-broadening corrected energy (caution - metals only) :         -83267.548142491 eV
  | For reference only, the value of 1 Hartree used in FHI-aims is :             27.211384500 eV
  | For reference only, the overall average (free atom contribution
  | + realspace contribution) of the electrostatic potential after
  | s.c.f. convergence is                                          :             -7.701013429 eV

  Before relying on these values, please be sure to understand exactly which
  total energy value is referred to by a given number. Different objects may
  all carry the same name 'total energy'. Definitions:

  Total energy of the DFT / Hartree-Fock s.c.f. calculation:
  | Note that this energy does not include ANY quantities calculated after the
  | s.c.f. cycle, in particular not ANY RPA, MP2, etc. many-body perturbation terms.

  Final zero-broadening corrected energy:
  | For metallic systems only, a broadening of the occupation numbers at the Fermi
  | level can be extrapolated back to zero broadening by an electron-gas inspired
  | formula. For all systems that are not real metals, this value can be
  | meaningless and should be avoided.

------------------------------------------------------------------------------
  Methods described in the following list of references were used in this FHI-aims run.
  If you publish the results, please make sure to cite these reference if they apply.
  FHI-aims is an academic code, and for our developers (often, Ph.D. students
  and postdocs), scientific credit in the community is essential.
  Thank you for helping us!

  For any use of FHI-aims, please cite:

    Volker Blum, Ralf Gehrke, Felix Hanke, Paula Havu, Ville Havu,
    Xinguo Ren, Karsten Reuter, and Matthias Scheffler
    'Ab initio molecular simulations with numeric atom-centered orbitals'
    Computer Physics Communications 180, 2175-2196 (2009)
    http://doi.org/10.1016/j.cpc.2009.06.022


  For Hartree-Fock, hybrid functionals, or many-body perturbation theory used in your run, please cite:

    Xinguo Ren, Patrick Rinke, Volker Blum, Juergen Wieferink, Alex Tkatchenko,
    Andrea Sanfilippo, Karsten Reuter, and Matthias Scheffler,
    'Resolution-of-identity approach to Hartree-Fock, hybrid density functionals,
    RPA, MP2, and GW with numeric atom-centered orbital basis functions'
    New Journal of Physics 14, 053020 (2012).
    http://doi.org/10.1088/1367-2630/14/5/053020


  The provided symmetry information was generated with SPGlib:

    Atsushi Togo, Yusuke Seto, Dimitar Pashov
    SPGlib 1.7.3 obtained from http://spglib.sourceforge.net
    Copyright (C) 2008 Atsushi Togo


  The DFPT (perturbation by an electric field) part of the code was used.
  Here is the corresponding reference:

    Honghui Shang, Nathaniel Raimbault, Mariana Rossi,
    Christian Carbogno, Patrick Rinke and Matthias Scheffler,
    'All-Electron, Real-Space Perturbation Theory for Homogeneous
    Electric Fields: Theory, Implementation, and Application within dft'
    New Journal of Physics, 20(7):073040, 2018


  The ELSI infrastructure was used in your run to solve the Kohn-Sham electronic structure.
  Please check out http://elsi-interchange.org to learn more.
  If scalability is important for your project, please acknowledge ELSI by citing:

    V. W-z. Yu, F. Corsetti, A. Garcia, W. P. Huhn, M. Jacquelin, W. Jia,
    B. Lange, L. Lin, J. Lu, W. Mi, A. Seifitokaldani, A. Vazquez-Mayagoitia,
    C. Yang, H. Yang, and V. Blum
    'ELSI: A unified software interface for Kohn-Sham electronic structure solvers'
    Computer Physics Communications 222, 267-285 (2018).
    http://doi.org/10.1016/j.cpc.2017.09.007


  For the real-space grid partitioning and parallelization used in this calculation, please cite:

    Ville Havu, Volker Blum, Paula Havu, and Matthias Scheffler,
    'Efficient O(N) integration for all-electron electronic structure calculation'
    'using numerically tabulated basis functions'
    Journal of Computational Physics 228, 8367-8379 (2009).
    http://doi.org/10.1016/j.jcp.2009.08.008


  The high-level electronic structure method used in your calculation
  employed our efficient localized resolution of identity for the Coulomb operator.
  Some calculations, especially large-scale hybrid density functional theory,
  are only possible thanks to this development. For this feature, please cite:

    Arvid Ihrig, Juergen Wieferink, Igor Ying Zhang, Matti Ropo, Xinguo Ren,
    Patrick Rinke, Matthias Scheffler, and Volker Blum,
    'Accurate localized resolution of identity approach for linear-scaling
    hybrid density functionals and for many-body perturbation theory'
    New Journal of Physics 117, 093020 (2015).
    http://doi.org/10.1088/1367-2630/17/9/093020

  Of course, there are many other important community references, e.g., those cited in the
  above references. Our list is limited to references that describe implementations in the
  FHI-aims code. The reason is purely practical (length of this list) - please credit others as well.

------------------------------------------------------------
          Leaving FHI-aims.
          Date     :  20230120, Time     :  141619.854

          Computational steps:
          | Number of self-consistency cycles          :           47
          | Number of SCF (re)initializations          :            1
          | Number of coupled perturbed self-consistency cycles          :            0
          | Number of CPSCF (re)initializations          :            0

          Detailed time accounting                     :  max(cpu_time)    wall_clock(cpu1)
          | Total time                                  :     1568.773 s        1582.746 s
          | GPU initialization                          :        1.812 s          14.944 s
          | Preparation time                            :        0.074 s           0.070 s
          | Boundary condition initalization            :        0.990 s           0.989 s
          | Grid partitioning                           :        1.278 s           1.278 s
          | Preloading free-atom quantities on grid     :        3.690 s           3.690 s
          | Free-atom superposition energy              :        0.545 s           0.546 s
          | Total time for integrations                 :       18.558 s          18.670 s
          | Product basis setup: Total time             :        0.000 s           0.000 s
          | Product basis: | 2-center integrations     :(       0.000 s)  (       0.000 s)
          | Product basis: | LVL 3-center & coefficient:(       0.000 s)  (       0.000 s)
          | Total time for solution of K.-S. equations  :        3.497 s           3.502 s
          | Total time for density update               :       13.299 s          13.431 s
          | Total time for mixing & preconditioning     :       12.479 s          12.484 s
          | Total time for Hartree multipole update     :        0.086 s           0.085 s
          | Total time for Hartree multipole sum        :       44.391 s          44.404 s
          | Total time for total energy evaluation      :        0.007 s           0.001 s
          | Total time first_order_DM                   :        1.930 s           1.928 s
          | Total time first_order_density              :      308.934 s         309.001 s
          | Total time first_order_potential            :      121.725 s         121.762 s
          | Total time first_order_H                    :      588.624 s         588.784 s
          | Total time solving of Sternheimer equations :        1.925 s           1.927 s
          | Total time for dielectric constant          :        0.000 s           0.000 s
          | Total time momentum matrix                  :        0.000 s           0.000 s

          GPU acceleration has been used for charge density update.
          GPU acceleration has been used for real-space Hamiltonian integration.
          Due to GPU usage, wall_clock(cpu1) will give a more reliable estimate for timings.

          Partial memory accounting:
          | Residual value for overall tracked memory usage across tasks:     1.234863 MB (should be 0.000000 MB)
          |
          | Largest tracked array allocation:
          |   Minimum:      103.103 MB (DFPT_pulay_mixing::initialize_pulay_mixing::X_in_diffs on task  0)
          |   Maximum:      103.103 MB (DFPT_pulay_mixing::initialize_pulay_mixing::X_in_diffs on task  0)
          |   Average:      103.103 MB
          |
          | Because the residual tracked memory usage was not zero, the peak value for overall
          | tracked memory usage was not output, as it is probably incorrect.  This is likely due
          | to a missing aims_deallocate statement in the source code, which should be otherwise
          | harmless.
          |
          Note:  These values currently only include a subset of arrays which are explicitly tracked.
          The "true" memory usage will be greater.

          Have a nice day.
------------------------------------------------------------
