------------------------------------------------------------
          Invoking FHI-aims ...

          When using FHI-aims, please cite the following reference:

            Volker Blum, Ralf Gehrke, Felix Hanke, Paula Havu,
            Ville Havu, Xinguo Ren, Karsten Reuter, and Matthias Scheffler,
            'Ab Initio Molecular Simulations with Numeric Atom-Centered Orbitals',
            Computer Physics Communications 180, 2175-2196 (2009)

          In addition, many other developments in FHI-aims are likely important for
          your particular application. A partial list of references is given at the end of
          this file. Thank you for giving credit to the authors of these developments.

          For any questions about FHI-aims, please visit our slack channel at

            https://fhi-aims.slack.com

          and our main development and support site at

            https://aims-git.rz-berlin.mpg.de .

          The latter site, in particular, has a wiki to collect information, as well
          as an issue tracker to log discussions, suggest improvements, and report issues
          or bugs. https://aims-git.rz-berlin.mpg.de is also the main development site
          of the project and all new and updated code versions can be obtained there.
          Please send an email to aims-coordinators@fhi-berlin.mpg.de and we will add
          you to these sites. They are for you and everyone is welcome there.

------------------------------------------------------------



  Date     :  20230125, Time     :  120237.320
  Time zero on CPU 1             :   0.755765000000000E+00  s.
  Internal wall clock time zero  :           443880157.320  s.

  FHI-aims created a unique identifier for this run for later identification
  aims_uuid : 2CB30D11-1A7B-4A5A-A40A-E461DFE92C5A

  Build configuration of the current instance of FHI-aims
  -------------------------------------------------------
  FHI-aims version      : 221103
  Commit number         : 42523251a
  CMake host system     : Linux-5.3.18-150300.59.68-default
  CMake version         : 3.17.0
  Fortran compiler      : /mpcdf/soft/SLE_15/packages/x86_64/intel_oneapi/2021.3/mpi/2021.3.0/bin/mpiifort (Intel) version 20.2.3.20210609
  Fortran compiler flags: -O3 -ip -fp-model precise
  C compiler            : /mpcdf/soft/SLE_15/packages/x86_64/intel/2021.3.0/bin/icc (Intel) version 20.2.3.20210609
  C compiler flags      : -O3 -ip -fp-model precise -std=gnu99
  CUDA compiler         : /mpcdf/soft/SLE_15/packages/x86_64/cuda/11.6.2/bin/nvcc
  CUDA compiler flags   : -O3 -DAdd_ -lcublas
  HIP compiler          :
  HIP compiler flags    :
  HIP GPU arch          :
  ELPA2 kernel          : AVX512
  Using MPI
  Using ScaLAPACK
  Using LibXC
  Using CUDA
  Using i-PI
  Using RLSY
  Linking against: /mpcdf/soft/SLE_15/packages/x86_64/cuda/11.6.2/lib64/libcublas.so
                   /mpcdf/soft/SLE_15/packages/x86_64/cuda/11.6.2/lib64/libcudart.so
                   /mpcdf/soft/SLE_15/packages/x86_64/intel_oneapi/2021.3/mkl/latest/lib/intel64/libmkl_intel_lp64.so
                   /mpcdf/soft/SLE_15/packages/x86_64/intel_oneapi/2021.3/mkl/latest/lib/intel64/libmkl_sequential.so
                   /mpcdf/soft/SLE_15/packages/x86_64/intel_oneapi/2021.3/mkl/latest/lib/intel64/libmkl_core.so
                   /mpcdf/soft/SLE_15/packages/x86_64/intel_oneapi/2021.3/mkl/latest/lib/intel64/libmkl_blacs_intelmpi_lp64.so
                   /mpcdf/soft/SLE_15/packages/x86_64/intel_oneapi/2021.3/mkl/latest/lib/intel64/libmkl_scalapack_lp64.so

  Using       18 parallel tasks.
  Task        0 on host adag035 reporting.
  Task        1 on host adag035 reporting.
  Task        2 on host adag035 reporting.
  Task        3 on host adag035 reporting.
  Task        4 on host adag035 reporting.
  Task        5 on host adag035 reporting.
  Task        6 on host adag035 reporting.
  Task        7 on host adag035 reporting.
  Task        8 on host adag035 reporting.
  Task        9 on host adag035 reporting.
  Task       10 on host adag035 reporting.
  Task       11 on host adag035 reporting.
  Task       12 on host adag035 reporting.
  Task       13 on host adag035 reporting.
  Task       14 on host adag035 reporting.
  Task       15 on host adag035 reporting.
  Task       16 on host adag035 reporting.
  Task       17 on host adag035 reporting.

  Obtaining array dimensions for all initial allocations:
  
  -----------------------------------------------------------------------
  Parsing control.in (first pass over file, find array dimensions only).
  The contents of control.in will be repeated verbatim below
  unless switched off by setting 'verbatim_writeout .false.' .
  in the first line of control.in .
  -----------------------------------------------------------------------
  
  #
  # Input for polarizability replays on generic oligoacene molecular crystals (light settings,  LDA+MBD).
  #
  #########################################################################################
  #
  #  Physical model
  #
    xc                 pw-lda
    spin               none
    relativistic       none
    charge             0.0
    k_grid 	     2 1 1
    DFPT dielectric
  #
  #  GPU acceleration
  #
  # Turns on GPU acceleration everywhere
    use_gpu
  
  # Turns OFF GPU acceleration of ELPA - may be necessary if GPU ELPA is slow
    elsi_elpa_gpu 0
  #
  #  Relaxation
  #
  #  relax_geometry trm 1E-3
  #  relax_unit_cell fixed_angles
  #
  #  SCF convergence        #
    charge_mix_param   0.75
    #sc_accuracy_rho 1E-4
  #
  # i-PI communication
  #
  compute_forces .false.
  # use_pimd_wrapper 130.183.223.27 26118
  #communicate_pimd_wrapper polarizability
  #output_level MD_light
  #
  # Output SALTED info
    ri_density_restart write
    ri_rho1 write
    ri_full_output .true.
  #  sc_accuracy_rho    1d-6
    default_prodbas_acc 1e-6
    default_max_l_prodbas 6
  #
  #
  ################################################################################
  #
  #  FHI-aims code project
  #  VB, Fritz-Haber Institut, 2009
  #
  #  Suggested "light" defaults for H atom (to be pasted into control.in file)
  #  Be sure to double-check any results obtained with these settings for post-processing,
  #  e.g., with the "tight" defaults and larger basis sets.
  #
  ################################################################################
    species        H
  #     global species definitions
      nucleus             1
      mass                1.00794
  #
      l_hartree           4
  #
      cut_pot             3.5  1.5  1.0
      basis_dep_cutoff    1e-4
  #
      radial_base         24 5.0
      radial_multiplier   1
      angular_grids       specified
        division   0.2421   50
        division   0.3822  110
        division   0.4799  194
        division   0.5341  302
  #      division   0.5626  434
  #      division   0.5922  590
  #      division   0.6542  770
  #      division   0.6868 1202
  #      outer_grid  770
        outer_grid  302
  ################################################################################
  #
  #  Definition of "minimal" basis
  #
  ################################################################################
  #     valence basis states
      valence      1  s   1.
  #     ion occupancy
      ion_occ      1  s   0.5
  ################################################################################
  #
  #  Suggested additional basis functions. For production calculations,
  #  uncomment them one after another (the most important basis functions are
  #  listed first).
  #
  #  Basis constructed for dimers: 0.5 A, 0.7 A, 1.0 A, 1.5 A, 2.5 A
  #
  ################################################################################
  #  "First tier" - improvements: -1014.90 meV to -62.69 meV
       hydro 2 s 2.1
       hydro 2 p 3.5
  #  "Second tier" - improvements: -12.89 meV to -1.83 meV
  #     hydro 1 s 0.85
  #     hydro 2 p 3.7
  #     hydro 2 s 1.2
  #     hydro 3 d 7
  #  "Third tier" - improvements: -0.25 meV to -0.12 meV
  #     hydro 4 f 11.2
  #     hydro 3 p 4.8
  #     hydro 4 d 9
  #     hydro 3 s 3.2
  ################################################################################
  ################################################################################
  #
  #  FHI-aims code project
  #  VB, Fritz-Haber Institut, 2009
  #
  #  Suggested "light" defaults for C atom (to be pasted into control.in file)
  #  Be sure to double-check any results obtained with these settings for post-processing,
  #  e.g., with the "tight" defaults and larger basis sets.
  #
  ################################################################################
    species        C
  #     global species definitions
      nucleus             6
      mass                12.0107
  #
      l_hartree           4
  #
      cut_pot             3.5  1.5  1.0
      basis_dep_cutoff    1e-4
  #
      radial_base         34 5.0
      radial_multiplier   1
      angular_grids specified
        division   0.3326   50
        division   0.5710  110
        division   0.7727  194
        division   0.8772  302
  #      division   0.9334  434
  #      division   0.9625  590
  #      division   0.9924  770
  #      division   1.0230  974
  #      division   1.4589 1202
  #     outer_grid  974
       outer_grid 302
  ################################################################################
  #
  #  Definition of "minimal" basis
  #
  ################################################################################
  #     valence basis states
      valence      2  s   2.
      valence      2  p   2.
  #     ion occupancy
      ion_occ      2  s   1.
      ion_occ      2  p   1.
  ################################################################################
  #
  #  Suggested additional basis functions. For production calculations,
  #  uncomment them one after another (the most important basis functions are
  #  listed first).
  #
  #  Constructed for dimers: 1.0 A, 1.25 A, 1.5 A, 2.0 A, 3.0 A
  #
  ################################################################################
  #  "First tier" - improvements: -1214.57 meV to -155.61 meV
       hydro 2 p 1.7
       hydro 3 d 6
       hydro 2 s 4.9
  #  "Second tier" - improvements: -67.75 meV to -5.23 meV
  #     hydro 4 f 9.8
  #     hydro 3 p 5.2
  #     hydro 3 s 4.3
  #     hydro 5 g 14.4
  #     hydro 3 d 6.2
  #  "Third tier" - improvements: -2.43 meV to -0.60 meV
  #     hydro 2 p 5.6
  #     hydro 2 s 1.4
  #     hydro 3 d 4.9
  #     hydro 4 f 11.2
  #  "Fourth tier" - improvements: -0.39 meV to -0.18 meV
  #     hydro 2 p 2.1
  #     hydro 5 g 16.4
  #     hydro 4 d 13.2
  #     hydro 3 s 13.6
  #     hydro 4 f 17.6
  #  Further basis functions - improvements: -0.08 meV and below
  #     hydro 3 s 2
  #     hydro 3 p 6
  #     hydro 4 d 20
  
  -----------------------------------------------------------------------
  Completed first pass over input file control.in .
  -----------------------------------------------------------------------
  
  
  -----------------------------------------------------------------------
  Parsing geometry.in (first pass over file, find array dimensions only).
  The contents of geometry.in will be repeated verbatim below
  unless switched off by setting 'verbatim_writeout .false.' .
  in the first line of geometry.in .
  -----------------------------------------------------------------------
  
  #=======================================================
  # FHI-aims file: /ada/ptmp/mpsd/alewis/naphthalene/qmdata/data/geoms/312.in
  # Created using the Atomic Simulation Environment (ASE)
  # Thu Jan 19 15:19:17 2023
  #=======================================================
  lattice_vector 8.1020000000000003 0.0000000000000000 0.0000000000000000
  lattice_vector 0.0000000000000000 11.8800000000000008 0.0000000000000000
  lattice_vector -9.7850918486534706 0.0000000000000000 14.2571119625755713
  atom -0.8544190000000000 0.1394510000000000 2.4200599999999999 C
  atom 0.0900703000000000 3.1855400000000000 4.8595400000000000 C
  atom 4.3046300000000004 5.6580000000000004 4.7744299999999997 C
  atom 3.2700399999999998 2.8783599999999998 2.5408800000000000 C
  atom -0.1035940000000000 0.9867230000000000 1.6433000000000000 C
  atom -0.6109640000000000 4.0100100000000003 5.6862100000000000 C
  atom 3.5976699999999999 4.8105300000000000 5.6206899999999997 C
  atom 3.9836399999999998 2.0030299999999999 1.7507500000000000 C
  atom 0.2974140000000000 0.6196930000000000 0.3323660000000000 C
  atom -0.9778390000000000 3.5749800000000000 6.9761699999999998 C
  atom 3.2212900000000002 5.2330300000000003 6.9277600000000001 C
  atom 4.3328800000000003 2.3115100000000002 0.4035140000000000 C
  atom -3.7431199999999998 1.4485500000000000 6.5713100000000004 C
  atom 3.1556999999999999 4.4370700000000003 0.6541160000000000 C
  atom 7.2614599999999996 4.5112500000000004 0.6815270000000000 C
  atom 0.1977270000000000 1.4787699999999999 6.5933200000000003 C
  atom -3.4463599999999999 1.0768100000000000 5.3067700000000002 C
  atom 2.7913700000000001 4.0907700000000000 1.9237500000000001 C
  atom 6.8955200000000003 4.8989000000000003 1.9493400000000001 C
  atom 0.5507430000000000 1.9231499999999999 5.3340699999999996 C
  atom -1.1425600000000000 0.4728970000000000 3.4212699999999998 H
  atom 0.4155980000000000 3.5579000000000001 3.8807399999999999 H
  atom 4.5746700000000002 5.3590900000000001 3.7233900000000002 H
  atom 2.9461900000000001 2.5982799999999999 3.5448400000000002 H
  atom 0.2019550000000000 1.9488600000000000 2.0547200000000001 H
  atom -0.9513110000000000 5.0070499999999996 5.3049400000000002 H
  atom 3.3317600000000001 3.7893900000000000 5.2799100000000001 H
  atom 4.3388299999999997 1.0553200000000000 2.1026699999999998 H
  atom -3.4218899999999999 2.4098000000000002 6.9672799999999997 H
  atom 2.8195800000000002 5.3843699999999997 0.2062490000000000 H
  atom 7.0041399999999996 3.4975299999999998 0.2889960000000000 H
  atom 0.4852280000000000 0.4768770000000000 6.9083800000000002 H
  atom -2.9810500000000002 1.8050700000000000 4.6705199999999998 H
  atom 2.1297299999999999 4.7450299999999999 2.4765500000000000 H
  atom 6.3218699999999997 4.2318800000000003 2.5830199999999999 H
  atom 1.1763100000000000 1.2258800000000001 4.7313299999999998 H
  atom -5.6810099999999997 0.0917789000000000 9.5033999999999992 C
  atom -4.7232000000000003 2.9628399999999999 12.0355000000000008 C
  atom -0.6250910000000000 5.9106500000000004 11.9844000000000008 C
  atom -1.6350300000000000 2.7764500000000001 9.6091200000000008 C
  atom -4.8498500000000000 0.9297580000000000 8.7853899999999996 C
  atom -5.4637099999999998 3.8504600000000000 12.7802000000000007 C
  atom -1.3796100000000000 5.0704300000000000 12.7737999999999996 C
  atom -0.8980740000000000 1.9364300000000001 8.7846299999999999 C
  atom -4.5050499999999998 0.5927940000000000 7.4399400000000000 C
  atom -5.8479500000000000 3.5815000000000001 14.1051000000000002 C
  atom -1.7832399999999999 5.4078299999999997 14.0920000000000005 C
  atom -0.5867150000000000 2.2846700000000002 7.4506699999999997 C
  atom -8.6995299999999993 1.4736199999999999 13.7676999999999996 C
  atom -1.7211799999999999 4.4227299999999996 7.8359800000000002 C
  atom 2.4321500000000000 4.4377599999999999 7.7994000000000003 C
  atom -4.7323199999999996 1.4229700000000001 13.8621999999999996 C
  atom -8.3915199999999999 1.0512400000000000 12.4796999999999993 C
  atom -2.0455999999999999 4.0338900000000004 9.1279100000000000 C
  atom 2.1850499999999999 4.8747999999999996 9.1054499999999994 C
  atom -4.4017600000000003 1.7144200000000001 12.5501000000000005 C
  atom -5.9731600000000000 0.4041160000000000 10.5267999999999997 H
  atom -4.4791299999999996 3.1536499999999998 10.9884000000000004 H
  atom -0.3493940000000000 5.6698899999999997 10.9494000000000007 H
  atom -1.8163899999999999 2.4865200000000001 10.6476000000000006 H
  atom -4.4325400000000004 1.8386800000000001 9.2155000000000005 H
  atom -5.8582799999999997 4.7472599999999998 12.2913999999999994 H
  atom -1.5995400000000000 4.0852899999999996 12.3551000000000002 H
  atom -0.5691380000000000 0.9797900000000000 9.1974699999999991 H
  atom -8.2011900000000004 2.3709400000000000 14.1347000000000005 H
  atom -2.0455000000000001 5.3863599999999998 7.4667500000000002 H
  atom 1.9877499999999999 3.4963000000000002 7.4691200000000002 H
  atom -4.4528600000000003 0.4473550000000000 14.2880000000000003 H
  atom -7.7055100000000003 1.6657800000000000 11.8521000000000001 H
  atom -2.5787800000000001 4.7405799999999996 9.7738700000000005 H
  atom 1.6319100000000000 4.2343099999999998 9.7893799999999995 H
  atom -3.8980299999999999 0.9789909999999999 11.8947000000000003 H
  atom -0.8197610000000000 6.1976300000000002 2.4125299999999998 C
  atom 0.1317510000000000 9.1247500000000006 4.8470300000000002 C
  atom 4.2422800000000001 11.6982999999999997 4.7822100000000001 C
  atom 3.1915900000000001 8.9517799999999994 2.3048500000000001 C
  atom -0.1341620000000000 7.0871100000000000 1.6078800000000000 C
  atom -0.6136730000000000 9.9347399999999997 5.6374800000000000 C
  atom 3.5844999999999998 10.8233999999999995 5.6013700000000002 C
  atom 3.8345099999999999 8.0022000000000002 1.5554300000000001 C
  atom 0.3037360000000000 6.7021899999999999 0.3225660000000000 C
  atom -0.9272720000000000 9.5877099999999995 6.9863400000000002 C
  atom 3.1556799999999998 11.1889000000000003 6.9112799999999996 C
  atom 4.2061000000000002 8.3232199999999992 0.2113170000000000 C
  atom -3.7843800000000001 7.4047400000000003 6.4610900000000004 C
  atom 3.1002800000000001 10.5154999999999994 0.4234560000000000 C
  atom 7.0589899999999997 10.4220000000000006 0.6534770000000000 C
  atom 0.3173400000000000 7.4835700000000003 6.6197100000000004 C
  atom -3.4219100000000000 6.9472699999999996 5.1937699999999998 C
  atom 2.7568600000000001 10.1601999999999997 1.7182299999999999 C
  atom 6.7508600000000003 10.7766999999999999 1.9674300000000000 C
  atom 0.6460600000000000 7.8914499999999999 5.3379200000000004 C
  atom -1.0478799999999999 6.4821900000000001 3.4435699999999998 H
  atom 0.3633070000000000 9.5043600000000001 3.8539500000000002 H
  atom 4.6005000000000003 11.4430999999999994 3.7868900000000001 H
  atom 2.9291399999999999 8.7333099999999995 3.3518300000000001 H
  atom 0.2234410000000000 8.0674899999999994 1.9429399999999999 H
  atom -0.9260410000000000 10.9261999999999997 5.2913600000000001 H
  atom 3.3512200000000001 9.7956199999999995 5.2595000000000001 H
  atom 4.0795599999999999 7.0552599999999996 2.0158600000000000 H
  atom -3.5667000000000000 8.3979199999999992 6.8386100000000001 H
  atom 2.7868499999999998 11.4291999999999998 -0.0518785000000000 H
  atom 6.6808399999999999 9.4886300000000006 0.2316830000000000 H
  atom 0.6529280000000000 6.4955999999999996 6.9216600000000001 H
  atom -2.8305099999999999 7.5530799999999996 4.4918899999999997 H
  atom 2.1479900000000001 10.8289000000000009 2.3375400000000002 H
  atom 6.1494900000000001 10.1125000000000007 2.5400200000000002 H
  atom 1.2215700000000000 7.2284600000000001 4.6831399999999999 H
  atom -5.4913800000000004 6.1531000000000002 9.5266000000000002 C
  atom -4.7377500000000001 8.9715299999999996 11.8392999999999997 C
  atom -0.7939060000000000 11.6929999999999996 11.9463000000000008 C
  atom -1.6192899999999999 8.6484400000000008 9.6288599999999995 C
  atom -4.8041600000000004 6.9707900000000000 8.6587499999999995 C
  atom -5.5415299999999998 9.8504500000000004 12.5349000000000004 C
  atom -1.5825899999999999 10.9025999999999996 12.7319999999999993 C
  atom -0.8410080000000000 7.8672599999999999 8.7927700000000009 C
  atom -4.4782099999999998 6.5268699999999997 7.3589099999999998 C
  atom -5.9649500000000000 9.5597799999999999 13.8667999999999996 C
  atom -1.8972700000000000 11.2538999999999998 14.0671999999999997 C
  atom -0.4658670000000000 8.2846100000000007 7.4787299999999997 C
  atom -8.7352000000000007 7.5811000000000002 13.7446999999999999 C
  atom -1.7286600000000001 10.3445000000000000 7.8423600000000002 C
  atom 2.3337300000000001 10.3308999999999997 7.6854500000000003 C
  atom -4.8063900000000004 7.4079400000000000 13.6881000000000004 C
  atom -8.3738100000000006 7.2024699999999999 12.4667999999999992 C
  atom -2.0265100000000000 9.8951899999999995 9.1153399999999998 C
  atom 1.9629000000000001 10.7345000000000006 8.9644700000000004 C
  atom -4.3296900000000003 7.7527799999999996 12.4468999999999994 C
  atom -5.7727800000000000 6.4755000000000003 10.5409000000000006 H
  atom -4.4360999999999997 9.1694399999999998 10.8009000000000004 H
  atom -0.5147370000000000 11.3872999999999998 10.9571000000000005 H
  atom -1.9130400000000001 8.3141599999999993 10.6143999999999998 H
  atom -4.5986900000000004 8.0280199999999997 8.9344999999999999 H
  atom -5.8561199999999998 10.7995000000000001 12.0239999999999991 H
  atom -1.9359000000000000 9.9276199999999992 12.3474000000000004 H
  atom -0.4815520000000000 6.8798599999999999 9.1221899999999998 H
  atom -8.4161099999999998 8.5283300000000004 14.1754999999999995 H
  atom -2.1648600000000000 11.2908000000000008 7.5266799999999998 H
  atom 1.9500400000000000 9.4306699999999992 7.2358300000000000 H
  atom -4.5198900000000002 6.4871699999999999 14.1829000000000001 H
  atom -7.8289200000000001 7.9253099999999996 11.8147000000000002 H
  atom -2.6166100000000001 10.5393000000000008 9.7728000000000002 H
  atom 1.2858099999999999 10.1564999999999994 9.5741599999999991 H
  atom -3.6605599999999998 7.1136200000000001 11.9094999999999995 H
  
  -----------------------------------------------------------------------
  Completed first pass over input file geometry.in .
  -----------------------------------------------------------------------
  

  Basic array size parameters:
  | Number of species                 :        2
  | Number of atoms                   :      144
  | Number of lattice vectors         :        3
  | Max. basis fn. angular momentum   :        2
  | Max. atomic/ionic basis occupied n:        2
  | Max. number of basis fn. types    :        2
  | Max. radial fns per species/type  :        3
  | Max. logarithmic grid size        :     1277
  | Max. radial integration grid size :       34
  | Max. angular integration grid size:      302
  | Max. angular grid division number :        8
  | Radial grid for Hartree potential :     1277
  | Number of spin channels           :        1

------------------------------------------------------------
          Reading file control.in.
------------------------------------------------------------
  XC: Using Perdew-Wang parametrisation of Ceperley-Alder LDA.
  Spin treatment: No spin polarisation.
  Non-relativistic treatment of kinetic energy.
  Charge =   0.000000E+00: Neutral system requested explicitly.
  Found k-point grid:         2         1         1
  DFPT calculation will begin after the DFT/HF calculation.
  Charge density mixing - mixing parameter:     0.7500
  Forces will not be computed.
 
  Reading configuration options for species H                   .
  | Found nuclear charge :   1.0000
  | Found atomic mass :    1.00794000000000      amu
  | Found l_max for Hartree potential  :   4
  | Found cutoff potl. onset [A], width [A], scale factor :    3.50000    1.50000    1.00000
  | Threshold for basis-dependent cutoff potential is   0.100000E-03
  | Found data for basic radial integration grid :    24 points, outermost radius =    5.000 A
  | Found multiplier for basic radial grid :   1
  | Found angular grid specification: user-specified.
  | Specified grid contains     5 separate shells.
  | Check grid settings after all constraints further below.
  | Found free-atom valence shell :  1 s   1.000
  | No ionic wave fns used. Skipping ion_occ.
  | Found hydrogenic basis function :  2 s   2.100
  | Found hydrogenic basis function :  2 p   3.500
  Species H                   : Missing cutoff potential type.
  Defaulting to exp(1/x)/(1-x)^2 type cutoff potential.
  Species H : No 'logarithmic' tag. Using default grid for free atom:
  | Default logarithmic grid data [bohr] : 0.1000E-03 0.1000E+03 0.1012E+01
  Species H : On-site basis accuracy parameter (for Gram-Schmidt orthonormalisation) not specified.
  Using default value basis_acc =  0.1000000E-03.
  Species H                   : Using default innermost maximum threshold i_radial=  2 for radial functions.
  Species H                   : Default cutoff onset for free atom density etc. : 0.35000000E+01 AA.
  Species H                   : Basic radial grid will be enhanced according to radial_multiplier =   1, to contain    24 grid points.
 
  Reading configuration options for species C                   .
  | Found nuclear charge :   6.0000
  | Found atomic mass :    12.0107000000000      amu
  | Found l_max for Hartree potential  :   4
  | Found cutoff potl. onset [A], width [A], scale factor :    3.50000    1.50000    1.00000
  | Threshold for basis-dependent cutoff potential is   0.100000E-03
  | Found data for basic radial integration grid :    34 points, outermost radius =    5.000 A
  | Found multiplier for basic radial grid :   1
  | Found angular grid specification: user-specified.
  | Specified grid contains     5 separate shells.
  | Check grid settings after all constraints further below.
  | Found free-atom valence shell :  2 s   2.000
  | Found free-atom valence shell :  2 p   2.000
  | No ionic wave fns used. Skipping ion_occ.
  | No ionic wave fns used. Skipping ion_occ.
  | Found hydrogenic basis function :  2 p   1.700
  | Found hydrogenic basis function :  3 d   6.000
  | Found hydrogenic basis function :  2 s   4.900
  Species C                   : Missing cutoff potential type.
  Defaulting to exp(1/x)/(1-x)^2 type cutoff potential.
  Species C : No 'logarithmic' tag. Using default grid for free atom:
  | Default logarithmic grid data [bohr] : 0.1000E-03 0.1000E+03 0.1012E+01
  Species C : On-site basis accuracy parameter (for Gram-Schmidt orthonormalisation) not specified.
  Using default value basis_acc =  0.1000000E-03.
  Species C                   : Using default innermost maximum threshold i_radial=  2 for radial functions.
  Species C                   : Default cutoff onset for free atom density etc. : 0.35000000E+01 AA.
  Species C                   : Basic radial grid will be enhanced according to radial_multiplier =   1, to contain    34 grid points.
 
  Finished reading input file 'control.in'.
 
------------------------------------------------------------


------------------------------------------------------------
          Reading geometry description geometry.in.
------------------------------------------------------------
  | The smallest distance between any two atoms is         1.06332818 AA.
  | The first atom of this pair is atom number                     91 .
  | The second atom of this pair is atom number                   107 .
  | Wigner-Seitz cell of the first atom image           0     0     0 .
  | (The Wigner-Seitz cell of the second atom is 0 0 0  by definition.)

  Symmetry information by spglib:
  | Precision set to  0.1E-04
  | Number of Operations  : 1
  | Space group           : 1
  | International         : P1
  | Schoenflies           : C1^1
  Input structure read successfully.
  The structure contains      144 atoms,  and a total of        544.000 electrons.

  Input geometry:
  | Unit cell:
  |        8.10200000        0.00000000        0.00000000
  |        0.00000000       11.88000000        0.00000000
  |       -9.78509185        0.00000000       14.25711196
  | Atomic structure:
  |       Atom                x [A]            y [A]            z [A]
  |    1: Species C            -0.85441900        0.13945100        2.42006000
  |    2: Species C             0.09007030        3.18554000        4.85954000
  |    3: Species C             4.30463000        5.65800000        4.77443000
  |    4: Species C             3.27004000        2.87836000        2.54088000
  |    5: Species C            -0.10359400        0.98672300        1.64330000
  |    6: Species C            -0.61096400        4.01001000        5.68621000
  |    7: Species C             3.59767000        4.81053000        5.62069000
  |    8: Species C             3.98364000        2.00303000        1.75075000
  |    9: Species C             0.29741400        0.61969300        0.33236600
  |   10: Species C            -0.97783900        3.57498000        6.97617000
  |   11: Species C             3.22129000        5.23303000        6.92776000
  |   12: Species C             4.33288000        2.31151000        0.40351400
  |   13: Species C            -3.74312000        1.44855000        6.57131000
  |   14: Species C             3.15570000        4.43707000        0.65411600
  |   15: Species C             7.26146000        4.51125000        0.68152700
  |   16: Species C             0.19772700        1.47877000        6.59332000
  |   17: Species C            -3.44636000        1.07681000        5.30677000
  |   18: Species C             2.79137000        4.09077000        1.92375000
  |   19: Species C             6.89552000        4.89890000        1.94934000
  |   20: Species C             0.55074300        1.92315000        5.33407000
  |   21: Species H            -1.14256000        0.47289700        3.42127000
  |   22: Species H             0.41559800        3.55790000        3.88074000
  |   23: Species H             4.57467000        5.35909000        3.72339000
  |   24: Species H             2.94619000        2.59828000        3.54484000
  |   25: Species H             0.20195500        1.94886000        2.05472000
  |   26: Species H            -0.95131100        5.00705000        5.30494000
  |   27: Species H             3.33176000        3.78939000        5.27991000
  |   28: Species H             4.33883000        1.05532000        2.10267000
  |   29: Species H            -3.42189000        2.40980000        6.96728000
  |   30: Species H             2.81958000        5.38437000        0.20624900
  |   31: Species H             7.00414000        3.49753000        0.28899600
  |   32: Species H             0.48522800        0.47687700        6.90838000
  |   33: Species H            -2.98105000        1.80507000        4.67052000
  |   34: Species H             2.12973000        4.74503000        2.47655000
  |   35: Species H             6.32187000        4.23188000        2.58302000
  |   36: Species H             1.17631000        1.22588000        4.73133000
  |   37: Species C            -5.68101000        0.09177890        9.50340000
  |   38: Species C            -4.72320000        2.96284000       12.03550000
  |   39: Species C            -0.62509100        5.91065000       11.98440000
  |   40: Species C            -1.63503000        2.77645000        9.60912000
  |   41: Species C            -4.84985000        0.92975800        8.78539000
  |   42: Species C            -5.46371000        3.85046000       12.78020000
  |   43: Species C            -1.37961000        5.07043000       12.77380000
  |   44: Species C            -0.89807400        1.93643000        8.78463000
  |   45: Species C            -4.50505000        0.59279400        7.43994000
  |   46: Species C            -5.84795000        3.58150000       14.10510000
  |   47: Species C            -1.78324000        5.40783000       14.09200000
  |   48: Species C            -0.58671500        2.28467000        7.45067000
  |   49: Species C            -8.69953000        1.47362000       13.76770000
  |   50: Species C            -1.72118000        4.42273000        7.83598000
  |   51: Species C             2.43215000        4.43776000        7.79940000
  |   52: Species C            -4.73232000        1.42297000       13.86220000
  |   53: Species C            -8.39152000        1.05124000       12.47970000
  |   54: Species C            -2.04560000        4.03389000        9.12791000
  |   55: Species C             2.18505000        4.87480000        9.10545000
  |   56: Species C            -4.40176000        1.71442000       12.55010000
  |   57: Species H            -5.97316000        0.40411600       10.52680000
  |   58: Species H            -4.47913000        3.15365000       10.98840000
  |   59: Species H            -0.34939400        5.66989000       10.94940000
  |   60: Species H            -1.81639000        2.48652000       10.64760000
  |   61: Species H            -4.43254000        1.83868000        9.21550000
  |   62: Species H            -5.85828000        4.74726000       12.29140000
  |   63: Species H            -1.59954000        4.08529000       12.35510000
  |   64: Species H            -0.56913800        0.97979000        9.19747000
  |   65: Species H            -8.20119000        2.37094000       14.13470000
  |   66: Species H            -2.04550000        5.38636000        7.46675000
  |   67: Species H             1.98775000        3.49630000        7.46912000
  |   68: Species H            -4.45286000        0.44735500       14.28800000
  |   69: Species H            -7.70551000        1.66578000       11.85210000
  |   70: Species H            -2.57878000        4.74058000        9.77387000
  |   71: Species H             1.63191000        4.23431000        9.78938000
  |   72: Species H            -3.89803000        0.97899100       11.89470000
  |   73: Species C            -0.81976100        6.19763000        2.41253000
  |   74: Species C             0.13175100        9.12475000        4.84703000
  |   75: Species C             4.24228000       11.69830000        4.78221000
  |   76: Species C             3.19159000        8.95178000        2.30485000
  |   77: Species C            -0.13416200        7.08711000        1.60788000
  |   78: Species C            -0.61367300        9.93474000        5.63748000
  |   79: Species C             3.58450000       10.82340000        5.60137000
  |   80: Species C             3.83451000        8.00220000        1.55543000
  |   81: Species C             0.30373600        6.70219000        0.32256600
  |   82: Species C            -0.92727200        9.58771000        6.98634000
  |   83: Species C             3.15568000       11.18890000        6.91128000
  |   84: Species C             4.20610000        8.32322000        0.21131700
  |   85: Species C            -3.78438000        7.40474000        6.46109000
  |   86: Species C             3.10028000       10.51550000        0.42345600
  |   87: Species C             7.05899000       10.42200000        0.65347700
  |   88: Species C             0.31734000        7.48357000        6.61971000
  |   89: Species C            -3.42191000        6.94727000        5.19377000
  |   90: Species C             2.75686000       10.16020000        1.71823000
  |   91: Species C             6.75086000       10.77670000        1.96743000
  |   92: Species C             0.64606000        7.89145000        5.33792000
  |   93: Species H            -1.04788000        6.48219000        3.44357000
  |   94: Species H             0.36330700        9.50436000        3.85395000
  |   95: Species H             4.60050000       11.44310000        3.78689000
  |   96: Species H             2.92914000        8.73331000        3.35183000
  |   97: Species H             0.22344100        8.06749000        1.94294000
  |   98: Species H            -0.92604100       10.92620000        5.29136000
  |   99: Species H             3.35122000        9.79562000        5.25950000
  |  100: Species H             4.07956000        7.05526000        2.01586000
  |  101: Species H            -3.56670000        8.39792000        6.83861000
  |  102: Species H             2.78685000       11.42920000       -0.05187850
  |  103: Species H             6.68084000        9.48863000        0.23168300
  |  104: Species H             0.65292800        6.49560000        6.92166000
  |  105: Species H            -2.83051000        7.55308000        4.49189000
  |  106: Species H             2.14799000       10.82890000        2.33754000
  |  107: Species H             6.14949000       10.11250000        2.54002000
  |  108: Species H             1.22157000        7.22846000        4.68314000
  |  109: Species C            -5.49138000        6.15310000        9.52660000
  |  110: Species C            -4.73775000        8.97153000       11.83930000
  |  111: Species C            -0.79390600       11.69300000       11.94630000
  |  112: Species C            -1.61929000        8.64844000        9.62886000
  |  113: Species C            -4.80416000        6.97079000        8.65875000
  |  114: Species C            -5.54153000        9.85045000       12.53490000
  |  115: Species C            -1.58259000       10.90260000       12.73200000
  |  116: Species C            -0.84100800        7.86726000        8.79277000
  |  117: Species C            -4.47821000        6.52687000        7.35891000
  |  118: Species C            -5.96495000        9.55978000       13.86680000
  |  119: Species C            -1.89727000       11.25390000       14.06720000
  |  120: Species C            -0.46586700        8.28461000        7.47873000
  |  121: Species C            -8.73520000        7.58110000       13.74470000
  |  122: Species C            -1.72866000       10.34450000        7.84236000
  |  123: Species C             2.33373000       10.33090000        7.68545000
  |  124: Species C            -4.80639000        7.40794000       13.68810000
  |  125: Species C            -8.37381000        7.20247000       12.46680000
  |  126: Species C            -2.02651000        9.89519000        9.11534000
  |  127: Species C             1.96290000       10.73450000        8.96447000
  |  128: Species C            -4.32969000        7.75278000       12.44690000
  |  129: Species H            -5.77278000        6.47550000       10.54090000
  |  130: Species H            -4.43610000        9.16944000       10.80090000
  |  131: Species H            -0.51473700       11.38730000       10.95710000
  |  132: Species H            -1.91304000        8.31416000       10.61440000
  |  133: Species H            -4.59869000        8.02802000        8.93450000
  |  134: Species H            -5.85612000       10.79950000       12.02400000
  |  135: Species H            -1.93590000        9.92762000       12.34740000
  |  136: Species H            -0.48155200        6.87986000        9.12219000
  |  137: Species H            -8.41611000        8.52833000       14.17550000
  |  138: Species H            -2.16486000       11.29080000        7.52668000
  |  139: Species H             1.95004000        9.43067000        7.23583000
  |  140: Species H            -4.51989000        6.48717000       14.18290000
  |  141: Species H            -7.82892000        7.92531000       11.81470000
  |  142: Species H            -2.61661000       10.53930000        9.77280000
  |  143: Species H             1.28581000       10.15650000        9.57416000
  |  144: Species H            -3.66056000        7.11362000       11.90950000

  Lattice parameters for 3D lattice (in Angstroms) :     8.102000   11.880000   17.292000
  Angle(s) between unit vectors (in degrees)       :    90.000000  124.463000   90.000000


  Quantities derived from the lattice vectors (in Angstrom^-1):
  | Reciprocal lattice vector 1:  0.775510  0.000000  0.532257
  | Reciprocal lattice vector 2:  0.000000  0.528888  0.000000
  | Reciprocal lattice vector 3: -0.000000  0.000000  0.440705
  | Unit cell volume                               :   0.137227E+04  Angstrom^3

  Fractional coordinates:
                         L1                L2                L3
       atom_frac         0.09954853        0.01173830        0.16974406  C
       atom_frac         0.42277477        0.26814310        0.34085024  C
       atom_frac         0.93575257        0.47626263        0.33488059  C
       atom_frac         0.61885011        0.24228620        0.17821842  C
       atom_frac         0.12641978        0.08305749        0.11526177  C
       atom_frac         0.40627694        0.33754293        0.39883323  C
       atom_frac         0.92018284        0.40492677        0.39423763  C
       atom_frac         0.63999423        0.16860522        0.12279836  C
       atom_frac         0.06486385        0.05216271        0.02331230  C
       atom_frac         0.47026904        0.30092424        0.48931158  C
       atom_frac         0.98445119        0.44049074        0.48591608  C
       atom_frac         0.56897359        0.19457155        0.02830265  C
       atom_frac         0.09466440        0.12193182        0.46091453  C
       atom_frac         0.44490741        0.37349074        0.04587998  C
       atom_frac         0.95398825        0.37973485        0.04780260  C
       atom_frac         0.58293312        0.12447559        0.46245832  C
       atom_frac         0.02417162        0.09064057        0.37221914  C
       atom_frac         0.50749179        0.34434091        0.13493266  C
       atom_frac         1.01621965        0.41236532        0.13672755  C
       atom_frac         0.51983193        0.16188131        0.37413398  C
       atom_frac         0.14879810        0.03980614        0.23996936  H
       atom_frac         0.38003808        0.29948653        0.27219678  H
       atom_frac         0.88004769        0.45110185        0.26116019  H
       atom_frac         0.66392521        0.21871044        0.24863661  H
       atom_frac         0.19898447        0.16404545        0.14411895  H
       atom_frac         0.33197131        0.42146886        0.37209079  H
       atom_frac         0.85849465        0.31897222        0.37033517  H
       atom_frac         0.71364561        0.08883165        0.14748218  H
       atom_frac         0.16785575        0.20284512        0.48868803  H
       atom_frac         0.36548198        0.45322980        0.01446639  H
       atom_frac         0.88897640        0.29440488        0.02027030  H
       atom_frac         0.64510743        0.04014116        0.48455676  H
       atom_frac         0.02770559        0.15194192        0.32759229  H
       atom_frac         0.47265638        0.39941330        0.17370629  H
       atom_frac         0.99909598        0.35621886        0.18117414  H
       atom_frac         0.54598450        0.10318855        0.33185753  H
       atom_frac         0.10385880        0.00772550        0.66657259  C
       atom_frac         0.43657512        0.24939731        0.84417518  C
       atom_frac         0.93806087        0.49752946        0.84059100  C
       atom_frac         0.61219487        0.23370791        0.67398783  C
       atom_frac         0.14562229        0.07826246        0.61621105  C
       atom_frac         0.40826117        0.32411279        0.89640876  C
       atom_frac         0.91180443        0.42680387        0.89595986  C
       atom_frac         0.63331105        0.16299916        0.61615775  C
       atom_frac         0.07420492        0.04989848        0.52184061  C
       atom_frac         0.47306978        0.30147306        0.98933782  C
       atom_frac         0.97365224        0.45520455        0.98841898  C
       atom_frac         0.55873952        0.19231229        0.52259322  C
       atom_frac         0.09252820        0.12404209        0.96567243  C
       atom_frac         0.45135678        0.37228367        0.54961903  C
       atom_frac         0.96088826        0.37354882        0.54705329  C
       atom_frac         0.59019152        0.11977862        0.97230070  C
       atom_frac         0.02143664        0.08848822        0.87533156  C
       atom_frac         0.52075583        0.33955303        0.64023556  C
       atom_frac         1.04102675        0.41033670        0.63866020  C
       atom_frac         0.51984169        0.14431145        0.88026944  C
       atom_frac         0.15449330        0.03401650        0.73835431  H
       atom_frac         0.37799863        0.26545875        0.77073113  H
       atom_frac         0.88441298        0.47726347        0.76799565  H
       atom_frac         0.67778122        0.20930303        0.74682727  H
       atom_frac         0.23356448        0.15477104        0.64637916  H
       atom_frac         0.31815399        0.39960101        0.86212411  H
       atom_frac         0.84919068        0.34387963        0.86659206  H
       atom_frac         0.70888261        0.08247391        0.64511452  H
       atom_frac         0.18512550        0.19957407        0.99141397  H
       atom_frac         0.38004922        0.45339731        0.52372107  H
       atom_frac         0.87805917        0.29430135        0.52388731  H
       atom_frac         0.66075429        0.03765614        1.00216650  H
       atom_frac         0.05294355        0.14021717        0.83131142  H
       atom_frac         0.50966747        0.39903872        0.68554347  H
       atom_frac         1.03069129        0.35642340        0.68663135  H
       atom_frac         0.52649547        0.08240665        0.83429940  H
       atom_frac         0.10318836        0.52168603        0.16921590  C
       atom_frac         0.42685953        0.76807660        0.33997278  C
       atom_frac         0.92871599        0.98470539        0.33542628  C
       atom_frac         0.58917292        0.75351684        0.16166318  C
       atom_frac         0.11964641        0.59655808        0.11277740  C
       atom_frac         0.40181460        0.83625758        0.39541529  C
       atom_frac         0.91692070        0.91106061        0.39288251  C
       atom_frac         0.60504186        0.67358586        0.10909853  C
       atom_frac         0.06481399        0.56415741        0.02262492  C
       atom_frac         0.47737185        0.80704630        0.49002491  C
       atom_frac         0.97495714        0.94182660        0.48476017  C
       atom_frac         0.53704435        0.70060774        0.01482187  C
       atom_frac         0.08023496        0.62329461        0.45318365  C
       atom_frac         0.41852762        0.88514310        0.02970139  C
       atom_frac         0.92662198        0.87727273        0.04583516  C
       atom_frac         0.59993204        0.62993013        0.46430932  C
       atom_frac         0.01761703        0.58478704        0.36429327  C
       atom_frac         0.48582249        0.85523569        0.12051740  C
       atom_frac         0.99989723        0.90712963        0.13799639  C
       atom_frac         0.53192270        0.66426347        0.37440402  C
       atom_frac         0.16237316        0.54563889        0.24153349  H
       atom_frac         0.37131458        0.80003030        0.27031772  H
       atom_frac         0.88861496        0.96322391        0.26561410  H
       atom_frac         0.64547068        0.73512710        0.23509881  H
       atom_frac         0.19216738        0.67908165        0.13627865  H
       atom_frac         0.33393991        0.91971380        0.37113828  H
       atom_frac         0.85916757        0.82454714        0.36890361  H
       atom_frac         0.67429108        0.59387710        0.14139329  H
       atom_frac         0.13908259        0.70689562        0.47966306  H
       atom_frac         0.33957593        0.96205387       -0.00363878  H
       atom_frac         0.84421762        0.79870623        0.01625035  H
       atom_frac         0.66693099        0.54676768        0.48548823  H
       atom_frac         0.03115421        0.63578114        0.31506311  H
       atom_frac         0.46313443        0.91152357        0.16395607  H
       atom_frac         0.97417716        0.85122054        0.17815810  H
       atom_frac         0.54748854        0.60845623        0.32847747  H
       atom_frac         0.12922943        0.51793771        0.66819984  C
       atom_frac         0.41815892        0.75517929        0.83041362  C
       atom_frac         0.91399715        0.98425926        0.83791865  C
       atom_frac         0.61580980        0.72798316        0.67537241  C
       atom_frac         0.14053380        0.58676684        0.60732847  C
       atom_frac         0.37787647        0.82916246        0.87920331  C
       atom_frac         0.88321043        0.91772727        0.89302799  C
       atom_frac         0.64104405        0.66222727        0.61672869  C
       atom_frac         0.07065353        0.54939983        0.51615713  C
       atom_frac         0.43844221        0.80469529        0.97262335  C
       atom_frac         0.95747710        0.94729798        0.98667949  C
       atom_frac         0.57603235        0.69735774        0.52456136  C
       atom_frac         0.08617722        0.63813973        0.96405920  C
       atom_frac         0.45097401        0.87074916        0.55006652  C
       atom_frac         0.93908780        0.86960438        0.53906079  C
       atom_frac         0.56630110        0.62356397        0.96008925  C
       atom_frac         0.02252975        0.60626852        0.87442674  C
       atom_frac         0.52204722        0.83292845        0.63935389  C
       atom_frac         1.00166500        0.90357744        0.62877180  C
       atom_frac         0.51999482        0.65259091        0.87303095  C
       atom_frac         0.18041989        0.54507576        0.73934329  H
       atom_frac         0.36742630        0.77183838        0.75757980  H
       atom_frac         0.86465758        0.95852694        0.76853573  H
       atom_frac         0.66303965        0.69984512        0.74449861  H
       atom_frac         0.18925334        0.67575926        0.62666969  H
       atom_frac         0.29576880        0.90904882        0.84336856  H
       atom_frac         0.80702273        0.83565825        0.86605198  H
       atom_frac         0.71331596        0.57911279        0.63983435  H
       atom_frac         0.16205493        0.71787290        0.99427570  H
       atom_frac         0.37039381        0.95040404        0.52792459  H
       atom_frac         0.85364248        0.79382744        0.50752425  H
       atom_frac         0.64357787        0.54605808        0.99479474  H
       atom_frac         0.03454330        0.66711364        0.82868817  H
       atom_frac         0.50490761        0.88714646        0.68546842  H
       atom_frac         0.96974188        0.85492424        0.67153572  H
       atom_frac         0.55705924        0.59878956        0.83533748  H

 
  Finished reading input file 'geometry.in'.
 

 
  Consistency checks for stacksize environment parameter are next.
 
  | Maximum stacksize for task 0: unlimited
  | Maximum stacksize for task 1: unlimited
  | Maximum stacksize for task 2: unlimited
  | Maximum stacksize for task 3: unlimited
  | Maximum stacksize for task 4: unlimited
  | Maximum stacksize for task 5: unlimited
  | Maximum stacksize for task 6: unlimited
  | Maximum stacksize for task 7: unlimited
  | Maximum stacksize for task 8: unlimited
  | Maximum stacksize for task 9: unlimited
  | Maximum stacksize for task 10: unlimited
  | Maximum stacksize for task 11: unlimited
  | Maximum stacksize for task 12: unlimited
  | Maximum stacksize for task 13: unlimited
  | Maximum stacksize for task 14: unlimited
  | Maximum stacksize for task 15: unlimited
  | Maximum stacksize for task 16: unlimited
  | Maximum stacksize for task 17: unlimited
  | Current stacksize for task 0: unlimited
  | Current stacksize for task 1: unlimited
  | Current stacksize for task 2: unlimited
  | Current stacksize for task 3: unlimited
  | Current stacksize for task 4: unlimited
  | Current stacksize for task 5: unlimited
  | Current stacksize for task 6: unlimited
  | Current stacksize for task 7: unlimited
  | Current stacksize for task 8: unlimited
  | Current stacksize for task 9: unlimited
  | Current stacksize for task 10: unlimited
  | Current stacksize for task 11: unlimited
  | Current stacksize for task 12: unlimited
  | Current stacksize for task 13: unlimited
  | Current stacksize for task 14: unlimited
  | Current stacksize for task 15: unlimited
  | Current stacksize for task 16: unlimited
  | Current stacksize for task 17: unlimited
 
  Consistency checks for the contents of control.in are next.
 
  MPI_IN_PLACE appears to work with this MPI implementation.
  | Keeping use_mpi_in_place .true. (see manual).
  Explicit treatment of the Coulomb operator is needed, but the RI method is not specified.
  Coulomb operator: Defaulting to 'LVL fast' resolution of identity - RI_type = LVL_fast
  Species H: Using default value for prodbas_acc =   1.000000E-06.
  Species H: Using default value max_l_prodbas =     6.
  Species C: Using default value for prodbas_acc =   1.000000E-06.
  Species C: Using default value max_l_prodbas =     6.
  Target number of points in a grid batch is not set.  Since GPU acceleration is enabled, defaulting to  200
  Method for grid partitioning is not set. Defaulting to parallel hash+maxmin partitioning.
  Batch size limit is not set. Defaulting to    200
  By default, will store active basis functions for each batch.
  If in need of memory, prune_basis_once .false. can be used to disable this option.
  communication_type for Hartree potential was not specified.
  Defaulting to calc_hartree .
  Defaulting to Pulay charge density mixer.
  Pulay mixer: Number of relevant iterations not set.
  Defaulting to    8 iterations.
  Pulay mixer: Number of initial linear mixing iterations not set.
  Defaulting to    0 iterations.
  Work space size for distributed Hartree potential not set.
  Defaulting to   0.200000E+03 MB.
  Algorithm-dependent basis array size parameters:
  | n_max_pulay                         :        8
  Maximum number of self-consistency iterations not provided.
  Presetting  1000 iterations.
  Presetting      1001 iterations before the initial mixing cycle
  is restarted anyway using the sc_init_iter criterion / keyword.
  Presetting a factor      1.000 between actual scf density residual
  and density convergence criterion sc_accuracy_rho below which sc_init_iter
  takes no effect.
 * No s.c.f. convergence criteria (sc_accuracy_*) were provided in control.in.
 * The run will proceed with a reasonable default guess, but please check whether.
 * the s.c.f. cycles seem to take too much or too little time.
  Geometry relaxation not requested: no relaxation will be performed.
 * Notice: The s.c.f. convergence criterion sc_accuracy_rho was not provided.
 * We used to stop in this case, and ask the user to provide reasonable
 * scf convergence criteria. However, this led some users to employ criteria
 * that led to extremely long run times, e.g., for simple relaxation.
 * We now preset a default value for sc_accuracy_rho if it is not set.
 * You may still wish to check if this setting is too tight or too loose for your needs.
 * Based on n_atoms and forces and force-correction status, FHI-aims chose sc_accuracy_rho =  0.391918E-04 .
  No accuracy limit for integral partition fn. given. Defaulting to  0.1000E-14.
  No threshold value for u(r) in integrations given. Defaulting to  0.1000E-05.
  No occupation type (smearing scheme) given. Defaulting to Gaussian broadening, width =  0.1000E-01 eV.
  The width will be adjusted in iteration number     2 of the first full s.c.f. cycle only.
  S.C.F. convergence parameters will be adjusted in iteration number     2 of the first full s.c.f. cycle only.
  No accuracy for occupation numbers given. Defaulting to  0.1000E-12.
  No threshold value for occupation numbers given. Defaulting to  0.0000E+00.
  No accuracy for fermi level given. Defaulting to  0.1000E-19.
  Maximum # of iterations to find E_F not set. Defaulting to  200.
  Preferred method for the eigenvalue solver ('KS_method') not specified in 'control.in'.
  Calling BLACS routine to test compilation state
  Since ScaLAPACK support is enabled, defaulting to ELPA (via ELSI).
  Will not use alltoall communication since running on < 1024 CPUs.
  Threshold for basis singularities not set.
  Default threshold for basis singularities:  0.1000E-04
  partition_type (choice of integration weights) for integrals was not specified.
  | Using a version of the partition function of Stratmann and coworkers ('stratmann_sparse').
  | At each grid point, the set of atoms used to build the partition table is smoothly restricted to
  | only those atoms whose free-atom density would be non-zero at that grid point.
  Partitioning for Hartree potential was not defined. Using partition_type for integrals.
  | Adjusted default value of keyword multip_moments_threshold to:       0.10000000E-11
  | This value may affect high angular momentum components of the Hartree potential in periodic systems.
  Angular momentum expansion for Kerker preconditioner not set explicitly.
  | Using default value of   0
  No explicit requirement for turning off preconditioner.
  | By default, it will be turned off when the charge convergence reaches
  | sc_accuracy_rho  =   0.391918E-04
  No special mixing parameter while Kerker preconditioner is on.
  Using default: charge_mix_param =     0.7500.
  Threshold for auxiliary basis singularities not set.
  Default threshold for auxiliary basis singularities:  0.1000E-04
  No q(lm)/r^(l+1) cutoff set for long-range Hartree potential.
  | Using default value of  0.100000E-09 .
  | Verify using the multipole_threshold keyword.
  Defaulting to new monopole extrapolation.
  Density update method: automatic selection selected.
  Using density matrix based charge density update.
  Using density matrix based charge density update.
  Using packed matrix style: index .
  Defaulting to use time-reversal symmetry for k-point grid.
  Charge integration errors on the 3D integration grid will be compensated
  by explicit normalization and distribution of residual charges.
  Use the "compensate_multipole_errors" flag to change this behaviour.
  Default to 1D ("use_logsbt") integrations for auxiliary 2-center integrals.
  Default onset of logarithmic r-grid for SBT is -38.000000000000
  Default onset of logarithmic k-grid for SBT is -25.000000000000
  Default range of logarithmic r- and k-grid for SBT is  45.000000000000
  Default number of logarithmic r- and k-grid for SBT is   4096
  Default of use_2d_corr is to use the efficient 2D distribution where possible
 
  Consistency checks for the contents of geometry.in are next.
 

  Range separation radius for Ewald summation (hartree_convergence_parameter):      2.91768261 bohr.
  Number of empty states per atom not set in control.in .
  | Since you are using a method that relies on the unoccupied spectrum
  | (MP2,GW,RPA et al.), will use the full Hamiltonian size (see below)
  | as the max. possible number of states (occupied plus empty).

  Structure-dependent array size parameters: 
  | Maximum number of distinct radial functions  :        9
  | Maximum number of basis functions            :     1440
  | Number of Kohn-Sham states (occupied + empty):     1440
------------------------------------------------------------

  Performing system and environment tests:
  | Environment variable OMP_NUM_THREADS correctly set to 1.
  | Checking for ScaLAPACK...
  | Testing pdtran()...
  | All pdtran() tests passed.
CUDA runtime version: 11060
CUDA driver version: 11060
  Initializing GPUs...

  Number of GPUs available to MPI task         0 :   1
  Number of GPUs available to MPI task         1 :   1
  Number of GPUs available to MPI task         2 :   1
  Number of GPUs available to MPI task         3 :   1
  Number of GPUs available to MPI task         4 :   1
  Number of GPUs available to MPI task         5 :   1
  Number of GPUs available to MPI task         6 :   1
  Number of GPUs available to MPI task         7 :   1
  Number of GPUs available to MPI task         8 :   1
  Number of GPUs available to MPI task         9 :   1
  Number of GPUs available to MPI task        10 :   1
  Number of GPUs available to MPI task        11 :   1
  Number of GPUs available to MPI task        12 :   1
  Number of GPUs available to MPI task        13 :   1
  Number of GPUs available to MPI task        14 :   1
  Number of GPUs available to MPI task        15 :   1
  Number of GPUs available to MPI task        16 :   1
  Number of GPUs available to MPI task        17 :   1

  | MPI task         0, GPU activated = T, Device Name = NVIDIA A100-SXM4-80GB
  | MPI task         1, GPU activated = T, Device Name = NVIDIA A100-SXM4-80GB
  | MPI task         2, GPU activated = T, Device Name = NVIDIA A100-SXM4-80GB
  | MPI task         3, GPU activated = T, Device Name = NVIDIA A100-SXM4-80GB
  | MPI task         4, GPU activated = T, Device Name = NVIDIA A100-SXM4-80GB
  | MPI task         5, GPU activated = T, Device Name = NVIDIA A100-SXM4-80GB
  | MPI task         6, GPU activated = T, Device Name = NVIDIA A100-SXM4-80GB
  | MPI task         7, GPU activated = T, Device Name = NVIDIA A100-SXM4-80GB
  | MPI task         8, GPU activated = T, Device Name = NVIDIA A100-SXM4-80GB
  | MPI task         9, GPU activated = T, Device Name = NVIDIA A100-SXM4-80GB
  | MPI task        10, GPU activated = T, Device Name = NVIDIA A100-SXM4-80GB
  | MPI task        11, GPU activated = T, Device Name = NVIDIA A100-SXM4-80GB
  | MPI task        12, GPU activated = T, Device Name = NVIDIA A100-SXM4-80GB
  | MPI task        13, GPU activated = T, Device Name = NVIDIA A100-SXM4-80GB
  | MPI task        14, GPU activated = T, Device Name = NVIDIA A100-SXM4-80GB
  | MPI task        15, GPU activated = T, Device Name = NVIDIA A100-SXM4-80GB
  | MPI task        16, GPU activated = T, Device Name = NVIDIA A100-SXM4-80GB
  | MPI task        17, GPU activated = T, Device Name = NVIDIA A100-SXM4-80GB

------------------------------------------------------------
          Preparing all fixed parts of the calculation.
------------------------------------------------------------
  Determining machine precision:
    2.225073858507201E-308
  Setting up grids for atomic and cluster calculations.

  Creating wave function, potential, and density for free atoms.
  Runtime choices for atomic solver:
  | atomic solver xc        : PW-LDA
  | compute density gradient: 0
  | compute kinetic density : F

  Species: H

  List of occupied orbitals and eigenvalues:
    n    l              occ      energy [Ha]    energy [eV]
    1    0           1.0000        -0.232375        -6.3233


  Species: C

  List of occupied orbitals and eigenvalues:
    n    l              occ      energy [Ha]    energy [eV]
    1    0           2.0000        -9.944615      -270.6068
    2    0           2.0000        -0.498807       -13.5732
    2    1           2.0000        -0.196968        -5.3598


  Adding cutoff potential to free-atom effective potential.
  Creating fixed part of basis set: Ionic, confined, hydrogenic.
 
  H                    hydrogenic:
 
  List of hydrogenic basis orbitals: 
    n    l      effective z      eigenvalue [eV]  inner max. [A]     outer max. [A]     outer radius [A]   
    2    0         2.100000       -14.9728           0.193243           1.317208           4.583499
    2    1         3.500000       -41.6669           0.602369           0.602369           3.723403
 
 
  C                    hydrogenic:
 
  List of hydrogenic basis orbitals: 
    n    l      effective z      eigenvalue [eV]  inner max. [A]     outer max. [A]     outer radius [A]   
    2    1         1.700000        -9.7616           1.230570           1.230570           4.607917
    3    2         6.000000       -54.4224           0.792453           0.792453           3.883070
    2    0         4.900000       -81.6679           0.082559           0.562749           3.078220
 
  Creating atomic-like basis functions for current effective potential.

  Species H                   :

  List of atomic basis orbitals and eigenvalues:
    n    l      energy [Ha]    energy [eV]    outer radius [A]
    1    0        -0.232375        -6.3233       4.527807


  Species C                   :

  List of atomic basis orbitals and eigenvalues:
    n    l      energy [Ha]    energy [eV]    outer radius [A]
    1    0        -9.944615      -270.6068       1.934409
    2    0        -0.498807       -13.5732       4.496620
    2    1        -0.196968        -5.3598       4.551928

  Assembling full basis from fixed parts.
  | Species H :   atomic orbital   1 s accepted.
  | Species H :    hydro orbital   2 s accepted.
  | Species H :    hydro orbital   2 p accepted.
  | Species C :   atomic orbital   1 s accepted.
  | Species C :    hydro orbital   2 s accepted.
  | Species C :   atomic orbital   2 s accepted.
  | Species C :   atomic orbital   2 p accepted.
  | Species C :    hydro orbital   2 p accepted.
  | Species C :    hydro orbital   3 d accepted.
 
  Basis size parameters after reduction:
  | Total number of radial functions:        9
  | Total number of basis functions :     1440
 
  Per-task memory consumption for arrays in subroutine allocate_ext:
  |           2.242384MB.
  Testing on-site integration grid accuracy.
  |  Species  Function  <phi|h_atom|phi> (log., in eV)  <phi|h_atom|phi> (rad., in eV)
           1        1                 -6.3245358373                 -6.3232436907
           1        2                 14.1326137532                 14.1384481100
           1        3                 25.3627025200                 25.3628451197
           2        4               -270.6067544938               -270.6067222788
           2        5                -10.5634280949                -10.5635685736
           2        6                 16.2089822398                 16.2052121796
           2        7                 -5.3613872565                 -5.3627872378
           2        8                  8.5292058327                  8.5051734780
           2        9                 27.4884461005                 27.4884542459

  Preparing densities etc. for the partition functions (integrals / Hartree potential).

  Preparations completed.
  max(cpu_time)          :      0.089 s.
  Wall clock time (cpu1) :      0.078 s.
------------------------------------------------------------

  Initializing index lists of integration centers etc. from given atomic structure:
  Mapping all atomic coordinates to central unit cell.

  Initializing the k-points
  Using symmetry for reducing the k-points
  | k-points reduced from:        2 to        2
  | Number of k-points                             :         2
  | Consuming          0 KiB for k_phase_exx.
  The eigenvectors in the calculations are REAL.
  | Number of basis functions in the Hamiltonian integrals :      8055
  | Number of basis functions in a single unit cell        :      1440
  | Number of centers in hartree potential         :      3317
  | Number of centers in hartree multipole         :      2546
  | Number of centers in electron density summation:      1995
  | Number of centers in basis integrals           :      2118
  | Number of centers in integrals                 :       965
  | Number of centers in hamiltonian               :      2005
  | Consuming          1 KiB for k_phase.
  | Number of super-cells (origin) [n_cells]                     :         175
  | Number of super-cells (after PM_index) [n_cells]             :          40
  | Number of super-cells in hamiltonian [n_cells_in_hamiltonian]:          40
  | Size of matrix packed + index [n_hamiltonian_matrix_size] :     1931658
  | Size of matrix packed + index (no_symmetry):     3860499

------------------------------------------------------------
          Begin self-consistency loop: Initialization.

          Date     :  20230125, Time     :  120318.743
------------------------------------------------------------
  | Estimated reciprocal-space cutoff momentum G_max:         3.24344278 bohr^-1 .
  | Reciprocal lattice points for long-range Hartree potential:    5310
  Using simple linear distribution as default method for k-point parallelism.
  * Using 18 tasks for Scalapack Eigenvalue solver.
  Detailed listing of tasks and assigned k-points:
   Task     0 k-point     1 on adag035
   Task     1 k-point     1 on adag035
   Task     2 k-point     1 on adag035
   Task     3 k-point     1 on adag035
   Task     4 k-point     1 on adag035
   Task     5 k-point     1 on adag035
   Task     6 k-point     1 on adag035
   Task     7 k-point     1 on adag035
   Task     8 k-point     1 on adag035
   Task     9 k-point     2 on adag035
   Task    10 k-point     2 on adag035
   Task    11 k-point     2 on adag035
   Task    12 k-point     2 on adag035
   Task    13 k-point     2 on adag035
   Task    14 k-point     2 on adag035
   Task    15 k-point     2 on adag035
   Task    16 k-point     2 on adag035
   Task    17 k-point     2 on adag035
  K-point:     1 Tasks:     9 split into      3 X      3 BLACS grid
  Calculating block size based on n_basis =         1440  max_nprow =            3  max_npcol =            3
  ScaLAPACK block size set to:           16
  Allocating        1.758 MB for ovlp
  Allocating        1.758 MB for ham
  Allocating        1.758 MB for eigenvec
  Required Scalapack workspace - INTEGER:            1  REAL:             1
  Partitioning the integration grid into batches with parallel hashing+maxmin method.
  | Number of batches:     5632
  | Maximal batch size:     190
  | Minimal batch size:      99
  | Average batch size:     135.625
  | Standard deviation of batch sizes:      30.029

  Integration load balanced across    18 MPI tasks.
  Work distribution over tasks is as follows:
  Task     0 has      42431 integration points.
  Task     1 has      42422 integration points.
  Task     2 has      42430 integration points.
  Task     3 has      42435 integration points.
  Task     4 has      42450 integration points.
  Task     5 has      42439 integration points.
  Task     6 has      42456 integration points.
  Task     7 has      42484 integration points.
  Task     8 has      42447 integration points.
  Task     9 has      42436 integration points.
  Task    10 has      42455 integration points.
  Task    11 has      42378 integration points.
  Task    12 has      42445 integration points.
  Task    13 has      42442 integration points.
  Task    14 has      42424 integration points.
  Task    15 has      42410 integration points.
  Task    16 has      42405 integration points.
  Task    17 has      42451 integration points.
  Initializing partition tables, free-atom densities, potentials, etc. across the integration grid (initialize_grid_storage).
  | initialize_grid_storage: Actual outermost partition radius vs. multipole_radius_free
  | (-- VB: in principle, multipole_radius_free should be larger, hence this output)
  | Species        1: Confinement radius =              4.999999999999999 AA, multipole_radius_free =              5.054417573612229 AA.
  | Species        1: outer_partition_radius set to              5.054417573612229 AA .
  | Species        2: Confinement radius =              4.999999999999999 AA, multipole_radius_free =              5.019602836301480 AA.
  | Species        2: outer_partition_radius set to              5.019602836301480 AA .
  | The sparse table of interatomic distances needs       7620.92 kbyte instead of     35887.39 kbyte of memory.
  | Net number of integration points:   763840
  | of which are non-zero points    :   605405
  | Numerical average free-atom electrostatic potential    :     -8.61464338 eV
  Renormalizing the initial density to the exact electron count on the 3D integration grid.
  | Initial density: Formal number of electrons (from input files) :     544.0000000000
  | Integrated number of electrons on 3D grid     :     543.9939057606
  | Charge integration error                      :      -0.0060942394
  | Normalization factor for density and gradient :       1.0000112028
  Renormalizing the free-atom superposition density to the exact electron count on the 3D integration grid.
  | Formal number of electrons (from input files) :     544.0000000000
  | Integrated number of electrons on 3D grid     :     543.9939057606
  | Charge integration error                      :      -0.0060942394
  | Normalization factor for density and gradient :       1.0000112028
  Obtaining max. number of non-zero basis functions in each batch (get_n_compute_maxes).
  | Maximal number of non-zero basis functions:      541 in task     0
  | Maximal number of non-zero basis functions:      547 in task     1
  | Maximal number of non-zero basis functions:      543 in task     2
  | Maximal number of non-zero basis functions:      547 in task     3
  | Maximal number of non-zero basis functions:      543 in task     4
  | Maximal number of non-zero basis functions:      556 in task     5
  | Maximal number of non-zero basis functions:      528 in task     6
  | Maximal number of non-zero basis functions:      551 in task     7
  | Maximal number of non-zero basis functions:      531 in task     8
  | Maximal number of non-zero basis functions:      544 in task     9
  | Maximal number of non-zero basis functions:      552 in task    10
  | Maximal number of non-zero basis functions:      541 in task    11
  | Maximal number of non-zero basis functions:      560 in task    12
  | Maximal number of non-zero basis functions:      539 in task    13
  | Maximal number of non-zero basis functions:      537 in task    14
  | Maximal number of non-zero basis functions:      545 in task    15
  | Maximal number of non-zero basis functions:      534 in task    16
  | Maximal number of non-zero basis functions:      537 in task    17
  Integrating Hamiltonian matrix: batch-based integration.
  GPU acceleration will be used when integrating the Hamiltonian matrix.
  Reporting GPU memory usage by myid 0.  Note that it is likely not the only MPI task binding to its GPU!
  Allocating        2.341 MB on GPU for hamiltonian_shell
  Allocating        0.822 MB on GPU for wave
  Allocating        0.002 MB on GPU for partition
  Allocating        0.822 MB on GPU for h_times_psi
  Time summed over all CPUs for integration: real work       33.858 s, elapsed       35.581 s
  Deallocating memory used on GPU for Hamiltonian integration.
  Integrating overlap matrix.
  Time summed over all CPUs for integration: real work       27.553 s, elapsed       28.614 s
  Deallocating overlap matrix.

  Updating Kohn-Sham eigenvalues and eigenvectors using ELSI and the ELPA eigensolver.
  Singularity check in k-point 1 (analysis for other k-points may follow below):
  Overlap matrix is not singular
  | Lowest and highest eigenvalues :  0.8006E-03,  0.8267E+01
  Finished singularity check of overlap matrix
  | Time :     0.135 s
  Starting ELPA eigensolver
  Finished Cholesky decomposition
  | Time :     0.044 s
  Finished transformation to standard eigenproblem
  | Time :     0.024 s
  Finished solving standard eigenproblem
  | Time :     0.228 s
  Finished back-transformation of eigenvectors
  | Time :     0.018 s

  Obtaining occupation numbers and electronic chemical potential using ELSI.
  | Note that, for insulating systems, the printed 'chemical potential' value is not uniquely defined.
  | It can be anywhere in the energy gap, as long as it correctly separates occupied and unoccupied states.
  | In systems with a gap, the physically relevant chemical potential is the VBM or HOMO.

  | Chemical potential (Fermi level):    -8.90112317 eV
  Writing Kohn-Sham eigenvalues.
  K-point:       1 at    0.000000    0.000000    0.000000 (in units of recip. lattice)

  State    Occupation    Eigenvalue [Ha]    Eigenvalue [eV]
      1       2.00000         -10.070927         -274.04388
      2       2.00000         -10.069497         -274.00496
      3       2.00000         -10.068018         -273.96472
      4       2.00000         -10.067670         -273.95524
      5       2.00000         -10.067198         -273.94240
      6       2.00000         -10.066898         -273.93423
      7       2.00000         -10.066414         -273.92105
      8       2.00000         -10.066308         -273.91818
      9       2.00000         -10.066290         -273.91769
     10       2.00000         -10.066261         -273.91691
     11       2.00000         -10.066229         -273.91604
     12       2.00000         -10.066216         -273.91566
     13       2.00000         -10.066082         -273.91203
     14       2.00000         -10.066057         -273.91135
     15       2.00000         -10.065835         -273.90531
     16       2.00000         -10.065702         -273.90169
     17       2.00000         -10.065700         -273.90164
     18       2.00000         -10.065668         -273.90076
     19       2.00000         -10.065451         -273.89485
     20       2.00000         -10.065165         -273.88707
     21       2.00000         -10.065106         -273.88547
     22       2.00000         -10.065071         -273.88451
     23       2.00000         -10.064941         -273.88097
     24       2.00000         -10.064851         -273.87853
     25       2.00000         -10.064775         -273.87645
     26       2.00000         -10.064612         -273.87204
     27       2.00000         -10.064577         -273.87108
     28       2.00000         -10.064542         -273.87012
     29       2.00000         -10.064460         -273.86790
     30       2.00000         -10.064378         -273.86566
     31       2.00000         -10.064081         -273.85758
     32       2.00000         -10.064076         -273.85743
     33       2.00000         -10.064048         -273.85668
     34       2.00000         -10.063969         -273.85453
     35       2.00000         -10.063741         -273.84833
     36       2.00000         -10.063622         -273.84509
     37       2.00000         -10.063546         -273.84301
     38       2.00000         -10.063412         -273.83936
     39       2.00000         -10.063120         -273.83142
     40       2.00000         -10.062929         -273.82623
     41       2.00000         -10.062903         -273.82553
     42       2.00000         -10.062848         -273.82402
     43       2.00000         -10.062823         -273.82335
     44       2.00000         -10.062786         -273.82233
     45       2.00000         -10.062582         -273.81680
     46       2.00000         -10.062368         -273.81097
     47       2.00000         -10.062148         -273.80498
     48       2.00000         -10.062085         -273.80325
     49       2.00000         -10.061732         -273.79367
     50       2.00000         -10.061529         -273.78813
     51       2.00000         -10.061169         -273.77833
     52       2.00000         -10.060984         -273.77331
     53       2.00000         -10.060679         -273.76501
     54       2.00000         -10.060666         -273.76464
     55       2.00000         -10.060599         -273.76282
     56       2.00000         -10.060284         -273.75426
     57       2.00000         -10.060151         -273.75062
     58       2.00000         -10.060130         -273.75007
     59       2.00000         -10.059776         -273.74043
     60       2.00000         -10.059739         -273.73944
     61       2.00000         -10.059674         -273.73766
     62       2.00000         -10.059372         -273.72945
     63       2.00000         -10.059341         -273.72861
     64       2.00000         -10.058992         -273.71911
     65       2.00000         -10.058741         -273.71228
     66       2.00000         -10.058654         -273.70989
     67       2.00000         -10.058265         -273.69932
     68       2.00000         -10.058151         -273.69620
     69       2.00000         -10.057878         -273.68878
     70       2.00000         -10.057147         -273.66890
     71       2.00000         -10.057021         -273.66547
[...]
  | field radius: extent of its Coulomb potential
  | Species   l  charge radius    field radius  multipol momen
  |    H      1     3.910002 A      3.910002 A       -2.487223E-16 a.u.
  |    H      1     3.958095 A      3.958095 A       -2.441841E-16 a.u.
  |    H      0     4.527807 A      4.527807 A        1.268855E-16 a.u.
  |    H      0     4.527807 A      4.583499 A       -4.900954E-17 a.u.
  |    H      0     4.527807 A      4.583499 A        4.713786E-16 a.u.
  |    H      2     3.678162 A  1.011968E+04 A            0.556529 a.u.
  |    H      1     3.958095 A  1.721251E+06 A            0.841931 a.u.
  |    H      0     4.527807 A  3.866455E+12 A            0.581436 a.u.
  |    C      0     2.562483 A      2.562483 A        6.563029E-17 a.u.
  |    C      0     2.967371 A      2.967371 A        1.352164E-16 a.u.
  |    C      0     3.003870 A      3.003870 A        2.312640E-17 a.u.
  |    C      1     3.272245 A      3.272245 A       -3.835259E-17 a.u.
  |    C      0     3.312494 A      3.312494 A       -2.710381E-16 a.u.
  |    C      3     4.077671 A      4.077671 A       -1.683752E-15 a.u.
  |    C      3     4.077671 A      4.077671 A        1.412852E-15 a.u.
  |    C      1     4.496620 A      4.496620 A       -3.011059E-16 a.u.
  |    C      0     4.496620 A      4.551928 A        2.873903E-17 a.u.
  |    C      2     4.551928 A      4.551928 A       -4.610785E-16 a.u.
  |    C      2     4.551928 A      4.551928 A        7.440584E-16 a.u.
  |    C      2     4.551928 A      4.551928 A       -7.110458E-16 a.u.
  |    C      2     4.551928 A      4.551928 A       -1.935424E-16 a.u.
  |    C      0     4.551928 A      4.607917 A        2.067142E-16 a.u.
  |    C      0     4.551928 A      4.607917 A       -1.109786E-16 a.u.
  |    C      1     4.551928 A      4.607917 A       -9.951742E-17 a.u.
  |    C      1     4.551928 A      4.607917 A        1.937809E-16 a.u.
  |    C      1     4.607917 A      4.607917 A       -2.813308E-16 a.u.
  |    C      1     4.607917 A      4.607917 A       -7.330363E-17 a.u.
  |    C      2     4.607917 A      4.607917 A        1.318462E-15 a.u.
  |    C      2     4.607917 A      4.607917 A       -1.318397E-15 a.u.
  |    C      0     4.607917 A      4.664595 A        3.157826E-16 a.u.
  |    C      1     4.607917 A      4.664595 A        7.356967E-16 a.u.
  |    C      4     3.835889 A  2.962973E+02 A            4.379483 a.u.
  |    C      3     4.127827 A  1.725964E+03 A            9.005588 a.u.
  |    C      2     4.607917 A  2.608475E+04 A            9.531178 a.u.
  |    C      1     4.607917 A  2.736013E+06 A            2.127278 a.u.
  |    C      0     4.607917 A  4.399765E+12 A            0.661635 a.u.

  | Shrink_full_auxil_basis : there are       36  radial auxiliary wave functions
                            accepted and       7 rejected.
  | Shrink_full_auxil_basis : there are totally                8992 partial auxiliary wave functions.
 
  | Maximal number of product basis functions per thread :   512   512
 
  | Minimal total memory requirement for three-center overlap :      72.476 Gbs
  | Number of local auxiliary basis functions on task:      0   512
  | Number of local auxiliary basis functions on task:      1   512
  | Number of local auxiliary basis functions on task:      2   512
  | Number of local auxiliary basis functions on task:      3   512
  | Number of local auxiliary basis functions on task:      4   496
  | Number of local auxiliary basis functions on task:      5   496
  | Number of local auxiliary basis functions on task:      6   496
  | Number of local auxiliary basis functions on task:      7   496
  | Number of local auxiliary basis functions on task:      8   496
  | Number of local auxiliary basis functions on task:      9   496
  | Number of local auxiliary basis functions on task:     10   496
  | Number of local auxiliary basis functions on task:     11   496
  | Number of local auxiliary basis functions on task:     12   496
  | Number of local auxiliary basis functions on task:     13   496
  | Number of local auxiliary basis functions on task:     14   496
  | Number of local auxiliary basis functions on task:     15   496
  | Number of local auxiliary basis functions on task:     16   496
  | Number of local auxiliary basis functions on task:     17   496
  | 2D aux task distribution:      3 X      6
  | 2D block size (nb_aux_2d):     64
 
  Basis pair condensation :   1037520  -->     554324
 
 --------------------------------------------
  Constructing auxiliary basis (full product) ...
 
  Product basis:
  | charge radius: extent of product basis function
  | field radius: extent of its Coulomb potential
  | Species   l  charge radius    field radius  multipol momen
  |    H      1     3.910002 A      3.910002 A       -2.487223E-16 a.u.
  |    H      1     3.958095 A      3.958095 A       -2.441841E-16 a.u.
  |    H      0     4.527807 A      4.527807 A        1.268855E-16 a.u.
  |    H      0     4.527807 A      4.583499 A       -4.900954E-17 a.u.
  |    H      0     4.527807 A      4.583499 A        4.713786E-16 a.u.
  |    H      2     3.678162 A  1.011968E+04 A            0.556529 a.u.
  |    H      1     3.958095 A  1.721251E+06 A            0.841931 a.u.
  |    H      0     4.527807 A  3.866455E+12 A            0.581436 a.u.
  |    C      0     2.562483 A      2.562483 A        6.563029E-17 a.u.
  |    C      0     2.967371 A      2.967371 A        1.352164E-16 a.u.
  |    C      0     3.003870 A      3.003870 A        2.312640E-17 a.u.
  |    C      1     3.272245 A      3.272245 A       -3.835259E-17 a.u.
  |    C      0     3.312494 A      3.312494 A       -2.710381E-16 a.u.
  |    C      3     4.077671 A      4.077671 A       -1.683752E-15 a.u.
  |    C      3     4.077671 A      4.077671 A        1.412852E-15 a.u.
  |    C      1     4.496620 A      4.496620 A       -3.011059E-16 a.u.
  |    C      0     4.496620 A      4.551928 A        2.873903E-17 a.u.
  |    C      2     4.551928 A      4.551928 A       -4.610785E-16 a.u.
  |    C      2     4.551928 A      4.551928 A        7.440584E-16 a.u.
  |    C      2     4.551928 A      4.551928 A       -7.110458E-16 a.u.
  |    C      2     4.551928 A      4.551928 A       -1.935424E-16 a.u.
  |    C      0     4.551928 A      4.607917 A        2.067142E-16 a.u.
  |    C      0     4.551928 A      4.607917 A       -1.109786E-16 a.u.
  |    C      1     4.551928 A      4.607917 A       -9.951742E-17 a.u.
  |    C      1     4.551928 A      4.607917 A        1.937809E-16 a.u.
  |    C      1     4.607917 A      4.607917 A       -2.813308E-16 a.u.
  |    C      1     4.607917 A      4.607917 A       -7.330363E-17 a.u.
  |    C      2     4.607917 A      4.607917 A        1.318462E-15 a.u.
  |    C      2     4.607917 A      4.607917 A       -1.318397E-15 a.u.
  |    C      0     4.607917 A      4.664595 A        3.157826E-16 a.u.
  |    C      1     4.607917 A      4.664595 A        7.356967E-16 a.u.
  |    C      4     3.835889 A  2.962973E+02 A            4.379483 a.u.
  |    C      3     4.127827 A  1.725964E+03 A            9.005588 a.u.
  |    C      2     4.607917 A  2.608475E+04 A            9.531178 a.u.
  |    C      1     4.607917 A  2.736013E+06 A            2.127278 a.u.
  |    C      0     4.607917 A  4.399765E+12 A            0.661635 a.u.

  | Shrink_full_auxil_basis : there are       36  radial auxiliary wave functions
                            accepted and       7 rejected.
  | Shrink_full_auxil_basis : there are totally                8992 partial auxiliary wave functions.
 
  | Maximal number of product basis functions per thread :   512   512
 
  | Minimal total memory requirement for three-center overlap :      72.476 Gbs
  | Number of local auxiliary basis functions on task:      0   512
  | Number of local auxiliary basis functions on task:      1   512
  | Number of local auxiliary basis functions on task:      2   512
  | Number of local auxiliary basis functions on task:      3   512
  | Number of local auxiliary basis functions on task:      4   496
  | Number of local auxiliary basis functions on task:      5   496
  | Number of local auxiliary basis functions on task:      6   496
  | Number of local auxiliary basis functions on task:      7   496
  | Number of local auxiliary basis functions on task:      8   496
  | Number of local auxiliary basis functions on task:      9   496
  | Number of local auxiliary basis functions on task:     10   496
  | Number of local auxiliary basis functions on task:     11   496
  | Number of local auxiliary basis functions on task:     12   496
  | Number of local auxiliary basis functions on task:     13   496
  | Number of local auxiliary basis functions on task:     14   496
  | Number of local auxiliary basis functions on task:     15   496
  | Number of local auxiliary basis functions on task:     16   496
  | Number of local auxiliary basis functions on task:     17   496
  | 2D aux task distribution:      3 X      6
  | 2D block size (nb_aux_2d):     64
 
  Basis pair condensation :   1037520  -->     554324
dP_dE (Bohr^3) at every cycle:--->
 (976.581606394834,0.000000000000000E+000) (-0.681265910755892,0.000000000000000E+000) (-460.644367186509,0.000000000000000E+000)
 (-0.637273985995319,0.000000000000000E+000) (1375.15618910100,0.000000000000000E+000) (-0.910688880413569,0.000000000000000E+000)
 (-460.823864995220,0.000000000000000E+000) (-0.912570553025571,0.000000000000000E+000) (1730.83898663160,0.000000000000000E+000)
DFPT polarizability (Bohr^3)        xx        yy        zz        xy        xz        yz
  | Polarizability:--->                       976.581606395                 1375.156189101                 1730.838986632                   -0.681265911                 -460.644367187                   -0.910688880

DFPT for dielectric_constant:--->  # PARSE DFPT_dielectric_tensor
               2.325200408968670            -0.000924463309198            -0.625084580528001
              -0.000864767205665             2.866057615932259            -0.001235785385333
              -0.625328155225656            -0.001238338774930             3.348711585312992

                                               :  max(cpu_time)    wall_clock(cpu1)
  | Time for  dielectric calculation            :        0.000 s           0.000 s
===========================================================================

------------------------------------------------------------------------------
  Final output of selected total energy values:

  The following output summarizes some interesting total energy values
  at the end of a run (AFTER all relaxation, molecular dynamics, etc.).

  | Total energy of the DFT / Hartree-Fock s.c.f. calculation      :         -83267.485977709 eV
  | Final zero-broadening corrected energy (caution - metals only) :         -83267.485977709 eV
  | For reference only, the value of 1 Hartree used in FHI-aims is :             27.211384500 eV
  | For reference only, the overall average (free atom contribution
  | + realspace contribution) of the electrostatic potential after
  | s.c.f. convergence is                                          :             -7.694488480 eV

  Before relying on these values, please be sure to understand exactly which
  total energy value is referred to by a given number. Different objects may
  all carry the same name 'total energy'. Definitions:

  Total energy of the DFT / Hartree-Fock s.c.f. calculation:
  | Note that this energy does not include ANY quantities calculated after the
  | s.c.f. cycle, in particular not ANY RPA, MP2, etc. many-body perturbation terms.

  Final zero-broadening corrected energy:
  | For metallic systems only, a broadening of the occupation numbers at the Fermi
  | level can be extrapolated back to zero broadening by an electron-gas inspired
  | formula. For all systems that are not real metals, this value can be
  | meaningless and should be avoided.

------------------------------------------------------------------------------
  Methods described in the following list of references were used in this FHI-aims run.
  If you publish the results, please make sure to cite these reference if they apply.
  FHI-aims is an academic code, and for our developers (often, Ph.D. students
  and postdocs), scientific credit in the community is essential.
  Thank you for helping us!

  For any use of FHI-aims, please cite:

    Volker Blum, Ralf Gehrke, Felix Hanke, Paula Havu, Ville Havu,
    Xinguo Ren, Karsten Reuter, and Matthias Scheffler
    'Ab initio molecular simulations with numeric atom-centered orbitals'
    Computer Physics Communications 180, 2175-2196 (2009)
    http://doi.org/10.1016/j.cpc.2009.06.022


  For Hartree-Fock, hybrid functionals, or many-body perturbation theory used in your run, please cite:

    Xinguo Ren, Patrick Rinke, Volker Blum, Juergen Wieferink, Alex Tkatchenko,
    Andrea Sanfilippo, Karsten Reuter, and Matthias Scheffler,
    'Resolution-of-identity approach to Hartree-Fock, hybrid density functionals,
    RPA, MP2, and GW with numeric atom-centered orbital basis functions'
    New Journal of Physics 14, 053020 (2012).
    http://doi.org/10.1088/1367-2630/14/5/053020


  The provided symmetry information was generated with SPGlib:

    Atsushi Togo, Yusuke Seto, Dimitar Pashov
    SPGlib 1.7.3 obtained from http://spglib.sourceforge.net
    Copyright (C) 2008 Atsushi Togo


  The DFPT (perturbation by an electric field) part of the code was used.
  Here is the corresponding reference:

    Honghui Shang, Nathaniel Raimbault, Mariana Rossi,
    Christian Carbogno, Patrick Rinke and Matthias Scheffler,
    'All-Electron, Real-Space Perturbation Theory for Homogeneous
    Electric Fields: Theory, Implementation, and Application within dft'
    New Journal of Physics, 20(7):073040, 2018


  The ELSI infrastructure was used in your run to solve the Kohn-Sham electronic structure.
  Please check out http://elsi-interchange.org to learn more.
  If scalability is important for your project, please acknowledge ELSI by citing:

    V. W-z. Yu, F. Corsetti, A. Garcia, W. P. Huhn, M. Jacquelin, W. Jia,
    B. Lange, L. Lin, J. Lu, W. Mi, A. Seifitokaldani, A. Vazquez-Mayagoitia,
    C. Yang, H. Yang, and V. Blum
    'ELSI: A unified software interface for Kohn-Sham electronic structure solvers'
    Computer Physics Communications 222, 267-285 (2018).
    http://doi.org/10.1016/j.cpc.2017.09.007


  For the real-space grid partitioning and parallelization used in this calculation, please cite:

    Ville Havu, Volker Blum, Paula Havu, and Matthias Scheffler,
    'Efficient O(N) integration for all-electron electronic structure calculation'
    'using numerically tabulated basis functions'
    Journal of Computational Physics 228, 8367-8379 (2009).
    http://doi.org/10.1016/j.jcp.2009.08.008


  The high-level electronic structure method used in your calculation
  employed our efficient localized resolution of identity for the Coulomb operator.
  Some calculations, especially large-scale hybrid density functional theory,
  are only possible thanks to this development. For this feature, please cite:

    Arvid Ihrig, Juergen Wieferink, Igor Ying Zhang, Matti Ropo, Xinguo Ren,
    Patrick Rinke, Matthias Scheffler, and Volker Blum,
    'Accurate localized resolution of identity approach for linear-scaling
    hybrid density functionals and for many-body perturbation theory'
    New Journal of Physics 117, 093020 (2015).
    http://doi.org/10.1088/1367-2630/17/9/093020

  Of course, there are many other important community references, e.g., those cited in the
  above references. Our list is limited to references that describe implementations in the
  FHI-aims code. The reason is purely practical (length of this list) - please credit others as well.

------------------------------------------------------------
          Leaving FHI-aims.
          Date     :  20230125, Time     :  123052.813

          Computational steps:
          | Number of self-consistency cycles          :           46
          | Number of SCF (re)initializations          :            1
          | Number of coupled perturbed self-consistency cycles          :            0
          | Number of CPSCF (re)initializations          :            0

          Detailed time accounting                     :  max(cpu_time)    wall_clock(cpu1)
          | Total time                                  :     1661.866 s        1695.493 s
          | GPU initialization                          :        3.454 s          34.845 s
          | Preparation time                            :        0.089 s           0.078 s
          | Boundary condition initalization            :        5.780 s           5.781 s
          | Grid partitioning                           :        1.185 s           1.186 s
          | Preloading free-atom quantities on grid     :        3.587 s           3.587 s
          | Free-atom superposition energy              :        0.507 s           0.508 s
          | Total time for integrations                 :       26.761 s          27.033 s
          | Product basis setup: Total time             :        0.000 s           0.000 s
          | Product basis: | 2-center integrations     :(       0.000 s)  (       0.000 s)
          | Product basis: | LVL 3-center & coefficient:(       0.000 s)  (       0.000 s)
          | Total time for solution of K.-S. equations  :        4.239 s           4.295 s
          | Total time for density update               :       17.635 s          18.038 s
          | Total time for mixing & preconditioning     :       13.068 s          13.072 s
          | Total time for Hartree multipole update     :        0.098 s           0.098 s
          | Total time for Hartree multipole sum        :       48.355 s          48.395 s
          | Total time for total energy evaluation      :        0.008 s           0.004 s
          | Total time for DFPT                         :     1535.704 s        1536.329 s
          | Total time first_order_DM                   :        1.864 s           1.861 s
          | Total time first_order_density              :      304.314 s         304.413 s
          | Total time first_order_potential            :      115.276 s         115.319 s
          | Total time first_order_H                    :      638.556 s         638.782 s
          | Total time solving of Sternheimer equations :        1.835 s           1.834 s
          | Total time for dielectric constant          :        0.000 s           0.000 s
          | Total time momentum matrix                  :        0.000 s           0.000 s

          GPU acceleration has been used for charge density update.
          GPU acceleration has been used for real-space Hamiltonian integration.
          Due to GPU usage, wall_clock(cpu1) will give a more reliable estimate for timings.

          Partial memory accounting:
          | Residual value for overall tracked memory usage across tasks:     0.000000 MB (should be 0.000000 MB)
          | Peak values for overall tracked memory usage:
          |   Minimum:      292.654 MB (on task  0 after allocating DFPT_pulay_mixing::pulay_mix::alphas)
          |   Maximum:      292.654 MB (on task  0 after allocating DFPT_pulay_mixing::pulay_mix::alphas)
          |   Average:      292.654 MB
          | Largest tracked array allocation:
          |   Minimum:      103.162 MB (DFPT_pulay_mixing::initialize_pulay_mixing::X_in_diffs on task  0)
          |   Maximum:      103.162 MB (DFPT_pulay_mixing::initialize_pulay_mixing::X_in_diffs on task  0)
          |   Average:      103.162 MB
          Note:  These values currently only include a subset of arrays which are explicitly tracked.
          The "true" memory usage will be greater.

          Have a nice day.
------------------------------------------------------------
