------------------------------------------------------------
          Invoking FHI-aims ...

          When using FHI-aims, please cite the following reference:

            Volker Blum, Ralf Gehrke, Felix Hanke, Paula Havu,
            Ville Havu, Xinguo Ren, Karsten Reuter, and Matthias Scheffler,
            'Ab Initio Molecular Simulations with Numeric Atom-Centered Orbitals',
            Computer Physics Communications 180, 2175-2196 (2009)

          In addition, many other developments in FHI-aims are likely important for
          your particular application. A partial list of references is given at the end of
          this file. Thank you for giving credit to the authors of these developments.

          For any questions about FHI-aims, please visit our slack channel at

            https://fhi-aims.slack.com

          and our main development and support site at

            https://aims-git.rz-berlin.mpg.de .

          The latter site, in particular, has a wiki to collect information, as well
          as an issue tracker to log discussions, suggest improvements, and report issues
          or bugs. https://aims-git.rz-berlin.mpg.de is also the main development site
          of the project and all new and updated code versions can be obtained there.
          Please send an email to aims-coordinators@fhi-berlin.mpg.de and we will add
          you to these sites. They are for you and everyone is welcome there.

------------------------------------------------------------



  Date     :  20230120, Time     :  141637.195
  Time zero on CPU 1             :   0.375794000000000E+00  s.
  Internal wall clock time zero  :           443456197.195  s.

  FHI-aims created a unique identifier for this run for later identification
  aims_uuid : D9A30A4E-E7F1-4393-AA48-8720FC40F5F3

  Build configuration of the current instance of FHI-aims
  -------------------------------------------------------
  FHI-aims version      : 220829
  Commit number         : 9895fc21d
  CMake host system     : Linux-5.3.18-150300.59.68-default
  CMake version         : 3.17.0
  Fortran compiler      : /mpcdf/soft/SLE_15/packages/x86_64/intel_oneapi/2021.3/mpi/2021.3.0/bin/mpiifort (Intel) version 20.2.3.20210609
  Fortran compiler flags: -O3 -ip -fp-model precise
  C compiler            : /mpcdf/soft/SLE_15/packages/x86_64/intel/2021.3.0/bin/icc (Intel) version 20.2.3.20210609
  C compiler flags      : -O3 -ip -fp-model precise -std=gnu99
  CUDA compiler         : /mpcdf/soft/SLE_15/packages/x86_64/cuda/11.6.2/bin/nvcc
  CUDA compiler flags   : -O3 -DAdd_ -lcublas
  ELPA2 kernel          : AVX512
  Using MPI
  Using ScaLAPACK
  Using LibXC
  Using CUDA
  Using i-PI
  Using RLSY
  Linking against: /mpcdf/soft/SLE_15/packages/x86_64/cuda/11.6.2/lib64/libcublas.so
                   /mpcdf/soft/SLE_15/packages/x86_64/cuda/11.6.2/lib64/libcudart.so
                   /mpcdf/soft/SLE_15/packages/x86_64/intel_oneapi/2021.3/mkl/latest/lib/intel64/libmkl_intel_lp64.so
                   /mpcdf/soft/SLE_15/packages/x86_64/intel_oneapi/2021.3/mkl/latest/lib/intel64/libmkl_sequential.so
                   /mpcdf/soft/SLE_15/packages/x86_64/intel_oneapi/2021.3/mkl/latest/lib/intel64/libmkl_core.so
                   /mpcdf/soft/SLE_15/packages/x86_64/intel_oneapi/2021.3/mkl/latest/lib/intel64/libmkl_blacs_intelmpi_lp64.so
                   /mpcdf/soft/SLE_15/packages/x86_64/intel_oneapi/2021.3/mkl/latest/lib/intel64/libmkl_scalapack_lp64.so

  Using       18 parallel tasks.
  Task        0 on host adag004 reporting.
  Task        1 on host adag004 reporting.
  Task        2 on host adag004 reporting.
  Task        3 on host adag004 reporting.
  Task        4 on host adag004 reporting.
  Task        5 on host adag004 reporting.
  Task        6 on host adag004 reporting.
  Task        7 on host adag004 reporting.
  Task        8 on host adag004 reporting.
  Task        9 on host adag004 reporting.
  Task       10 on host adag004 reporting.
  Task       11 on host adag004 reporting.
  Task       12 on host adag004 reporting.
  Task       13 on host adag004 reporting.
  Task       14 on host adag004 reporting.
  Task       15 on host adag004 reporting.
  Task       16 on host adag004 reporting.
  Task       17 on host adag004 reporting.

  Performing system and environment tests:
  | Environment variable OMP_NUM_THREADS correctly set to 1.
  | Checking for ScaLAPACK...
  | Testing pdtran()...
  | All pdtran() tests passed.

  Obtaining array dimensions for all initial allocations:
  
  -----------------------------------------------------------------------
  Parsing control.in (first pass over file, find array dimensions only).
  The contents of control.in will be repeated verbatim below
  unless switched off by setting 'verbatim_writeout .false.' .
  in the first line of control.in .
  -----------------------------------------------------------------------
  
  #
  # Input for polarizability replays on generic oligoacene molecular crystals (light settings,  LDA+MBD).
  #
  #########################################################################################
  #
  #  Physical model
  #
    xc                 pw-lda
    spin               none
    relativistic       none
    charge             0.0
    k_grid 	     2 1 1
    DFPT dielectric
  #
  #  GPU acceleration
  #
  # Turns on GPU acceleration everywhere
    use_gpu
  
  # Turns OFF GPU acceleration of ELPA - may be necessary if GPU ELPA is slow
    elsi_elpa_gpu 0
  #
  #  Relaxation
  #
  #  relax_geometry trm 1E-3
  #  relax_unit_cell fixed_angles
  #
  #  SCF convergence        #
    charge_mix_param   0.75
    #sc_accuracy_rho 1E-4
  #
  # i-PI communication
  #
  compute_forces .false.
  # use_pimd_wrapper 130.183.223.27 26118
  #communicate_pimd_wrapper polarizability
  #output_level MD_light
  #
  # Output SALTED info
    ri_density_restart write
    ri_rho1 write
    ri_full_output .true.
  #  sc_accuracy_rho    1d-6
    default_prodbas_acc 1e-6
    default_max_l_prodbas 6
  #
  #
  ################################################################################
  #
  #  FHI-aims code project
  #  VB, Fritz-Haber Institut, 2009
  #
  #  Suggested "light" defaults for H atom (to be pasted into control.in file)
  #  Be sure to double-check any results obtained with these settings for post-processing,
  #  e.g., with the "tight" defaults and larger basis sets.
  #
  ################################################################################
    species        H
  #     global species definitions
      nucleus             1
      mass                1.00794
  #
      l_hartree           4
  #
      cut_pot             3.5  1.5  1.0
      basis_dep_cutoff    1e-4
  #
      radial_base         24 5.0
      radial_multiplier   1
      angular_grids       specified
        division   0.2421   50
        division   0.3822  110
        division   0.4799  194
        division   0.5341  302
  #      division   0.5626  434
  #      division   0.5922  590
  #      division   0.6542  770
  #      division   0.6868 1202
  #      outer_grid  770
        outer_grid  302
  ################################################################################
  #
  #  Definition of "minimal" basis
  #
  ################################################################################
  #     valence basis states
      valence      1  s   1.
  #     ion occupancy
      ion_occ      1  s   0.5
  ################################################################################
  #
  #  Suggested additional basis functions. For production calculations,
  #  uncomment them one after another (the most important basis functions are
  #  listed first).
  #
  #  Basis constructed for dimers: 0.5 A, 0.7 A, 1.0 A, 1.5 A, 2.5 A
  #
  ################################################################################
  #  "First tier" - improvements: -1014.90 meV to -62.69 meV
       hydro 2 s 2.1
       hydro 2 p 3.5
  #  "Second tier" - improvements: -12.89 meV to -1.83 meV
  #     hydro 1 s 0.85
  #     hydro 2 p 3.7
  #     hydro 2 s 1.2
  #     hydro 3 d 7
  #  "Third tier" - improvements: -0.25 meV to -0.12 meV
  #     hydro 4 f 11.2
  #     hydro 3 p 4.8
  #     hydro 4 d 9
  #     hydro 3 s 3.2
  ################################################################################
  ################################################################################
  #
  #  FHI-aims code project
  #  VB, Fritz-Haber Institut, 2009
  #
  #  Suggested "light" defaults for C atom (to be pasted into control.in file)
  #  Be sure to double-check any results obtained with these settings for post-processing,
  #  e.g., with the "tight" defaults and larger basis sets.
  #
  ################################################################################
    species        C
  #     global species definitions
      nucleus             6
      mass                12.0107
  #
      l_hartree           4
  #
      cut_pot             3.5  1.5  1.0
      basis_dep_cutoff    1e-4
  #
      radial_base         34 5.0
      radial_multiplier   1
      angular_grids specified
        division   0.3326   50
        division   0.5710  110
        division   0.7727  194
        division   0.8772  302
  #      division   0.9334  434
  #      division   0.9625  590
  #      division   0.9924  770
  #      division   1.0230  974
  #      division   1.4589 1202
  #     outer_grid  974
       outer_grid 302
  ################################################################################
  #
  #  Definition of "minimal" basis
  #
  ################################################################################
  #     valence basis states
      valence      2  s   2.
      valence      2  p   2.
  #     ion occupancy
      ion_occ      2  s   1.
      ion_occ      2  p   1.
  ################################################################################
  #
  #  Suggested additional basis functions. For production calculations,
  #  uncomment them one after another (the most important basis functions are
  #  listed first).
  #
  #  Constructed for dimers: 1.0 A, 1.25 A, 1.5 A, 2.0 A, 3.0 A
  #
  ################################################################################
  #  "First tier" - improvements: -1214.57 meV to -155.61 meV
       hydro 2 p 1.7
       hydro 3 d 6
       hydro 2 s 4.9
  #  "Second tier" - improvements: -67.75 meV to -5.23 meV
  #     hydro 4 f 9.8
  #     hydro 3 p 5.2
  #     hydro 3 s 4.3
  #     hydro 5 g 14.4
  #     hydro 3 d 6.2
  #  "Third tier" - improvements: -2.43 meV to -0.60 meV
  #     hydro 2 p 5.6
  #     hydro 2 s 1.4
  #     hydro 3 d 4.9
  #     hydro 4 f 11.2
  #  "Fourth tier" - improvements: -0.39 meV to -0.18 meV
  #     hydro 2 p 2.1
  #     hydro 5 g 16.4
  #     hydro 4 d 13.2
  #     hydro 3 s 13.6
  #     hydro 4 f 17.6
  #  Further basis functions - improvements: -0.08 meV and below
  #     hydro 3 s 2
  #     hydro 3 p 6
  #     hydro 4 d 20
  
  -----------------------------------------------------------------------
  Completed first pass over input file control.in .
  -----------------------------------------------------------------------
  
  
  -----------------------------------------------------------------------
  Parsing geometry.in (first pass over file, find array dimensions only).
  The contents of geometry.in will be repeated verbatim below
  unless switched off by setting 'verbatim_writeout .false.' .
  in the first line of geometry.in .
  -----------------------------------------------------------------------
  
  #=======================================================
  # FHI-aims file: /ada/ptmp/mpsd/alewis/naphthalene/qmdata/data/geoms/318.in
  # Created using the Atomic Simulation Environment (ASE)
  # Thu Jan 19 15:19:17 2023
  #=======================================================
  lattice_vector 8.1020000000000003 0.0000000000000000 0.0000000000000000
  lattice_vector 0.0000000000000000 11.8800000000000008 0.0000000000000000
  lattice_vector -9.7850918486534706 0.0000000000000000 14.2571119625755713
  atom -0.6604570000000000 0.3190520000000000 2.4326599999999998 C
  atom 0.1358160000000000 3.2252399999999999 4.8689900000000002 C
  atom 4.2320599999999997 5.5227500000000003 4.8190400000000002 C
  atom 3.2856399999999999 2.9842399999999998 2.4220799999999998 C
  atom 0.0521338000000000 1.1148300000000000 1.5888500000000001 C
  atom -0.6439330000000000 4.0545799999999996 5.6517799999999996 C
  atom 3.5573700000000001 4.6999300000000002 5.6624499999999998 C
  atom 4.0103299999999997 2.0590999999999999 1.7009799999999999 C
  atom 0.4080220000000000 0.7047110000000000 0.2590370000000000 C
  atom -1.0034300000000000 3.6551900000000002 6.9625399999999997 C
  atom 3.1345900000000002 5.1667699999999996 6.9167699999999996 C
  atom 4.3432399999999998 2.3391500000000001 0.3437600000000000 C
  atom -3.7349199999999998 1.4197500000000001 6.8252300000000004 C
  atom 3.1067800000000001 4.5029000000000003 0.5392730000000000 C
  atom 7.2394600000000002 4.5059199999999997 0.5716180000000000 C
  atom 0.2628220000000000 1.5911100000000000 6.6438600000000001 C
  atom -3.3561899999999998 1.1796700000000000 5.5381400000000003 C
  atom 2.7991100000000002 4.1888199999999998 1.8451599999999999 C
  atom 6.9090800000000003 4.8792000000000000 1.8520200000000000 C
  atom 0.5750250000000000 1.9841000000000000 5.3616799999999998 C
  atom -0.8719190000000000 0.6267520000000000 3.4348200000000002 H
  atom 0.5072790000000000 3.5508999999999999 3.8799199999999998 H
  atom 4.5429700000000004 5.1687399999999997 3.8085399999999998 H
  atom 2.9976600000000002 2.7187500000000000 3.4323000000000001 H
  atom 0.3911570000000000 2.1331600000000002 1.9081100000000000 H
  atom -0.9915580000000001 5.0243399999999996 5.2391899999999998 H
  atom 3.3683600000000000 3.6648299999999998 5.3304299999999998 H
  atom 4.2902699999999996 1.0929400000000000 2.0953800000000000 H
  atom -3.4744100000000002 2.3307400000000000 7.3390500000000003 H
  atom 2.8315600000000001 5.4416799999999999 0.0555948000000000 H
  atom 6.9729700000000001 3.5377000000000001 0.1503880000000000 H
  atom 0.5876900000000000 0.6074430000000000 7.0084200000000001 H
  atom -2.7125699999999999 1.8484700000000001 5.0308999999999999 H
  atom 2.1889300000000000 4.8608900000000004 2.4550700000000001 H
  atom 6.4314299999999998 4.1320499999999996 2.4821300000000002 H
  atom 1.2134199999999999 1.3375699999999999 4.7437199999999997 H
  atom -5.6836399999999996 -0.0905416000000000 9.6300600000000003 C
  atom -4.7641499999999999 3.0526300000000002 11.9636999999999993 C
  atom -0.6473310000000000 5.8984800000000002 11.8980999999999995 C
  atom -1.6938500000000001 2.7833800000000002 9.5986100000000008 C
  atom -4.9161799999999998 0.8028680000000000 8.9021399999999993 C
  atom -5.5566500000000003 3.9317600000000001 12.6867000000000001 C
  atom -1.4220100000000000 5.0570800000000000 12.6793999999999993 C
  atom -0.8984820000000000 1.9868200000000000 8.8009100000000000 C
  atom -4.5976499999999998 0.5538670000000000 7.5639500000000002 C
  atom -5.9396399999999998 3.5734400000000002 13.9906000000000006 C
  atom -1.8169200000000001 5.3946699999999996 13.9885000000000002 C
  atom -0.5562760000000000 2.3916599999999999 7.4813499999999999 C
  atom -8.6092800000000000 1.4921800000000001 13.6569000000000003 C
  atom -1.8131699999999999 4.4724599999999999 7.8203399999999998 C
  atom 2.3611100000000000 4.3671600000000002 7.7695200000000000 C
  atom -4.6634900000000004 1.4689099999999999 13.8207000000000004 C
  atom -8.3330900000000003 1.0686899999999999 12.3655000000000008 C
  atom -2.1556199999999999 4.0614800000000004 9.1157699999999995 C
  atom 2.0339100000000001 4.7854000000000001 9.0350099999999998 C
  atom -4.3562300000000000 1.7999700000000001 12.5006000000000004 C
  atom -5.8609900000000001 0.1247520000000000 10.7171000000000003 H
  atom -4.4847200000000003 3.3404500000000001 10.9413999999999998 H
  atom -0.4786420000000000 5.6294800000000000 10.8308000000000000 H
  atom -1.9619599999999999 2.4975600000000000 10.6302000000000003 H
  atom -4.4854399999999996 1.6547799999999999 9.4231499999999997 H
  atom -5.9129600000000000 4.8462699999999996 12.2612000000000005 H
  atom -1.7116800000000001 4.0809100000000003 12.2728999999999999 H
  atom -0.5273940000000000 0.9844870000000000 9.1144099999999995 H
  atom -8.1752199999999995 2.4210400000000001 14.0096000000000007 H
  atom -2.1907100000000002 5.4348200000000002 7.4593999999999996 H
  atom 2.0905399999999998 3.3653100000000000 7.4406900000000000 H
  atom -4.3462899999999998 0.4851500000000000 14.1785999999999994 H
  atom -7.6234400000000004 1.6148400000000001 11.7471999999999994 H
  atom -2.8101900000000000 4.7053700000000003 9.7456499999999995 H
  atom 1.4343800000000000 4.1241700000000003 9.6443300000000001 H
  atom -3.7822900000000002 1.1307600000000000 11.8795999999999999 H
  atom -0.7795010000000000 6.1250000000000000 2.3450500000000001 C
  atom 0.1811440000000000 9.0686400000000003 4.7964200000000003 C
  atom 4.2680100000000003 11.8541000000000007 4.9364100000000004 C
  atom 3.1789399999999999 8.7956000000000003 2.4084800000000000 C
  atom -0.1160130000000000 7.0319099999999999 1.5498799999999999 C
  atom -0.5736890000000000 9.9116300000000006 5.6157399999999997 C
  atom 3.4749400000000001 10.9699000000000009 5.6131200000000003 C
  atom 3.9948700000000001 7.9589699999999999 1.6830300000000000 C
  atom 0.2738510000000000 6.6673200000000001 0.2429710000000000 C
  atom -0.9553440000000000 9.5052599999999998 6.9246499999999997 C
  atom 3.0689799999999998 11.2216000000000005 6.9390499999999999 C
  atom 4.3699700000000004 8.2997300000000003 0.3587400000000000 C
  atom -3.8561800000000002 7.3124099999999999 6.4386099999999997 C
  atom 3.2231200000000002 10.4697999999999993 0.6264860000000000 C
  atom 7.3030099999999996 10.5140999999999991 0.7377490000000000 C
  atom 0.2513280000000000 7.4364999999999997 6.6016899999999996 C
  atom -3.5270299999999999 6.8486500000000001 5.1976800000000001 C
  atom 2.8102399999999998 10.0867000000000004 1.8852000000000000 C
  atom 6.9709899999999996 10.9291000000000000 2.0325299999999999 C
  atom 0.6086549999999999 7.8247700000000000 5.3228200000000001 C
  atom -1.0035099999999999 6.3833599999999997 3.3645299999999998 H
  atom 0.5382570000000000 9.3676999999999992 3.8005499999999999 H
  atom 4.5511799999999996 11.6004000000000005 3.9081899999999998 H
  atom 2.7259699999999998 8.4637200000000004 3.3738500000000000 H
  atom 0.2208070000000000 8.0183599999999995 1.9570300000000000 H
  atom -0.8497140000000000 10.9383999999999997 5.3285700000000000 H
  atom 3.1666099999999999 9.9979300000000002 5.2243399999999998 H
  atom 4.2400000000000002 6.9616300000000004 2.0530400000000002 H
  atom -3.5387499999999998 8.3049999999999997 6.7365000000000004 H
  atom 2.8903400000000001 11.4253000000000000 0.1975670000000000 H
  atom 7.0045500000000001 9.5230099999999993 0.3660250000000000 H
  atom 0.5084710000000000 6.4619799999999996 6.9895100000000001 H
  atom -3.0280000000000000 7.5383100000000001 4.4785199999999996 H
  atom 2.1123500000000002 10.7304999999999993 2.3783500000000002 H
  atom 6.4158200000000001 10.2441999999999993 2.6984499999999998 H
  atom 1.2576700000000001 7.1997600000000004 4.6878900000000003 H
  atom -5.6292700000000000 6.0719000000000003 9.4948800000000002 C
  atom -4.6692799999999997 9.0671400000000002 11.9999000000000002 C
  atom -0.7659410000000000 11.7098999999999993 11.8877000000000006 C
  atom -1.8727600000000000 8.6252600000000008 9.4976800000000008 C
  atom -4.9124600000000003 6.8954800000000001 8.6441099999999995 C
  atom -5.3498099999999997 9.9433399999999992 12.7957999999999998 C
  atom -1.4822400000000000 10.9243000000000006 12.7301000000000002 C
  atom -1.0524300000000000 7.7824400000000002 8.7343100000000007 C
  atom -4.5691800000000002 6.4848100000000004 7.3540299999999998 C
  atom -5.7575300000000000 9.5836500000000004 14.0977999999999994 C
  atom -1.7448699999999999 11.3126999999999995 14.0835000000000008 C
  atom -0.5902350000000000 8.2001100000000005 7.4192999999999998 C
  atom -8.7015100000000007 7.5216300000000000 13.6791000000000000 C
  atom -1.7746200000000001 10.3107000000000006 7.7176499999999999 C
  atom 2.2477499999999999 10.3229000000000006 7.6772700000000000 C
  atom -4.7193600000000000 7.4073399999999996 13.7576000000000001 C
  atom -8.2925400000000007 7.1466000000000003 12.4093999999999998 C
  atom -2.2411799999999999 9.8972300000000004 8.9578100000000003 C
  atom 1.9648000000000001 10.5717999999999996 9.0093899999999998 C
  atom -4.3872600000000004 7.7404200000000003 12.4830000000000005 C
  atom -5.9063600000000003 6.4113800000000003 10.5121000000000002 H
  atom -4.3377699999999999 9.3613999999999997 11.0154999999999994 H
  atom -0.5244360000000000 11.4504000000000001 10.8751999999999995 H
  atom -2.2268599999999998 8.3338599999999996 10.4762000000000004 H
  atom -4.6484500000000004 7.9314600000000004 8.9620300000000004 H
  atom -5.6741200000000003 10.9533000000000005 12.4456000000000007 H
  atom -1.8085500000000001 9.9106000000000005 12.4390000000000001 H
  atom -0.7477100000000000 6.7993600000000001 9.0739199999999993 H
  atom -8.3658199999999994 8.4935500000000008 14.0746000000000002 H
  atom -2.1123200000000000 11.2786000000000008 7.3252699999999997 H
  atom 1.8665200000000000 9.4429599999999994 7.1638099999999998 H
  atom -4.4402699999999999 6.4390099999999997 14.1417999999999999 H
  atom -7.6792400000000001 7.8279300000000003 11.8032000000000004 H
  atom -2.9389699999999999 10.5010999999999992 9.5060699999999994 H
  atom 1.3194100000000000 9.9192199999999993 9.5913000000000004 H
  atom -3.9004599999999998 7.0102200000000003 11.8435000000000006 H
  
  -----------------------------------------------------------------------
  Completed first pass over input file geometry.in .
  -----------------------------------------------------------------------
  

  Basic array size parameters:
  | Number of species                 :        2
  | Number of atoms                   :      144
  | Number of lattice vectors         :        3
  | Max. basis fn. angular momentum   :        2
  | Max. atomic/ionic basis occupied n:        2
  | Max. number of basis fn. types    :        2
  | Max. radial fns per species/type  :        3
  | Max. logarithmic grid size        :     1277
  | Max. radial integration grid size :       34
  | Max. angular integration grid size:      302
  | Max. angular grid division number :        8
  | Radial grid for Hartree potential :     1277
  | Number of spin channels           :        1

------------------------------------------------------------
          Reading file control.in.
------------------------------------------------------------
  XC: Using Perdew-Wang parametrisation of Ceperley-Alder LDA.
  Spin treatment: No spin polarisation.
  Non-relativistic treatment of kinetic energy.
  Charge =   0.000000E+00: Neutral system requested explicitly.
  Found k-point grid:         2         1         1
  DFPT calculation will begin after the DFT/HF calculation.
  Charge density mixing - mixing parameter:     0.7500
  Forces will not be computed.
 
  Reading configuration options for species H                   .
  | Found nuclear charge :   1.0000
  | Found atomic mass :    1.00794000000000      amu
  | Found l_max for Hartree potential  :   4
  | Found cutoff potl. onset [A], width [A], scale factor :    3.50000    1.50000    1.00000
  | Threshold for basis-dependent cutoff potential is   0.100000E-03
  | Found data for basic radial integration grid :    24 points, outermost radius =    5.000 A
  | Found multiplier for basic radial grid :   1
  | Found angular grid specification: user-specified.
  | Specified grid contains     5 separate shells.
  | Check grid settings after all constraints further below.
  | Found free-atom valence shell :  1 s   1.000
  | No ionic wave fns used. Skipping ion_occ.
  | Found hydrogenic basis function :  2 s   2.100
  | Found hydrogenic basis function :  2 p   3.500
  Species H                   : Missing cutoff potential type.
  Defaulting to exp(1/x)/(1-x)^2 type cutoff potential.
  Species H : No 'logarithmic' tag. Using default grid for free atom:
  | Default logarithmic grid data [bohr] : 0.1000E-03 0.1000E+03 0.1012E+01
  Species H : On-site basis accuracy parameter (for Gram-Schmidt orthonormalisation) not specified.
  Using default value basis_acc =  0.1000000E-03.
  Species H                   : Using default innermost maximum threshold i_radial=  2 for radial functions.
  Species H                   : Default cutoff onset for free atom density etc. : 0.35000000E+01 AA.
  Species H                   : Basic radial grid will be enhanced according to radial_multiplier =   1, to contain    24 grid points.
 
  Reading configuration options for species C                   .
  | Found nuclear charge :   6.0000
  | Found atomic mass :    12.0107000000000      amu
  | Found l_max for Hartree potential  :   4
  | Found cutoff potl. onset [A], width [A], scale factor :    3.50000    1.50000    1.00000
  | Threshold for basis-dependent cutoff potential is   0.100000E-03
  | Found data for basic radial integration grid :    34 points, outermost radius =    5.000 A
  | Found multiplier for basic radial grid :   1
  | Found angular grid specification: user-specified.
  | Specified grid contains     5 separate shells.
  | Check grid settings after all constraints further below.
  | Found free-atom valence shell :  2 s   2.000
  | Found free-atom valence shell :  2 p   2.000
  | No ionic wave fns used. Skipping ion_occ.
  | No ionic wave fns used. Skipping ion_occ.
  | Found hydrogenic basis function :  2 p   1.700
  | Found hydrogenic basis function :  3 d   6.000
  | Found hydrogenic basis function :  2 s   4.900
  Species C                   : Missing cutoff potential type.
  Defaulting to exp(1/x)/(1-x)^2 type cutoff potential.
  Species C : No 'logarithmic' tag. Using default grid for free atom:
  | Default logarithmic grid data [bohr] : 0.1000E-03 0.1000E+03 0.1012E+01
  Species C : On-site basis accuracy parameter (for Gram-Schmidt orthonormalisation) not specified.
  Using default value basis_acc =  0.1000000E-03.
  Species C                   : Using default innermost maximum threshold i_radial=  2 for radial functions.
  Species C                   : Default cutoff onset for free atom density etc. : 0.35000000E+01 AA.
  Species C                   : Basic radial grid will be enhanced according to radial_multiplier =   1, to contain    34 grid points.
 
  Finished reading input file 'control.in'.
 
------------------------------------------------------------


------------------------------------------------------------
          Reading geometry description geometry.in.
------------------------------------------------------------
  | The smallest distance between any two atoms is         1.05774882 AA.
  | The first atom of this pair is atom number                     17 .
  | The second atom of this pair is atom number                    33 .
  | Wigner-Seitz cell of the first atom image           0     0     0 .
  | (The Wigner-Seitz cell of the second atom is 0 0 0  by definition.)

  Symmetry information by spglib:
  | Precision set to  0.1E-04
  | Number of Operations  : 1
  | Space group           : 1
  | International         : P1
  | Schoenflies           : C1^1
  Input structure read successfully.
  The structure contains      144 atoms,  and a total of        544.000 electrons.

  Input geometry:
  | Unit cell:
  |        8.10200000        0.00000000        0.00000000
  |        0.00000000       11.88000000        0.00000000
  |       -9.78509185        0.00000000       14.25711196
  | Atomic structure:
  |       Atom                x [A]            y [A]            z [A]
  |    1: Species C            -0.66045700        0.31905200        2.43266000
  |    2: Species C             0.13581600        3.22524000        4.86899000
  |    3: Species C             4.23206000        5.52275000        4.81904000
  |    4: Species C             3.28564000        2.98424000        2.42208000
  |    5: Species C             0.05213380        1.11483000        1.58885000
  |    6: Species C            -0.64393300        4.05458000        5.65178000
  |    7: Species C             3.55737000        4.69993000        5.66245000
  |    8: Species C             4.01033000        2.05910000        1.70098000
  |    9: Species C             0.40802200        0.70471100        0.25903700
  |   10: Species C            -1.00343000        3.65519000        6.96254000
  |   11: Species C             3.13459000        5.16677000        6.91677000
  |   12: Species C             4.34324000        2.33915000        0.34376000
  |   13: Species C            -3.73492000        1.41975000        6.82523000
  |   14: Species C             3.10678000        4.50290000        0.53927300
  |   15: Species C             7.23946000        4.50592000        0.57161800
  |   16: Species C             0.26282200        1.59111000        6.64386000
  |   17: Species C            -3.35619000        1.17967000        5.53814000
  |   18: Species C             2.79911000        4.18882000        1.84516000
  |   19: Species C             6.90908000        4.87920000        1.85202000
  |   20: Species C             0.57502500        1.98410000        5.36168000
  |   21: Species H            -0.87191900        0.62675200        3.43482000
  |   22: Species H             0.50727900        3.55090000        3.87992000
  |   23: Species H             4.54297000        5.16874000        3.80854000
  |   24: Species H             2.99766000        2.71875000        3.43230000
  |   25: Species H             0.39115700        2.13316000        1.90811000
  |   26: Species H            -0.99155800        5.02434000        5.23919000
  |   27: Species H             3.36836000        3.66483000        5.33043000
  |   28: Species H             4.29027000        1.09294000        2.09538000
  |   29: Species H            -3.47441000        2.33074000        7.33905000
  |   30: Species H             2.83156000        5.44168000        0.05559480
  |   31: Species H             6.97297000        3.53770000        0.15038800
  |   32: Species H             0.58769000        0.60744300        7.00842000
  |   33: Species H            -2.71257000        1.84847000        5.03090000
  |   34: Species H             2.18893000        4.86089000        2.45507000
  |   35: Species H             6.43143000        4.13205000        2.48213000
  |   36: Species H             1.21342000        1.33757000        4.74372000
  |   37: Species C            -5.68364000       -0.09054160        9.63006000
  |   38: Species C            -4.76415000        3.05263000       11.96370000
  |   39: Species C            -0.64733100        5.89848000       11.89810000
  |   40: Species C            -1.69385000        2.78338000        9.59861000
  |   41: Species C            -4.91618000        0.80286800        8.90214000
  |   42: Species C            -5.55665000        3.93176000       12.68670000
  |   43: Species C            -1.42201000        5.05708000       12.67940000
  |   44: Species C            -0.89848200        1.98682000        8.80091000
  |   45: Species C            -4.59765000        0.55386700        7.56395000
  |   46: Species C            -5.93964000        3.57344000       13.99060000
  |   47: Species C            -1.81692000        5.39467000       13.98850000
  |   48: Species C            -0.55627600        2.39166000        7.48135000
  |   49: Species C            -8.60928000        1.49218000       13.65690000
  |   50: Species C            -1.81317000        4.47246000        7.82034000
  |   51: Species C             2.36111000        4.36716000        7.76952000
  |   52: Species C            -4.66349000        1.46891000       13.82070000
  |   53: Species C            -8.33309000        1.06869000       12.36550000
  |   54: Species C            -2.15562000        4.06148000        9.11577000
  |   55: Species C             2.03391000        4.78540000        9.03501000
  |   56: Species C            -4.35623000        1.79997000       12.50060000
  |   57: Species H            -5.86099000        0.12475200       10.71710000
  |   58: Species H            -4.48472000        3.34045000       10.94140000
  |   59: Species H            -0.47864200        5.62948000       10.83080000
  |   60: Species H            -1.96196000        2.49756000       10.63020000
  |   61: Species H            -4.48544000        1.65478000        9.42315000
  |   62: Species H            -5.91296000        4.84627000       12.26120000
  |   63: Species H            -1.71168000        4.08091000       12.27290000
  |   64: Species H            -0.52739400        0.98448700        9.11441000
  |   65: Species H            -8.17522000        2.42104000       14.00960000
  |   66: Species H            -2.19071000        5.43482000        7.45940000
  |   67: Species H             2.09054000        3.36531000        7.44069000
  |   68: Species H            -4.34629000        0.48515000       14.17860000
  |   69: Species H            -7.62344000        1.61484000       11.74720000
  |   70: Species H            -2.81019000        4.70537000        9.74565000
  |   71: Species H             1.43438000        4.12417000        9.64433000
  |   72: Species H            -3.78229000        1.13076000       11.87960000
  |   73: Species C            -0.77950100        6.12500000        2.34505000
  |   74: Species C             0.18114400        9.06864000        4.79642000
  |   75: Species C             4.26801000       11.85410000        4.93641000
  |   76: Species C             3.17894000        8.79560000        2.40848000
  |   77: Species C            -0.11601300        7.03191000        1.54988000
  |   78: Species C            -0.57368900        9.91163000        5.61574000
  |   79: Species C             3.47494000       10.96990000        5.61312000
  |   80: Species C             3.99487000        7.95897000        1.68303000
  |   81: Species C             0.27385100        6.66732000        0.24297100
  |   82: Species C            -0.95534400        9.50526000        6.92465000
  |   83: Species C             3.06898000       11.22160000        6.93905000
  |   84: Species C             4.36997000        8.29973000        0.35874000
  |   85: Species C            -3.85618000        7.31241000        6.43861000
  |   86: Species C             3.22312000       10.46980000        0.62648600
  |   87: Species C             7.30301000       10.51410000        0.73774900
  |   88: Species C             0.25132800        7.43650000        6.60169000
  |   89: Species C            -3.52703000        6.84865000        5.19768000
  |   90: Species C             2.81024000       10.08670000        1.88520000
  |   91: Species C             6.97099000       10.92910000        2.03253000
  |   92: Species C             0.60865500        7.82477000        5.32282000
  |   93: Species H            -1.00351000        6.38336000        3.36453000
  |   94: Species H             0.53825700        9.36770000        3.80055000
  |   95: Species H             4.55118000       11.60040000        3.90819000
  |   96: Species H             2.72597000        8.46372000        3.37385000
  |   97: Species H             0.22080700        8.01836000        1.95703000
  |   98: Species H            -0.84971400       10.93840000        5.32857000
  |   99: Species H             3.16661000        9.99793000        5.22434000
  |  100: Species H             4.24000000        6.96163000        2.05304000
  |  101: Species H            -3.53875000        8.30500000        6.73650000
  |  102: Species H             2.89034000       11.42530000        0.19756700
  |  103: Species H             7.00455000        9.52301000        0.36602500
  |  104: Species H             0.50847100        6.46198000        6.98951000
  |  105: Species H            -3.02800000        7.53831000        4.47852000
  |  106: Species H             2.11235000       10.73050000        2.37835000
  |  107: Species H             6.41582000       10.24420000        2.69845000
  |  108: Species H             1.25767000        7.19976000        4.68789000
  |  109: Species C            -5.62927000        6.07190000        9.49488000
  |  110: Species C            -4.66928000        9.06714000       11.99990000
  |  111: Species C            -0.76594100       11.70990000       11.88770000
  |  112: Species C            -1.87276000        8.62526000        9.49768000
  |  113: Species C            -4.91246000        6.89548000        8.64411000
  |  114: Species C            -5.34981000        9.94334000       12.79580000
  |  115: Species C            -1.48224000       10.92430000       12.73010000
  |  116: Species C            -1.05243000        7.78244000        8.73431000
  |  117: Species C            -4.56918000        6.48481000        7.35403000
  |  118: Species C            -5.75753000        9.58365000       14.09780000
  |  119: Species C            -1.74487000       11.31270000       14.08350000
  |  120: Species C            -0.59023500        8.20011000        7.41930000
  |  121: Species C            -8.70151000        7.52163000       13.67910000
  |  122: Species C            -1.77462000       10.31070000        7.71765000
  |  123: Species C             2.24775000       10.32290000        7.67727000
  |  124: Species C            -4.71936000        7.40734000       13.75760000
  |  125: Species C            -8.29254000        7.14660000       12.40940000
  |  126: Species C            -2.24118000        9.89723000        8.95781000
  |  127: Species C             1.96480000       10.57180000        9.00939000
  |  128: Species C            -4.38726000        7.74042000       12.48300000
  |  129: Species H            -5.90636000        6.41138000       10.51210000
  |  130: Species H            -4.33777000        9.36140000       11.01550000
  |  131: Species H            -0.52443600       11.45040000       10.87520000
  |  132: Species H            -2.22686000        8.33386000       10.47620000
  |  133: Species H            -4.64845000        7.93146000        8.96203000
  |  134: Species H            -5.67412000       10.95330000       12.44560000
  |  135: Species H            -1.80855000        9.91060000       12.43900000
  |  136: Species H            -0.74771000        6.79936000        9.07392000
  |  137: Species H            -8.36582000        8.49355000       14.07460000
  |  138: Species H            -2.11232000       11.27860000        7.32527000
  |  139: Species H             1.86652000        9.44296000        7.16381000
  |  140: Species H            -4.44027000        6.43901000       14.14180000
  |  141: Species H            -7.67924000        7.82793000       11.80320000
  |  142: Species H            -2.93897000       10.50110000        9.50607000
  |  143: Species H             1.31941000        9.91922000        9.59130000
  |  144: Species H            -3.90046000        7.01022000       11.84350000

  Lattice parameters for 3D lattice (in Angstroms) :     8.102000   11.880000   17.292000
  Angle(s) between unit vectors (in degrees)       :    90.000000  124.463000   90.000000


  Quantities derived from the lattice vectors (in Angstrom^-1):
  | Reciprocal lattice vector 1:  0.775510  0.000000  0.532257
  | Reciprocal lattice vector 2:  0.000000  0.528888  0.000000
  | Reciprocal lattice vector 3: -0.000000  0.000000  0.440705
  | Unit cell volume                               :   0.137227E+04  Angstrom^3

  Fractional coordinates:
                         L1                L2                L3
       atom_frac         0.12455590        0.02685623        0.17062782  C
       atom_frac         0.42922151        0.27148485        0.34151306  C
       atom_frac         0.93057449        0.46487795        0.33800955  C
       atom_frac         0.61071187        0.25119865        0.16988574  C
       atom_frac         0.14102816        0.09384091        0.11144263  C
       atom_frac         0.39929109        0.34129461        0.39641829  C
       atom_frac         0.91874631        0.39561700        0.39716669  C
       atom_frac         0.63907240        0.17332492        0.11930747  C
       atom_frac         0.07230400        0.05931911        0.01816897  C
       atom_frac         0.46595582        0.30767593        0.48835557  C
       atom_frac         0.97281915        0.43491330        0.48514524  C
       atom_frac         0.56519045        0.19689815        0.02411148  C
       atom_frac         0.11718638        0.11950758        0.47872458  C
       atom_frac         0.42914090        0.37903199        0.03782484  C
       atom_frac         0.94196234        0.37928620        0.04009353  C
       atom_frac         0.59524886        0.13393182        0.46600321  C
       atom_frac         0.05490062        0.09929882        0.38844754  C
       atom_frac         0.50178965        0.35259428        0.12942032  C
       atom_frac         1.00964922        0.41070707        0.12990148  C
       atom_frac         0.52516785        0.16701178        0.37607055  C
       atom_frac         0.18335016        0.05275690        0.24091976  H
       atom_frac         0.39128446        0.29889731        0.27213927  H
       atom_frac         0.88334824        0.43507912        0.26713264  H
       atom_frac         0.66074456        0.22885101        0.24074301  H
       atom_frac         0.20991746        0.17955892        0.13383566  H
       atom_frac         0.32143400        0.42292424        0.36747905  H
       atom_frac         0.86729167        0.30848737        0.37387867  H
       atom_frac         0.70703448        0.09199832        0.14697086  H
       atom_frac         0.19286650        0.19619024        0.51476414  H
       atom_frac         0.35419852        0.45805387        0.00389944  H
       atom_frac         0.87338754        0.29778620        0.01054828  H
       atom_frac         0.66622845        0.05113157        0.49157361  H
       atom_frac         0.09137133        0.15559512        0.35286950  H
       atom_frac         0.47814362        0.40916582        0.17219967  H
       atom_frac         1.00407205        0.34781566        0.17409767  H
       atom_frac         0.55161443        0.11259007        0.33272657  H
       atom_frac         0.11426371       -0.00762135        0.67545657  C
       atom_frac         0.42543855        0.25695539        0.83913909  C
       atom_frac         0.92800528        0.49650505        0.83453788  C
       atom_frac         0.60404462        0.23429125        0.67325066  C
       atom_frac         0.14732546        0.06758148        0.62439995  C
       atom_frac         0.38886943        0.33095623        0.88985063  C
       atom_frac         0.89857441        0.42568013        0.88933860  C
       atom_frac         0.63463980        0.16724074        0.61729963  C
       atom_frac         0.07328069        0.04662180        0.53053872  C
       atom_frac         0.45205339        0.30079461        0.98130674  C
       atom_frac         0.96072763        0.45409680        0.98115944  C
       atom_frac         0.56509544        0.20131818        0.52474513  C
       atom_frac         0.09428142        0.12560438        0.95790087  C
       atom_frac         0.43867791        0.37646970        0.54852203  C
       atom_frac         0.94958888        0.36760606        0.54495749  C
       atom_frac         0.59517144        0.12364562        0.96938988  C
       atom_frac         0.01897442        0.08995707        0.86732152  C
       atom_frac         0.50614807        0.34187542        0.63938405  C
       atom_frac         1.01640504        0.40281145        0.63371951  C
       atom_frac         0.52126808        0.15151263        0.87679749  C
       atom_frac         0.18445858        0.01050101        0.75170203  H
       atom_frac         0.37332725        0.28118266        0.76743453  H
       atom_frac         0.85841363        0.47386195        0.75967700  H
       atom_frac         0.65834007        0.21023232        0.74560683  H
       atom_frac         0.24462552        0.13929125        0.66094382  H
       atom_frac         0.30884676        0.40793519        0.86000587  H
       atom_frac         0.82838639        0.34351094        0.86082651  H
       atom_frac         0.70699880        0.08286928        0.63928866  H
       atom_frac         0.17773350        0.20379125        0.98263940  H
       atom_frac         0.36150386        0.45747643        0.52320554  H
       atom_frac         0.88833782        0.28327525        0.52189322  H
       atom_frac         0.66464042        0.04083754        0.99449314  H
       atom_frac         0.05418693        0.13592929        0.82395369  H
       atom_frac         0.47871483        0.39607492        0.68356411  H
       atom_frac         0.99402352        0.34715236        0.67645748  H
       atom_frac         0.53950169        0.09518182        0.83324028  H
       atom_frac         0.10244119        0.51557239        0.16448282  C
       atom_frac         0.42866869        0.76335354        0.33642297  C
       atom_frac         0.94495422        0.99781987        0.34624193  C
       atom_frac         0.59639021        0.74037037        0.16893183  C
       atom_frac         0.11697322        0.59191162        0.10870925  C
       atom_frac         0.40490806        0.83431229        0.39389043  C
       atom_frac         0.90439347        0.92339226        0.39370666  C
       atom_frac         0.63564366        0.66994697        0.11804845  C
       atom_frac         0.05438280        0.56122222        0.01704209  C
       atom_frac         0.46868119        0.80010606        0.48569795  C
       atom_frac         0.96660851        0.94457912        0.48670797  C
       atom_frac         0.56975861        0.69863047        0.02516218  C
       atom_frac         0.06946864        0.61552273        0.45160689  C
       atom_frac         0.45088824        0.88129630        0.04394200  C
       atom_frac         0.96387925        0.88502525        0.05174603  C
       atom_frac         0.59025792        0.62596801        0.46304539  C
       atom_frac         0.00497367        0.57648569        0.36456752  C
       atom_frac         0.50655522        0.84904882        0.13222874  C
       atom_frac         1.03258177        0.91995791        0.14256253  C
       atom_frac         0.52602680        0.65865067        0.37334490  C
       atom_frac         0.16115401        0.53731987        0.23598959  H
       atom_frac         0.38838443        0.78852694        0.26657222  H
       atom_frac         0.89280305        0.97646465        0.27412214  H
       atom_frac         0.62225949        0.71243434        0.23664330  H
       atom_frac         0.19303586        0.67494613        0.13726693  H
       atom_frac         0.34651278        0.92074074        0.37374820  H
       atom_frac         0.83340339        0.84157660        0.36643747  H
       atom_frac         0.69724317        0.58599579        0.14400111  H
       atom_frac         0.13388249        0.69907407        0.47250102  H
       atom_frac         0.37348016        0.96172559        0.01385743  H
       atom_frac         0.89555223        0.80160017        0.02567315  H
       atom_frac         0.65484885        0.54393771        0.49024725  H
       atom_frac         0.00564616        0.63453788        0.31412533  H
       atom_frac         0.46219258        0.90324074        0.16681850  H
       atom_frac         1.02047010        0.86230640        0.18927045  H
       atom_frac         0.55234661        0.60604040        0.32881063  H
       atom_frac         0.10952314        0.51110269        0.66597499  C
       atom_frac         0.44021455        0.76322727        0.84167818  C
       atom_frac         0.91248469        0.98568182        0.83380842  C
       atom_frac         0.57341251        0.72603199        0.66617138  C
       atom_frac         0.12592656        0.58042761        0.60630161  C
       atom_frac         0.42364092        0.83698148        0.89750295  C
       atom_frac         0.89543531        0.91955387        0.89289472  C
       atom_frac         0.60999679        0.65508754        0.61262828  C
       atom_frac         0.05901205        0.54585943        0.51581485  C
       atom_frac         0.48361160        0.80670455        0.98882579  C
       atom_frac         0.97766806        0.95224747        0.98782278  C
       atom_frac         0.55564767        0.69024495        0.52039291  C
       atom_frac         0.08477840        0.63313384        0.95945799  C
       atom_frac         0.43473700        0.86790404        0.54131931  C
       atom_frac         0.92778266        0.86893098        0.53848704  C
       atom_frac         0.58293033        0.62351347        0.96496401  C
       atom_frac         0.02769818        0.60156566        0.87040068  C
       atom_frac         0.48220673        0.83310017        0.62830467  C
       atom_frac         1.00570474        0.88988215        0.63192251  C
       atom_frac         0.51594724        0.65155051        0.87556302  C
       atom_frac         0.16149292        0.53967845        0.73732324  H
       atom_frac         0.39774185        0.78799663        0.77263193  H
       atom_frac         0.85652262        0.96383838        0.76279123  H
       atom_frac         0.61259891        0.70150337        0.73480520  H
       atom_frac         0.18544374        0.66763131        0.62860066  H
       atom_frac         0.35394666        0.92199495        0.87293977  H
       atom_frac         0.83050062        0.83422559        0.87247684  H
       atom_frac         0.67637605        0.57233670        0.63644867  H
       atom_frac         0.15971468        0.71494529        0.98719853  H
       atom_frac         0.35981693        0.94937710        0.51379761  H
       atom_frac         0.83723301        0.79486195        0.50247273  H
       atom_frac         0.64992344        0.54200421        0.99191197  H
       atom_frac         0.05204357        0.65891667        0.82788155  H
       atom_frac         0.44252487        0.88393098        0.66675986  H
       atom_frac         0.97534096        0.83495118        0.67273793  H
       atom_frac         0.52185833        0.59008586        0.83070821  H

 
  Finished reading input file 'geometry.in'.
 

 
  Consistency checks for stacksize environment parameter are next.
 
  | Maximum stacksize for task 0: unlimited
  | Maximum stacksize for task 1: unlimited
  | Maximum stacksize for task 2: unlimited
  | Maximum stacksize for task 3: unlimited
  | Maximum stacksize for task 4: unlimited
  | Maximum stacksize for task 5: unlimited
  | Maximum stacksize for task 6: unlimited
  | Maximum stacksize for task 7: unlimited
  | Maximum stacksize for task 8: unlimited
  | Maximum stacksize for task 9: unlimited
  | Maximum stacksize for task 10: unlimited
  | Maximum stacksize for task 11: unlimited
  | Maximum stacksize for task 12: unlimited
  | Maximum stacksize for task 13: unlimited
  | Maximum stacksize for task 14: unlimited
  | Maximum stacksize for task 15: unlimited
  | Maximum stacksize for task 16: unlimited
  | Maximum stacksize for task 17: unlimited
  | Current stacksize for task 0: unlimited
  | Current stacksize for task 1: unlimited
  | Current stacksize for task 2: unlimited
  | Current stacksize for task 3: unlimited
  | Current stacksize for task 4: unlimited
  | Current stacksize for task 5: unlimited
  | Current stacksize for task 6: unlimited
  | Current stacksize for task 7: unlimited
  | Current stacksize for task 8: unlimited
  | Current stacksize for task 9: unlimited
  | Current stacksize for task 10: unlimited
  | Current stacksize for task 11: unlimited
  | Current stacksize for task 12: unlimited
  | Current stacksize for task 13: unlimited
  | Current stacksize for task 14: unlimited
  | Current stacksize for task 15: unlimited
  | Current stacksize for task 16: unlimited
  | Current stacksize for task 17: unlimited
 
  Consistency checks for the contents of control.in are next.
 
  MPI_IN_PLACE appears to work with this MPI implementation.
  | Keeping use_mpi_in_place .true. (see manual).
  Explicit treatment of the Coulomb operator is needed, but the RI method is not specified.
  Coulomb operator: Defaulting to 'LVL fast' resolution of identity - RI_type = LVL_fast
  Species H: Using default value for prodbas_acc =   1.000000E-06.
  Species H: Using default value max_l_prodbas =     6.
  Species C: Using default value for prodbas_acc =   1.000000E-06.
  Species C: Using default value max_l_prodbas =     6.
  Target number of points in a grid batch is not set.  Since GPU acceleration is enabled, defaulting to  200
  Method for grid partitioning is not set. Defaulting to parallel hash+maxmin partitioning.
  Batch size limit is not set. Defaulting to    200
  By default, will store active basis functions for each batch.
  If in need of memory, prune_basis_once .false. can be used to disable this option.
  communication_type for Hartree potential was not specified.
  Defaulting to calc_hartree .
  Defaulting to Pulay charge density mixer.
  Pulay mixer: Number of relevant iterations not set.
  Defaulting to    8 iterations.
  Pulay mixer: Number of initial linear mixing iterations not set.
  Defaulting to    0 iterations.
  Work space size for distributed Hartree potential not set.
  Defaulting to   0.200000E+03 MB.
  Algorithm-dependent basis array size parameters:
  | n_max_pulay                         :        8
  Maximum number of self-consistency iterations not provided.
  Presetting  1000 iterations.
  Presetting      1001 iterations before the initial mixing cycle
  is restarted anyway using the sc_init_iter criterion / keyword.
  Presetting a factor      1.000 between actual scf density residual
  and density convergence criterion sc_accuracy_rho below which sc_init_iter
  takes no effect.
 * No s.c.f. convergence criteria (sc_accuracy_*) were provided in control.in.
 * The run will proceed with a reasonable default guess, but please check whether.
 * the s.c.f. cycles seem to take too much or too little time.
  Geometry relaxation not requested: no relaxation will be performed.
 * Notice: The s.c.f. convergence criterion sc_accuracy_rho was not provided.
 * We used to stop in this case, and ask the user to provide reasonable
 * scf convergence criteria. However, this led some users to employ criteria
 * that led to extremely long run times, e.g., for simple relaxation.
 * We now preset a default value for sc_accuracy_rho if it is not set.
 * You may still wish to check if this setting is too tight or too loose for your needs.
 * Based on n_atoms and forces and force-correction status, FHI-aims chose sc_accuracy_rho =  0.391918E-04 .
  No accuracy limit for integral partition fn. given. Defaulting to  0.1000E-14.
  No threshold value for u(r) in integrations given. Defaulting to  0.1000E-05.
  No occupation type (smearing scheme) given. Defaulting to Gaussian broadening, width =  0.1000E-01 eV.
  The width will be adjusted in iteration number     2 of the first full s.c.f. cycle only.
  S.C.F. convergence parameters will be adjusted in iteration number     2 of the first full s.c.f. cycle only.
  No accuracy for occupation numbers given. Defaulting to  0.1000E-12.
  No threshold value for occupation numbers given. Defaulting to  0.0000E+00.
  No accuracy for fermi level given. Defaulting to  0.1000E-19.
  Maximum # of iterations to find E_F not set. Defaulting to  200.
  Preferred method for the eigenvalue solver ('KS_method') not specified in 'control.in'.
  Calling BLACS routine to test compilation state
  Since ScaLAPACK support is enabled, defaulting to ELPA (via ELSI).
  Will not use alltoall communication since running on < 1024 CPUs.
  Threshold for basis singularities not set.
  Default threshold for basis singularities:  0.1000E-04
  partition_type (choice of integration weights) for integrals was not specified.
  | Using a version of the partition function of Stratmann and coworkers ('stratmann_sparse').
  | At each grid point, the set of atoms used to build the partition table is smoothly restricted to
  | only those atoms whose free-atom density would be non-zero at that grid point.
  Partitioning for Hartree potential was not defined. Using partition_type for integrals.
  | Adjusted default value of keyword multip_moments_threshold to:       0.10000000E-11
  | This value may affect high angular momentum components of the Hartree potential in periodic systems.
  Angular momentum expansion for Kerker preconditioner not set explicitly.
  | Using default value of   0
  No explicit requirement for turning off preconditioner.
  | By default, it will be turned off when the charge convergence reaches
  | sc_accuracy_rho  =   0.391918E-04
  No special mixing parameter while Kerker preconditioner is on.
  Using default: charge_mix_param =     0.7500.
  Threshold for auxiliary basis singularities not set.
  Default threshold for auxiliary basis singularities:  0.1000E-04
  No q(lm)/r^(l+1) cutoff set for long-range Hartree potential.
  | Using default value of  0.100000E-09 .
  | Verify using the multipole_threshold keyword.
  Defaulting to new monopole extrapolation.
  Density update method: automatic selection selected.
  Using density matrix based charge density update.
  Using density matrix based charge density update.
  Using packed matrix style: index .
  Defaulting to use time-reversal symmetry for k-point grid.
  Charge integration errors on the 3D integration grid will be compensated
  by explicit normalization and distribution of residual charges.
  Use the "compensate_multipole_errors" flag to change this behaviour.
  Default to 1D ("use_logsbt") integrations for auxiliary 2-center integrals.
  Default onset of logarithmic r-grid for SBT is -38.000000000000
  Default onset of logarithmic k-grid for SBT is -25.000000000000
  Default range of logarithmic r- and k-grid for SBT is  45.000000000000
  Default number of logarithmic r- and k-grid for SBT is   4096
  Default of use_2d_corr is to use the efficient 2D distribution where possible
 
  Consistency checks for the contents of geometry.in are next.
 

  Range separation radius for Ewald summation (hartree_convergence_parameter):      2.91768261 bohr.
  Number of empty states per atom not set in control.in .
  | Since you are using a method that relies on the unoccupied spectrum
  | (MP2,GW,RPA et al.), will use the full Hamiltonian size (see below)
  | as the max. possible number of states (occupied plus empty).

  Structure-dependent array size parameters: 
  | Maximum number of distinct radial functions  :        9
  | Maximum number of basis functions            :     1440
  | Number of Kohn-Sham states (occupied + empty):     1440
------------------------------------------------------------
CUDA runtime version: 11060
CUDA driver version: 11060
  Initializing GPUs...

  Number of GPUs available to MPI task         0 :   1
  Number of GPUs available to MPI task         1 :   1
  Number of GPUs available to MPI task         2 :   1
  Number of GPUs available to MPI task         3 :   1
  Number of GPUs available to MPI task         4 :   1
  Number of GPUs available to MPI task         5 :   1
  Number of GPUs available to MPI task         6 :   1
  Number of GPUs available to MPI task         7 :   1
  Number of GPUs available to MPI task         8 :   1
  Number of GPUs available to MPI task         9 :   1
  Number of GPUs available to MPI task        10 :   1
  Number of GPUs available to MPI task        11 :   1
  Number of GPUs available to MPI task        12 :   1
  Number of GPUs available to MPI task        13 :   1
  Number of GPUs available to MPI task        14 :   1
  Number of GPUs available to MPI task        15 :   1
  Number of GPUs available to MPI task        16 :   1
  Number of GPUs available to MPI task        17 :   1

  | MPI task         0, GPU activated = T, Device Name = NVIDIA A100-SXM4-80GB
  | MPI task         1, GPU activated = T, Device Name = NVIDIA A100-SXM4-80GB
  | MPI task         2, GPU activated = T, Device Name = NVIDIA A100-SXM4-80GB
  | MPI task         3, GPU activated = T, Device Name = NVIDIA A100-SXM4-80GB
  | MPI task         4, GPU activated = T, Device Name = NVIDIA A100-SXM4-80GB
  | MPI task         5, GPU activated = T, Device Name = NVIDIA A100-SXM4-80GB
  | MPI task         6, GPU activated = T, Device Name = NVIDIA A100-SXM4-80GB
  | MPI task         7, GPU activated = T, Device Name = NVIDIA A100-SXM4-80GB
  | MPI task         8, GPU activated = T, Device Name = NVIDIA A100-SXM4-80GB
  | MPI task         9, GPU activated = T, Device Name = NVIDIA A100-SXM4-80GB
  | MPI task        10, GPU activated = T, Device Name = NVIDIA A100-SXM4-80GB
  | MPI task        11, GPU activated = T, Device Name = NVIDIA A100-SXM4-80GB
  | MPI task        12, GPU activated = T, Device Name = NVIDIA A100-SXM4-80GB
  | MPI task        13, GPU activated = T, Device Name = NVIDIA A100-SXM4-80GB
  | MPI task        14, GPU activated = T, Device Name = NVIDIA A100-SXM4-80GB
  | MPI task        15, GPU activated = T, Device Name = NVIDIA A100-SXM4-80GB
  | MPI task        16, GPU activated = T, Device Name = NVIDIA A100-SXM4-80GB
  | MPI task        17, GPU activated = T, Device Name = NVIDIA A100-SXM4-80GB

------------------------------------------------------------
          Preparing all fixed parts of the calculation.
------------------------------------------------------------
  Determining machine precision:
    2.225073858507201E-308
  Setting up grids for atomic and cluster calculations.

  Creating wave function, potential, and density for free atoms.
  Runtime choices for atomic solver:
  | atomic solver xc        : PW-LDA
  | compute density gradient: 0
  | compute kinetic density : F

  Species: H

  List of occupied orbitals and eigenvalues:
    n    l              occ      energy [Ha]    energy [eV]
    1    0           1.0000        -0.232375        -6.3233


  Species: C

  List of occupied orbitals and eigenvalues:
    n    l              occ      energy [Ha]    energy [eV]
    1    0           2.0000        -9.944615      -270.6068
    2    0           2.0000        -0.498807       -13.5732
    2    1           2.0000        -0.196968        -5.3598


  Adding cutoff potential to free-atom effective potential.
  Creating fixed part of basis set: Ionic, confined, hydrogenic.
 
  H                    hydrogenic:
 
  List of hydrogenic basis orbitals: 
    n    l      effective z      eigenvalue [eV]  inner max. [A]     outer max. [A]     outer radius [A]   
    2    0         2.100000       -14.9728           0.193243           1.317208           4.583499
    2    1         3.500000       -41.6669           0.602369           0.602369           3.723403
 
 
  C                    hydrogenic:
 
  List of hydrogenic basis orbitals: 
    n    l      effective z      eigenvalue [eV]  inner max. [A]     outer max. [A]     outer radius [A]   
    2    1         1.700000        -9.7616           1.230570           1.230570           4.607917
    3    2         6.000000       -54.4224           0.792453           0.792453           3.883070
    2    0         4.900000       -81.6679           0.082559           0.562749           3.078220
 
  Creating atomic-like basis functions for current effective potential.

  Species H                   :

  List of atomic basis orbitals and eigenvalues:
    n    l      energy [Ha]    energy [eV]    outer radius [A]
    1    0        -0.232375        -6.3233       4.527807


  Species C                   :

  List of atomic basis orbitals and eigenvalues:
    n    l      energy [Ha]    energy [eV]    outer radius [A]
    1    0        -9.944615      -270.6068       1.934409
    2    0        -0.498807       -13.5732       4.496620
    2    1        -0.196968        -5.3598       4.551928

  Assembling full basis from fixed parts.
  | Species H :   atomic orbital   1 s accepted.
  | Species H :    hydro orbital   2 s accepted.
  | Species H :    hydro orbital   2 p accepted.
  | Species C :   atomic orbital   1 s accepted.
  | Species C :    hydro orbital   2 s accepted.
  | Species C :   atomic orbital   2 s accepted.
  | Species C :   atomic orbital   2 p accepted.
  | Species C :    hydro orbital   2 p accepted.
  | Species C :    hydro orbital   3 d accepted.
 
  Basis size parameters after reduction:
  | Total number of radial functions:        9
  | Total number of basis functions :     1440
 
  Per-task memory consumption for arrays in subroutine allocate_ext:
  |           2.242384MB.
  Testing on-site integration grid accuracy.
  |  Species  Function  <phi|h_atom|phi> (log., in eV)  <phi|h_atom|phi> (rad., in eV)
           1        1                 -6.3245358373                 -6.3232436907
           1        2                 14.1326137532                 14.1384481100
           1        3                 25.3627025200                 25.3628451197
           2        4               -270.6067544938               -270.6067222788
           2        5                -10.5634280949                -10.5635685736
           2        6                 16.2089822398                 16.2052121796
           2        7                 -5.3613872565                 -5.3627872378
           2        8                  8.5292058327                  8.5051734780
           2        9                 27.4884461005                 27.4884542459

  Preparing densities etc. for the partition functions (integrals / Hartree potential).

  Preparations completed.
  max(cpu_time)          :      0.072 s.
  Wall clock time (cpu1) :      0.070 s.
------------------------------------------------------------

  Initializing index lists of integration centers etc. from given atomic structure:
  Mapping all atomic coordinates to central unit cell.

  Initializing the k-points
  Using symmetry for reducing the k-points
  | k-points reduced from:        2 to        2
  | Number of k-points                             :         2
  | Consuming          0 KiB for k_phase_exx.
  The eigenvectors in the calculations are REAL.
  | Number of basis functions in the Hamiltonian integrals :      8059
  | Number of basis functions in a single unit cell        :      1440
  | Number of centers in hartree potential         :      3322
  | Number of centers in hartree multipole         :      2556
  | Number of centers in electron density summation:      2004
  | Number of centers in basis integrals           :      2123
  | Number of centers in integrals                 :       967
  | Number of centers in hamiltonian               :      2012
  | Consuming          1 KiB for k_phase.
  | Number of super-cells (origin) [n_cells]                     :         175
  | Number of super-cells (after PM_index) [n_cells]             :          40
  | Number of super-cells in hamiltonian [n_cells_in_hamiltonian]:          40
  | Size of matrix packed + index [n_hamiltonian_matrix_size] :     1933422
  | Size of matrix packed + index (no_symmetry):     3864027

------------------------------------------------------------
          Begin self-consistency loop: Initialization.

          Date     :  20230120, Time     :  141649.381
------------------------------------------------------------
  | Estimated reciprocal-space cutoff momentum G_max:         3.24344278 bohr^-1 .
  | Reciprocal lattice points for long-range Hartree potential:    5310
  Using simple linear distribution as default method for k-point parallelism.
  * Using 18 tasks for Scalapack Eigenvalue solver.
  Detailed listing of tasks and assigned k-points:
   Task     0 k-point     1 on adag004
   Task     1 k-point     1 on adag004
   Task     2 k-point     1 on adag004
   Task     3 k-point     1 on adag004
   Task     4 k-point     1 on adag004
   Task     5 k-point     1 on adag004
   Task     6 k-point     1 on adag004
   Task     7 k-point     1 on adag004
   Task     8 k-point     1 on adag004
   Task     9 k-point     2 on adag004
   Task    10 k-point     2 on adag004
   Task    11 k-point     2 on adag004
   Task    12 k-point     2 on adag004
   Task    13 k-point     2 on adag004
   Task    14 k-point     2 on adag004
   Task    15 k-point     2 on adag004
   Task    16 k-point     2 on adag004
   Task    17 k-point     2 on adag004
  K-point:     1 Tasks:     9 split into      3 X      3 BLACS grid
  Calculating block size based on n_basis =         1440  max_nprow =            3  max_npcol =            3
  ScaLAPACK block size set to:           16
  Allocating        1.758 MB for ovlp
  Allocating        1.758 MB for ham
  Allocating        1.758 MB for eigenvec
  Required Scalapack workspace - INTEGER:            1  REAL:             1
  Partitioning the integration grid into batches with parallel hashing+maxmin method.
  | Number of batches:     5478
  | Maximal batch size:     200
  | Minimal batch size:      99
  | Average batch size:     139.438
  | Standard deviation of batch sizes:      31.189

  Integration load balanced across    18 MPI tasks.
  Work distribution over tasks is as follows:
  Task     0 has      42440 integration points.
  Task     1 has      42418 integration points.
  Task     2 has      42496 integration points.
  Task     3 has      42428 integration points.
  Task     4 has      42452 integration points.
  Task     5 has      42390 integration points.
  Task     6 has      42428 integration points.
  Task     7 has      42450 integration points.
  Task     8 has      42431 integration points.
  Task     9 has      42410 integration points.
  Task    10 has      42423 integration points.
  Task    11 has      42471 integration points.
  Task    12 has      42442 integration points.
  Task    13 has      42420 integration points.
  Task    14 has      42470 integration points.
  Task    15 has      42414 integration points.
  Task    16 has      42423 integration points.
  Task    17 has      42434 integration points.
  Initializing partition tables, free-atom densities, potentials, etc. across the integration grid (initialize_grid_storage).
  | initialize_grid_storage: Actual outermost partition radius vs. multipole_radius_free
  | (-- VB: in principle, multipole_radius_free should be larger, hence this output)
  | Species        1: Confinement radius =              4.999999999999999 AA, multipole_radius_free =              5.054417573612229 AA.
  | Species        1: outer_partition_radius set to              5.054417573612229 AA .
  | Species        2: Confinement radius =              4.999999999999999 AA, multipole_radius_free =              5.019602836301480 AA.
  | Species        2: outer_partition_radius set to              5.019602836301480 AA .
  | The sparse table of interatomic distances needs       7645.90 kbyte instead of     36057.03 kbyte of memory.
  | Net number of integration points:   763840
  | of which are non-zero points    :   605261
  | Numerical average free-atom electrostatic potential    :     -8.61465898 eV
  Renormalizing the initial density to the exact electron count on the 3D integration grid.
  | Initial density: Formal number of electrons (from input files) :     544.0000000000
  | Integrated number of electrons on 3D grid     :     543.9949520485
  | Charge integration error                      :      -0.0050479515
  | Normalization factor for density and gradient :       1.0000092794
  Renormalizing the free-atom superposition density to the exact electron count on the 3D integration grid.
  | Formal number of electrons (from input files) :     544.0000000000
  | Integrated number of electrons on 3D grid     :     543.9949520485
  | Charge integration error                      :      -0.0050479515
  | Normalization factor for density and gradient :       1.0000092794
  Obtaining max. number of non-zero basis functions in each batch (get_n_compute_maxes).
  | Maximal number of non-zero basis functions:      538 in task     0
  | Maximal number of non-zero basis functions:      532 in task     1
  | Maximal number of non-zero basis functions:      540 in task     2
  | Maximal number of non-zero basis functions:      532 in task     3
  | Maximal number of non-zero basis functions:      566 in task     4
  | Maximal number of non-zero basis functions:      542 in task     5
  | Maximal number of non-zero basis functions:      538 in task     6
  | Maximal number of non-zero basis functions:      532 in task     7
  | Maximal number of non-zero basis functions:      548 in task     8
  | Maximal number of non-zero basis functions:      525 in task     9
  | Maximal number of non-zero basis functions:      542 in task    10
  | Maximal number of non-zero basis functions:      544 in task    11
  | Maximal number of non-zero basis functions:      557 in task    12
  | Maximal number of non-zero basis functions:      552 in task    13
  | Maximal number of non-zero basis functions:      528 in task    14
  | Maximal number of non-zero basis functions:      556 in task    15
  | Maximal number of non-zero basis functions:      536 in task    16
  | Maximal number of non-zero basis functions:      530 in task    17
  Integrating Hamiltonian matrix: batch-based integration.
  GPU acceleration will be used when integrating the Hamiltonian matrix.
  Reporting GPU memory usage by myid 0.  Note that it is likely not the only MPI task binding to its GPU!
  Allocating        2.316 MB on GPU for hamiltonian_shell
  Allocating        0.861 MB on GPU for wave
  Allocating        0.002 MB on GPU for partition
  Allocating        0.861 MB on GPU for h_times_psi
  Time summed over all CPUs for integration: real work       22.510 s, elapsed       22.893 s
  Deallocating memory used on GPU for Hamiltonian integration.
  Integrating overlap matrix.
  Time summed over all CPUs for integration: real work       21.158 s, elapsed       21.719 s
  Deallocating overlap matrix.

  Updating Kohn-Sham eigenvalues and eigenvectors using ELSI and the ELPA eigensolver.
  Singularity check in k-point 1 (analysis for other k-points may follow below):
  Overlap matrix is not singular
  | Lowest and highest eigenvalues :  0.7801E-03,  0.8234E+01
  Finished singularity check of overlap matrix
  | Time :     0.117 s
  Starting ELPA eigensolver
  Finished Cholesky decomposition
  | Time :     0.020 s
  Finished transformation to standard eigenproblem
  | Time :     0.029 s
  Finished solving standard eigenproblem
  | Time :     0.247 s
  Finished back-transformation of eigenvectors
  | Time :     0.019 s

  Obtaining occupation numbers and electronic chemical potential using ELSI.
  | Note that, for insulating systems, the printed 'chemical potential' value is not uniquely defined.
  | It can be anywhere in the energy gap, as long as it correctly separates occupied and unoccupied states.
  | In systems with a gap, the physically relevant chemical potential is the VBM or HOMO.

  | Chemical potential (Fermi level):    -7.67320887 eV
  Writing Kohn-Sham eigenvalues.
  K-point:       1 at    0.000000    0.000000    0.000000 (in units of recip. lattice)

  State    Occupation    Eigenvalue [Ha]    Eigenvalue [eV]
      1       2.00000         -10.070940         -274.04423
      2       2.00000         -10.070040         -274.01974
      3       2.00000         -10.069269         -273.99875
      4       2.00000         -10.069195         -273.99673
      5       2.00000         -10.068740         -273.98435
      6       2.00000         -10.068394         -273.97493
      7       2.00000         -10.068241         -273.97079
      8       2.00000         -10.067885         -273.96108
      9       2.00000         -10.067840         -273.95986
     10       2.00000         -10.067670         -273.95524
     11       2.00000         -10.067656         -273.95486
     12       2.00000         -10.067522         -273.95121
     13       2.00000         -10.067210         -273.94273
     14       2.00000         -10.066741         -273.92995
     15       2.00000         -10.066676         -273.92818
     16       2.00000         -10.065695         -273.90150
     17       2.00000         -10.065571         -273.89811
     18       2.00000         -10.065272         -273.88999
     19       2.00000         -10.065185         -273.88761
     20       2.00000         -10.065090         -273.88502
     21       2.00000         -10.064755         -273.87593
     22       2.00000         -10.064653         -273.87313
     23       2.00000         -10.064543         -273.87014
     24       2.00000         -10.064509         -273.86924
     25       2.00000         -10.064478         -273.86837
     26       2.00000         -10.064411         -273.86655
     27       2.00000         -10.064235         -273.86177
     28       2.00000         -10.064109         -273.85835
     29       2.00000         -10.064082         -273.85761
     30       2.00000         -10.063948         -273.85395
     31       2.00000         -10.063800         -273.84994
     32       2.00000         -10.063703         -273.84730
     33       2.00000         -10.063648         -273.84579
     34       2.00000         -10.063541         -273.84290
     35       2.00000         -10.063355         -273.83781
     36       2.00000         -10.063341         -273.83743
     37       2.00000         -10.063306         -273.83648
     38       2.00000         -10.063016         -273.82859
     39       2.00000         -10.062813         -273.82307
     40       2.00000         -10.062432         -273.81270
     41       2.00000         -10.062114         -273.80405
     42       2.00000         -10.062040         -273.80203
     43       2.00000         -10.061980         -273.80041
     44       2.00000         -10.061580         -273.78953
     45       2.00000         -10.061562         -273.78903
     46       2.00000         -10.061437         -273.78562
     47       2.00000         -10.061275         -273.78123
     48       2.00000         -10.061199         -273.77916
     49       2.00000         -10.060981         -273.77323
     50       2.00000         -10.060831         -273.76913
     51       2.00000         -10.060473         -273.75940
     52       2.00000         -10.060457         -273.75897
     53       2.00000         -10.060253         -273.75341
     54       2.00000         -10.060250         -273.75333
     55       2.00000         -10.059952         -273.74521
     56       2.00000         -10.059839         -273.74214
     57       2.00000         -10.059834         -273.74202
     58       2.00000         -10.059599         -273.73563
     59       2.00000         -10.059523         -273.73355
     60       2.00000         -10.059455         -273.73170
     61       2.00000         -10.059097         -273.72196
     62       2.00000         -10.058999         -273.71928
     63       2.00000         -10.058940         -273.71768
     64       2.00000         -10.058752         -273.71256
     65       2.00000         -10.058746         -273.71240
     66       2.00000         -10.058593         -273.70825
     67       2.00000         -10.058558         -273.70728
     68       2.00000         -10.058449         -273.70432
     69       2.00000         -10.057975         -273.69142
     70       2.00000         -10.057862         -273.68835
     71       2.00000         -10.057248         -273.67165
     72       2.00000         -10.056677         -273.65610
     73       2.00000         -10.056631         -273.65486
[...]
  |    H      2     3.678162 A  1.011968E+04 A            0.556529 a.u.
  |    H      1     3.958095 A  1.721251E+06 A            0.841931 a.u.
  |    H      0     4.527807 A  3.866455E+12 A            0.581436 a.u.
  |    C      0     2.562483 A      2.562483 A        6.563029E-17 a.u.
  |    C      0     2.967371 A      2.967371 A        1.352164E-16 a.u.
  |    C      0     3.003870 A      3.003870 A        2.312640E-17 a.u.
  |    C      1     3.272245 A      3.272245 A       -3.835259E-17 a.u.
  |    C      0     3.312494 A      3.312494 A       -2.710381E-16 a.u.
  |    C      3     4.077671 A      4.077671 A       -1.683752E-15 a.u.
  |    C      3     4.077671 A      4.077671 A        1.412852E-15 a.u.
  |    C      1     4.496620 A      4.496620 A       -3.011059E-16 a.u.
  |    C      0     4.496620 A      4.551928 A        2.873903E-17 a.u.
  |    C      2     4.551928 A      4.551928 A       -4.610785E-16 a.u.
  |    C      2     4.551928 A      4.551928 A        7.440584E-16 a.u.
  |    C      2     4.551928 A      4.551928 A       -7.110458E-16 a.u.
  |    C      2     4.551928 A      4.551928 A       -1.935424E-16 a.u.
  |    C      0     4.551928 A      4.607917 A        2.067142E-16 a.u.
  |    C      0     4.551928 A      4.607917 A       -1.109786E-16 a.u.
  |    C      1     4.551928 A      4.607917 A       -9.951742E-17 a.u.
  |    C      1     4.551928 A      4.607917 A        1.937809E-16 a.u.
  |    C      1     4.607917 A      4.607917 A       -2.813308E-16 a.u.
  |    C      1     4.607917 A      4.607917 A       -7.330363E-17 a.u.
  |    C      2     4.607917 A      4.607917 A        1.318462E-15 a.u.
  |    C      2     4.607917 A      4.607917 A       -1.318397E-15 a.u.
  |    C      0     4.607917 A      4.664595 A        3.157826E-16 a.u.
  |    C      1     4.607917 A      4.664595 A        7.356967E-16 a.u.
  |    C      4     3.835889 A  2.962973E+02 A            4.379483 a.u.
  |    C      3     4.127827 A  1.725964E+03 A            9.005588 a.u.
  |    C      2     4.607917 A  2.608475E+04 A            9.531178 a.u.
  |    C      1     4.607917 A  2.736013E+06 A            2.127278 a.u.
  |    C      0     4.607917 A  4.399765E+12 A            0.661635 a.u.

  | Shrink_full_auxil_basis : there are       36  radial auxiliary wave functions
                            accepted and       7 rejected.
  | Shrink_full_auxil_basis : there are totally                8992 partial auxiliary wave functions.
 
  | Maximal number of product basis functions per thread :   512   512
 
  | Minimal total memory requirement for three-center overlap :      72.476 Gbs
  | Number of local auxiliary basis functions on task:      0   512
  | Number of local auxiliary basis functions on task:      1   512
  | Number of local auxiliary basis functions on task:      2   512
  | Number of local auxiliary basis functions on task:      3   512
  | Number of local auxiliary basis functions on task:      4   496
  | Number of local auxiliary basis functions on task:      5   496
  | Number of local auxiliary basis functions on task:      6   496
  | Number of local auxiliary basis functions on task:      7   496
  | Number of local auxiliary basis functions on task:      8   496
  | Number of local auxiliary basis functions on task:      9   496
  | Number of local auxiliary basis functions on task:     10   496
  | Number of local auxiliary basis functions on task:     11   496
  | Number of local auxiliary basis functions on task:     12   496
  | Number of local auxiliary basis functions on task:     13   496
  | Number of local auxiliary basis functions on task:     14   496
  | Number of local auxiliary basis functions on task:     15   496
  | Number of local auxiliary basis functions on task:     16   496
  | Number of local auxiliary basis functions on task:     17   496
  | 2D aux task distribution:      3 X      6
  | 2D block size (nb_aux_2d):     64
 
  Basis pair condensation :   1037520  -->     542702
 
 --------------------------------------------
  Constructing auxiliary basis (full product) ...
 
  Product basis:
  | charge radius: extent of product basis function
  | field radius: extent of its Coulomb potential
  | Species   l  charge radius    field radius  multipol momen
  |    H      1     3.910002 A      3.910002 A       -2.487223E-16 a.u.
  |    H      1     3.958095 A      3.958095 A       -2.441841E-16 a.u.
  |    H      0     4.527807 A      4.527807 A        1.268855E-16 a.u.
  |    H      0     4.527807 A      4.583499 A       -4.900954E-17 a.u.
  |    H      0     4.527807 A      4.583499 A        4.713786E-16 a.u.
  |    H      2     3.678162 A  1.011968E+04 A            0.556529 a.u.
  |    H      1     3.958095 A  1.721251E+06 A            0.841931 a.u.
  |    H      0     4.527807 A  3.866455E+12 A            0.581436 a.u.
  |    C      0     2.562483 A      2.562483 A        6.563029E-17 a.u.
  |    C      0     2.967371 A      2.967371 A        1.352164E-16 a.u.
  |    C      0     3.003870 A      3.003870 A        2.312640E-17 a.u.
  |    C      1     3.272245 A      3.272245 A       -3.835259E-17 a.u.
  |    C      0     3.312494 A      3.312494 A       -2.710381E-16 a.u.
  |    C      3     4.077671 A      4.077671 A       -1.683752E-15 a.u.
  |    C      3     4.077671 A      4.077671 A        1.412852E-15 a.u.
  |    C      1     4.496620 A      4.496620 A       -3.011059E-16 a.u.
  |    C      0     4.496620 A      4.551928 A        2.873903E-17 a.u.
  |    C      2     4.551928 A      4.551928 A       -4.610785E-16 a.u.
  |    C      2     4.551928 A      4.551928 A        7.440584E-16 a.u.
  |    C      2     4.551928 A      4.551928 A       -7.110458E-16 a.u.
  |    C      2     4.551928 A      4.551928 A       -1.935424E-16 a.u.
  |    C      0     4.551928 A      4.607917 A        2.067142E-16 a.u.
  |    C      0     4.551928 A      4.607917 A       -1.109786E-16 a.u.
  |    C      1     4.551928 A      4.607917 A       -9.951742E-17 a.u.
  |    C      1     4.551928 A      4.607917 A        1.937809E-16 a.u.
  |    C      1     4.607917 A      4.607917 A       -2.813308E-16 a.u.
  |    C      1     4.607917 A      4.607917 A       -7.330363E-17 a.u.
  |    C      2     4.607917 A      4.607917 A        1.318462E-15 a.u.
  |    C      2     4.607917 A      4.607917 A       -1.318397E-15 a.u.
  |    C      0     4.607917 A      4.664595 A        3.157826E-16 a.u.
  |    C      1     4.607917 A      4.664595 A        7.356967E-16 a.u.
  |    C      4     3.835889 A  2.962973E+02 A            4.379483 a.u.
  |    C      3     4.127827 A  1.725964E+03 A            9.005588 a.u.
  |    C      2     4.607917 A  2.608475E+04 A            9.531178 a.u.
  |    C      1     4.607917 A  2.736013E+06 A            2.127278 a.u.
  |    C      0     4.607917 A  4.399765E+12 A            0.661635 a.u.

  | Shrink_full_auxil_basis : there are       36  radial auxiliary wave functions
                            accepted and       7 rejected.
  | Shrink_full_auxil_basis : there are totally                8992 partial auxiliary wave functions.
 
  | Maximal number of product basis functions per thread :   512   512
 
  | Minimal total memory requirement for three-center overlap :      72.476 Gbs
  | Number of local auxiliary basis functions on task:      0   512
  | Number of local auxiliary basis functions on task:      1   512
  | Number of local auxiliary basis functions on task:      2   512
  | Number of local auxiliary basis functions on task:      3   512
  | Number of local auxiliary basis functions on task:      4   496
  | Number of local auxiliary basis functions on task:      5   496
  | Number of local auxiliary basis functions on task:      6   496
  | Number of local auxiliary basis functions on task:      7   496
  | Number of local auxiliary basis functions on task:      8   496
  | Number of local auxiliary basis functions on task:      9   496
  | Number of local auxiliary basis functions on task:     10   496
  | Number of local auxiliary basis functions on task:     11   496
  | Number of local auxiliary basis functions on task:     12   496
  | Number of local auxiliary basis functions on task:     13   496
  | Number of local auxiliary basis functions on task:     14   496
  | Number of local auxiliary basis functions on task:     15   496
  | Number of local auxiliary basis functions on task:     16   496
  | Number of local auxiliary basis functions on task:     17   496
  | 2D aux task distribution:      3 X      6
  | 2D block size (nb_aux_2d):     64
 
  Basis pair condensation :   1037520  -->     542702
  Allocating        0.069 MB for t_coeff
  Allocating        0.034 MB for basbas_idx
  Allocating        0.069 MB for wave
  Allocating        0.069 MB for total_wave
  Allocating        0.206 MB for wave_gradient
  Allocating        0.206 MB for total_wave_grad
 HERE1
 HERE2
  Deallocating        0.069 MB for t_coeff
  Deallocating        0.034 MB for basbas_idx
  Deallocating        0.069 MB for wave
  Deallocating        0.206 MB for wave_gradient
  Deallocating        0.206 MB for total_wave_grad
dP_dE (Bohr^3) at every cycle:--->
 (992.627923371052,0.000000000000000E+000) (0.594182897122375,0.000000000000000E+000) (-463.092666676288,0.000000000000000E+000)
 (0.585280867868345,0.000000000000000E+000) (1368.49357451644,0.000000000000000E+000) (-7.91368217839371,0.000000000000000E+000)
 (-463.297080969620,0.000000000000000E+000) (-7.96338961269843,0.000000000000000E+000) (1711.91089761979,0.000000000000000E+000)
DFPT polarizability (Bohr^3)        xx        yy        zz        xy        xz        yz
  | Polarizability:--->                       992.627923371                 1368.493574516                 1711.910897620                    0.594182897                 -463.092666676                   -7.913682178

DFPT for dielectric_constant:--->  # PARSE DFPT_dielectric_tensor
               2.346974918830500             0.000806293517216            -0.628406870712341
               0.000794213653403             2.857016590057473            -0.010738697913808
              -0.628684256548148            -0.010806149841878             3.323026572268303

                                               :  max(cpu_time)    wall_clock(cpu1)
  | Time for  dielectric calculation            :        0.000 s           0.001 s
===========================================================================

------------------------------------------------------------------------------
  Final output of selected total energy values:

  The following output summarizes some interesting total energy values
  at the end of a run (AFTER all relaxation, molecular dynamics, etc.).

  | Total energy of the DFT / Hartree-Fock s.c.f. calculation      :         -83267.541616317 eV
  | Final zero-broadening corrected energy (caution - metals only) :         -83267.541616317 eV
  | For reference only, the value of 1 Hartree used in FHI-aims is :             27.211384500 eV
  | For reference only, the overall average (free atom contribution
  | + realspace contribution) of the electrostatic potential after
  | s.c.f. convergence is                                          :             -7.699458951 eV

  Before relying on these values, please be sure to understand exactly which
  total energy value is referred to by a given number. Different objects may
  all carry the same name 'total energy'. Definitions:

  Total energy of the DFT / Hartree-Fock s.c.f. calculation:
  | Note that this energy does not include ANY quantities calculated after the
  | s.c.f. cycle, in particular not ANY RPA, MP2, etc. many-body perturbation terms.

  Final zero-broadening corrected energy:
  | For metallic systems only, a broadening of the occupation numbers at the Fermi
  | level can be extrapolated back to zero broadening by an electron-gas inspired
  | formula. For all systems that are not real metals, this value can be
  | meaningless and should be avoided.

------------------------------------------------------------------------------
  Methods described in the following list of references were used in this FHI-aims run.
  If you publish the results, please make sure to cite these reference if they apply.
  FHI-aims is an academic code, and for our developers (often, Ph.D. students
  and postdocs), scientific credit in the community is essential.
  Thank you for helping us!

  For any use of FHI-aims, please cite:

    Volker Blum, Ralf Gehrke, Felix Hanke, Paula Havu, Ville Havu,
    Xinguo Ren, Karsten Reuter, and Matthias Scheffler
    'Ab initio molecular simulations with numeric atom-centered orbitals'
    Computer Physics Communications 180, 2175-2196 (2009)
    http://doi.org/10.1016/j.cpc.2009.06.022


  For Hartree-Fock, hybrid functionals, or many-body perturbation theory used in your run, please cite:

    Xinguo Ren, Patrick Rinke, Volker Blum, Juergen Wieferink, Alex Tkatchenko,
    Andrea Sanfilippo, Karsten Reuter, and Matthias Scheffler,
    'Resolution-of-identity approach to Hartree-Fock, hybrid density functionals,
    RPA, MP2, and GW with numeric atom-centered orbital basis functions'
    New Journal of Physics 14, 053020 (2012).
    http://doi.org/10.1088/1367-2630/14/5/053020


  The provided symmetry information was generated with SPGlib:

    Atsushi Togo, Yusuke Seto, Dimitar Pashov
    SPGlib 1.7.3 obtained from http://spglib.sourceforge.net
    Copyright (C) 2008 Atsushi Togo


  The DFPT (perturbation by an electric field) part of the code was used.
  Here is the corresponding reference:

    Honghui Shang, Nathaniel Raimbault, Mariana Rossi,
    Christian Carbogno, Patrick Rinke and Matthias Scheffler,
    'All-Electron, Real-Space Perturbation Theory for Homogeneous
    Electric Fields: Theory, Implementation, and Application within dft'
    New Journal of Physics, 20(7):073040, 2018


  The ELSI infrastructure was used in your run to solve the Kohn-Sham electronic structure.
  Please check out http://elsi-interchange.org to learn more.
  If scalability is important for your project, please acknowledge ELSI by citing:

    V. W-z. Yu, F. Corsetti, A. Garcia, W. P. Huhn, M. Jacquelin, W. Jia,
    B. Lange, L. Lin, J. Lu, W. Mi, A. Seifitokaldani, A. Vazquez-Mayagoitia,
    C. Yang, H. Yang, and V. Blum
    'ELSI: A unified software interface for Kohn-Sham electronic structure solvers'
    Computer Physics Communications 222, 267-285 (2018).
    http://doi.org/10.1016/j.cpc.2017.09.007


  For the real-space grid partitioning and parallelization used in this calculation, please cite:

    Ville Havu, Volker Blum, Paula Havu, and Matthias Scheffler,
    'Efficient O(N) integration for all-electron electronic structure calculation'
    'using numerically tabulated basis functions'
    Journal of Computational Physics 228, 8367-8379 (2009).
    http://doi.org/10.1016/j.jcp.2009.08.008


  The high-level electronic structure method used in your calculation
  employed our efficient localized resolution of identity for the Coulomb operator.
  Some calculations, especially large-scale hybrid density functional theory,
  are only possible thanks to this development. For this feature, please cite:

    Arvid Ihrig, Juergen Wieferink, Igor Ying Zhang, Matti Ropo, Xinguo Ren,
    Patrick Rinke, Matthias Scheffler, and Volker Blum,
    'Accurate localized resolution of identity approach for linear-scaling
    hybrid density functionals and for many-body perturbation theory'
    New Journal of Physics 117, 093020 (2015).
    http://doi.org/10.1088/1367-2630/17/9/093020

  Of course, there are many other important community references, e.g., those cited in the
  above references. Our list is limited to references that describe implementations in the
  FHI-aims code. The reason is purely practical (length of this list) - please credit others as well.

------------------------------------------------------------
          Leaving FHI-aims.
          Date     :  20230120, Time     :  144246.248

          Computational steps:
          | Number of self-consistency cycles          :           48
          | Number of SCF (re)initializations          :            1
          | Number of coupled perturbed self-consistency cycles          :            0
          | Number of CPSCF (re)initializations          :            0

          Detailed time accounting                     :  max(cpu_time)    wall_clock(cpu1)
          | Total time                                  :     1558.959 s        1569.053 s
          | GPU initialization                          :        2.271 s          10.979 s
          | Preparation time                            :        0.072 s           0.070 s
          | Boundary condition initalization            :        1.007 s           1.008 s
          | Grid partitioning                           :        1.250 s           1.250 s
          | Preloading free-atom quantities on grid     :        4.086 s           4.087 s
          | Free-atom superposition energy              :        0.524 s           0.524 s
          | Total time for integrations                 :       19.912 s          20.026 s
          | Product basis setup: Total time             :        0.000 s           0.000 s
          | Product basis: | 2-center integrations     :(       0.000 s)  (       0.000 s)
          | Product basis: | LVL 3-center & coefficient:(       0.000 s)  (       0.000 s)
          | Total time for solution of K.-S. equations  :        3.738 s           3.742 s
          | Total time for density update               :       13.562 s          13.713 s
          | Total time for mixing & preconditioning     :       12.731 s          12.736 s
          | Total time for Hartree multipole update     :        0.103 s           0.102 s
          | Total time for Hartree multipole sum        :       44.692 s          44.708 s
          | Total time for total energy evaluation      :        0.007 s           0.004 s
          | Total time first_order_DM                   :        2.010 s           2.009 s
          | Total time first_order_density              :      311.756 s         311.842 s
          | Total time first_order_potential            :      125.783 s         125.818 s
          | Total time first_order_H                    :      593.097 s         593.251 s
          | Total time solving of Sternheimer equations :        1.928 s           1.928 s
          | Total time for dielectric constant          :        0.000 s           0.001 s
          | Total time momentum matrix                  :        0.000 s           0.000 s

          GPU acceleration has been used for charge density update.
          GPU acceleration has been used for real-space Hamiltonian integration.
          Due to GPU usage, wall_clock(cpu1) will give a more reliable estimate for timings.

          Partial memory accounting:
          | Residual value for overall tracked memory usage across tasks:     1.234863 MB (should be 0.000000 MB)
          |
          | Largest tracked array allocation:
          |   Minimum:      103.256 MB (DFPT_pulay_mixing::initialize_pulay_mixing::X_in_diffs on task  0)
          |   Maximum:      103.256 MB (DFPT_pulay_mixing::initialize_pulay_mixing::X_in_diffs on task  0)
          |   Average:      103.256 MB
          |
          | Because the residual tracked memory usage was not zero, the peak value for overall
          | tracked memory usage was not output, as it is probably incorrect.  This is likely due
          | to a missing aims_deallocate statement in the source code, which should be otherwise
          | harmless.
          |
          Note:  These values currently only include a subset of arrays which are explicitly tracked.
          The "true" memory usage will be greater.

          Have a nice day.
------------------------------------------------------------
