------------------------------------------------------------
          Invoking FHI-aims ...

          When using FHI-aims, please cite the following reference:

            Volker Blum, Ralf Gehrke, Felix Hanke, Paula Havu,
            Ville Havu, Xinguo Ren, Karsten Reuter, and Matthias Scheffler,
            'Ab Initio Molecular Simulations with Numeric Atom-Centered Orbitals',
            Computer Physics Communications 180, 2175-2196 (2009)

          In addition, many other developments in FHI-aims are likely important for
          your particular application. A partial list of references is given at the end of
          this file. Thank you for giving credit to the authors of these developments.

          For any questions about FHI-aims, please visit our slack channel at

            https://fhi-aims.slack.com

          and our main development and support site at

            https://aims-git.rz-berlin.mpg.de .

          The latter site, in particular, has a wiki to collect information, as well
          as an issue tracker to log discussions, suggest improvements, and report issues
          or bugs. https://aims-git.rz-berlin.mpg.de is also the main development site
          of the project and all new and updated code versions can be obtained there.
          Please send an email to aims-coordinators@fhi-berlin.mpg.de and we will add
          you to these sites. They are for you and everyone is welcome there.

------------------------------------------------------------



  Date     :  20230119, Time     :  163906.578
  Time zero on CPU 1             :   0.884624000000000E+00  s.
  Internal wall clock time zero  :           443378346.578  s.

  FHI-aims created a unique identifier for this run for later identification
  aims_uuid : 8E135D24-9593-4514-A34F-E73C810D915A

  Build configuration of the current instance of FHI-aims
  -------------------------------------------------------
  FHI-aims version      : 220829
  Commit number         : 9895fc21d
  CMake host system     : Linux-5.3.18-150300.59.68-default
  CMake version         : 3.17.0
  Fortran compiler      : /mpcdf/soft/SLE_15/packages/x86_64/intel_oneapi/2021.3/mpi/2021.3.0/bin/mpiifort (Intel) version 20.2.3.20210609
  Fortran compiler flags: -O3 -ip -fp-model precise
  C compiler            : /mpcdf/soft/SLE_15/packages/x86_64/intel/2021.3.0/bin/icc (Intel) version 20.2.3.20210609
  C compiler flags      : -O3 -ip -fp-model precise -std=gnu99
  CUDA compiler         : /mpcdf/soft/SLE_15/packages/x86_64/cuda/11.6.2/bin/nvcc
  CUDA compiler flags   : -O3 -DAdd_ -lcublas
  ELPA2 kernel          : AVX512
  Using MPI
  Using ScaLAPACK
  Using LibXC
  Using CUDA
  Using i-PI
  Using RLSY
  Linking against: /mpcdf/soft/SLE_15/packages/x86_64/cuda/11.6.2/lib64/libcublas.so
                   /mpcdf/soft/SLE_15/packages/x86_64/cuda/11.6.2/lib64/libcudart.so
                   /mpcdf/soft/SLE_15/packages/x86_64/intel_oneapi/2021.3/mkl/latest/lib/intel64/libmkl_intel_lp64.so
                   /mpcdf/soft/SLE_15/packages/x86_64/intel_oneapi/2021.3/mkl/latest/lib/intel64/libmkl_sequential.so
                   /mpcdf/soft/SLE_15/packages/x86_64/intel_oneapi/2021.3/mkl/latest/lib/intel64/libmkl_core.so
                   /mpcdf/soft/SLE_15/packages/x86_64/intel_oneapi/2021.3/mkl/latest/lib/intel64/libmkl_blacs_intelmpi_lp64.so
                   /mpcdf/soft/SLE_15/packages/x86_64/intel_oneapi/2021.3/mkl/latest/lib/intel64/libmkl_scalapack_lp64.so

  Using       18 parallel tasks.
  Task        0 on host adag036 reporting.
  Task        1 on host adag036 reporting.
  Task        2 on host adag036 reporting.
  Task        3 on host adag036 reporting.
  Task        4 on host adag036 reporting.
  Task        5 on host adag036 reporting.
  Task        6 on host adag036 reporting.
  Task        7 on host adag036 reporting.
  Task        8 on host adag036 reporting.
  Task        9 on host adag036 reporting.
  Task       10 on host adag036 reporting.
  Task       11 on host adag036 reporting.
  Task       12 on host adag036 reporting.
  Task       13 on host adag036 reporting.
  Task       14 on host adag036 reporting.
  Task       15 on host adag036 reporting.
  Task       16 on host adag036 reporting.
  Task       17 on host adag036 reporting.

  Performing system and environment tests:
  | Environment variable OMP_NUM_THREADS correctly set to 1.
  | Checking for ScaLAPACK...
  | Testing pdtran()...
  | All pdtran() tests passed.

  Obtaining array dimensions for all initial allocations:
  
  -----------------------------------------------------------------------
  Parsing control.in (first pass over file, find array dimensions only).
  The contents of control.in will be repeated verbatim below
  unless switched off by setting 'verbatim_writeout .false.' .
  in the first line of control.in .
  -----------------------------------------------------------------------
  
  #
  # Input for polarizability replays on generic oligoacene molecular crystals (light settings,  LDA+MBD).
  #
  #########################################################################################
  #
  #  Physical model
  #
    xc                 pw-lda
    spin               none
    relativistic       none
    charge             0.0
    k_grid 	     2 1 1
    DFPT dielectric
  #
  #  GPU acceleration
  #
  # Turns on GPU acceleration everywhere
    use_gpu
  
  # Turns OFF GPU acceleration of ELPA - may be necessary if GPU ELPA is slow
    elsi_elpa_gpu 0
  #
  #  Relaxation
  #
  #  relax_geometry trm 1E-3
  #  relax_unit_cell fixed_angles
  #
  #  SCF convergence        #
    charge_mix_param   0.75
    #sc_accuracy_rho 1E-4
  #
  # i-PI communication
  #
  compute_forces .false.
  # use_pimd_wrapper 130.183.223.27 26118
  #communicate_pimd_wrapper polarizability
  #output_level MD_light
  #
  # Output SALTED info
    ri_density_restart write
    ri_rho1 write
    ri_full_output .true.
  #  sc_accuracy_rho    1d-6
    default_prodbas_acc 1e-6
    default_max_l_prodbas 6
  #
  #
  ################################################################################
  #
  #  FHI-aims code project
  #  VB, Fritz-Haber Institut, 2009
  #
  #  Suggested "light" defaults for H atom (to be pasted into control.in file)
  #  Be sure to double-check any results obtained with these settings for post-processing,
  #  e.g., with the "tight" defaults and larger basis sets.
  #
  ################################################################################
    species        H
  #     global species definitions
      nucleus             1
      mass                1.00794
  #
      l_hartree           4
  #
      cut_pot             3.5  1.5  1.0
      basis_dep_cutoff    1e-4
  #
      radial_base         24 5.0
      radial_multiplier   1
      angular_grids       specified
        division   0.2421   50
        division   0.3822  110
        division   0.4799  194
        division   0.5341  302
  #      division   0.5626  434
  #      division   0.5922  590
  #      division   0.6542  770
  #      division   0.6868 1202
  #      outer_grid  770
        outer_grid  302
  ################################################################################
  #
  #  Definition of "minimal" basis
  #
  ################################################################################
  #     valence basis states
      valence      1  s   1.
  #     ion occupancy
      ion_occ      1  s   0.5
  ################################################################################
  #
  #  Suggested additional basis functions. For production calculations,
  #  uncomment them one after another (the most important basis functions are
  #  listed first).
  #
  #  Basis constructed for dimers: 0.5 A, 0.7 A, 1.0 A, 1.5 A, 2.5 A
  #
  ################################################################################
  #  "First tier" - improvements: -1014.90 meV to -62.69 meV
       hydro 2 s 2.1
       hydro 2 p 3.5
  #  "Second tier" - improvements: -12.89 meV to -1.83 meV
  #     hydro 1 s 0.85
  #     hydro 2 p 3.7
  #     hydro 2 s 1.2
  #     hydro 3 d 7
  #  "Third tier" - improvements: -0.25 meV to -0.12 meV
  #     hydro 4 f 11.2
  #     hydro 3 p 4.8
  #     hydro 4 d 9
  #     hydro 3 s 3.2
  ################################################################################
  ################################################################################
  #
  #  FHI-aims code project
  #  VB, Fritz-Haber Institut, 2009
  #
  #  Suggested "light" defaults for C atom (to be pasted into control.in file)
  #  Be sure to double-check any results obtained with these settings for post-processing,
  #  e.g., with the "tight" defaults and larger basis sets.
  #
  ################################################################################
    species        C
  #     global species definitions
      nucleus             6
      mass                12.0107
  #
      l_hartree           4
  #
      cut_pot             3.5  1.5  1.0
      basis_dep_cutoff    1e-4
  #
      radial_base         34 5.0
      radial_multiplier   1
      angular_grids specified
        division   0.3326   50
        division   0.5710  110
        division   0.7727  194
        division   0.8772  302
  #      division   0.9334  434
  #      division   0.9625  590
  #      division   0.9924  770
  #      division   1.0230  974
  #      division   1.4589 1202
  #     outer_grid  974
       outer_grid 302
  ################################################################################
  #
  #  Definition of "minimal" basis
  #
  ################################################################################
  #     valence basis states
      valence      2  s   2.
      valence      2  p   2.
  #     ion occupancy
      ion_occ      2  s   1.
      ion_occ      2  p   1.
  ################################################################################
  #
  #  Suggested additional basis functions. For production calculations,
  #  uncomment them one after another (the most important basis functions are
  #  listed first).
  #
  #  Constructed for dimers: 1.0 A, 1.25 A, 1.5 A, 2.0 A, 3.0 A
  #
  ################################################################################
  #  "First tier" - improvements: -1214.57 meV to -155.61 meV
       hydro 2 p 1.7
       hydro 3 d 6
       hydro 2 s 4.9
  #  "Second tier" - improvements: -67.75 meV to -5.23 meV
  #     hydro 4 f 9.8
  #     hydro 3 p 5.2
  #     hydro 3 s 4.3
  #     hydro 5 g 14.4
  #     hydro 3 d 6.2
  #  "Third tier" - improvements: -2.43 meV to -0.60 meV
  #     hydro 2 p 5.6
  #     hydro 2 s 1.4
  #     hydro 3 d 4.9
  #     hydro 4 f 11.2
  #  "Fourth tier" - improvements: -0.39 meV to -0.18 meV
  #     hydro 2 p 2.1
  #     hydro 5 g 16.4
  #     hydro 4 d 13.2
  #     hydro 3 s 13.6
  #     hydro 4 f 17.6
  #  Further basis functions - improvements: -0.08 meV and below
  #     hydro 3 s 2
  #     hydro 3 p 6
  #     hydro 4 d 20
  
  -----------------------------------------------------------------------
  Completed first pass over input file control.in .
  -----------------------------------------------------------------------
  
  
  -----------------------------------------------------------------------
  Parsing geometry.in (first pass over file, find array dimensions only).
  The contents of geometry.in will be repeated verbatim below
  unless switched off by setting 'verbatim_writeout .false.' .
  in the first line of geometry.in .
  -----------------------------------------------------------------------
  
  #=======================================================
  # FHI-aims file: /ada/ptmp/mpsd/alewis/naphthalene/qmdata/data/geoms/31.in
  # Created using the Atomic Simulation Environment (ASE)
  # Thu Jan 19 15:19:16 2023
  #=======================================================
  lattice_vector 8.1020000000000003 0.0000000000000000 0.0000000000000000
  lattice_vector 0.0000000000000000 11.8800000000000008 0.0000000000000000
  lattice_vector -9.7850918486534706 0.0000000000000000 14.2571119625755713
  atom -0.7020510000000000 0.2011360000000000 2.4480900000000001 C
  atom 0.3530960000000000 3.0571400000000000 4.8044799999999999 C
  atom 4.3261099999999999 5.7946600000000004 4.8943399999999997 C
  atom 3.1017600000000001 2.9020500000000000 2.3308800000000001 C
  atom -0.0516671000000000 1.0945800000000001 1.5592900000000001 C
  atom -0.4918510000000000 3.8995899999999999 5.5311399999999997 C
  atom 3.4861200000000001 4.9355099999999998 5.6056400000000002 C
  atom 3.8685299999999998 2.0291399999999999 1.5856300000000001 C
  atom 0.2765350000000000 0.6732600000000000 0.2510660000000000 C
  atom -0.9055120000000000 3.5650300000000001 6.8471299999999999 C
  atom 3.0905000000000000 5.2967700000000004 6.9304800000000002 C
  atom 4.2742899999999997 2.3680800000000000 0.2481600000000000 C
  atom -3.8440099999999999 1.5981900000000000 6.8212400000000004 C
  atom 3.0820799999999999 4.5262000000000002 0.5185500000000000 C
  atom 7.1084600000000000 4.4027200000000004 0.4955730000000000 C
  atom 0.3227770000000000 1.4611400000000001 6.6261700000000001 C
  atom -3.4303400000000002 1.2760400000000001 5.5372300000000001 C
  atom 2.7247499999999998 4.1803699999999999 1.8030900000000001 C
  atom 6.7462000000000000 4.6800600000000001 1.8035699999999999 C
  atom 0.7220850000000000 1.8238700000000001 5.3605900000000002 C
  atom -0.9080880000000000 0.5572820000000001 3.4644599999999999 H
  atom 0.6955530000000000 3.3606799999999999 3.8038699999999999 H
  atom 4.6655199999999999 5.4555300000000004 3.9270200000000002 H
  atom 2.8598800000000000 2.6325699999999999 3.3635700000000002 H
  atom 0.2060270000000000 2.1109399999999998 1.8531299999999999 H
  atom -0.7409210000000001 4.8695800000000000 5.1390900000000004 H
  atom 3.1537500000000001 3.9622999999999999 5.1979499999999996 H
  atom 4.0854900000000001 1.0178700000000001 1.9452100000000001 H
  atom -3.6644199999999998 2.5745900000000002 7.2675000000000001 H
  atom 2.8138999999999998 5.4828400000000004 0.0926818000000000 H
  atom 6.7651399999999997 3.5604000000000000 -0.0391699000000000 H
  atom 0.6685110000000000 0.5158250000000000 7.0778900000000000 H
  atom -2.8760200000000000 2.0458300000000000 4.9837199999999999 H
  atom 2.1437300000000001 4.9229599999999998 2.3891399999999998 H
  atom 6.1013500000000001 3.9958800000000001 2.3712800000000001 H
  atom 1.3198000000000001 1.1553199999999999 4.7602500000000001 H
  atom -5.9671900000000004 0.0757168000000000 9.5446200000000001 C
  atom -4.7440300000000004 3.0788899999999999 11.8917000000000002 C
  atom -0.6804710000000000 5.9363299999999999 11.9893999999999998 C
  atom -1.6880500000000001 2.8745200000000000 9.4514399999999998 C
  atom -5.1267699999999996 0.9688500000000000 8.8559999999999999 C
  atom -5.4753699999999998 4.0062800000000003 12.6326000000000001 C
  atom -1.5218799999999999 5.0579299999999998 12.6724999999999994 C
  atom -0.9266910000000000 1.9701800000000000 8.7529299999999992 C
  atom -4.6271199999999997 0.6710910000000000 7.5580499999999997 C
  atom -5.9080500000000002 3.6551800000000001 13.9465000000000003 C
  atom -1.8668600000000000 5.2930500000000000 14.0231999999999992 C
  atom -0.4893790000000000 2.3127200000000001 7.4076199999999996 C
  atom -8.7681000000000004 1.4942000000000000 13.6115999999999993 C
  atom -1.7082299999999999 4.4643600000000001 7.6127200000000004 C
  atom 2.2715900000000002 4.4622500000000000 7.7301799999999998 C
  atom -4.7906300000000002 1.4671600000000000 13.6950000000000003 C
  atom -8.4899600000000000 1.1165900000000000 12.3171999999999997 C
  atom -2.1305900000000002 4.1009799999999998 8.8585200000000004 C
  atom 1.9169000000000000 4.8409700000000004 9.0219699999999996 C
  atom -4.4158299999999997 1.8370899999999999 12.4313000000000002 C
  atom -6.2629000000000001 0.2867150000000000 10.5676000000000005 H
  atom -4.3579200000000000 3.3204300000000000 10.9037000000000006 H
  atom -0.3875260000000000 5.7718699999999998 10.9414999999999996 H
  atom -2.0885799999999999 2.6185600000000000 10.4517000000000007 H
  atom -4.7694900000000002 1.8767199999999999 9.3839100000000002 H
  atom -5.6089000000000002 4.9981299999999997 12.2254000000000005 H
  atom -2.0277599999999998 4.2315199999999997 12.1595999999999993 H
  atom -0.5932340000000000 1.0125999999999999 9.1859599999999997 H
  atom -8.4481400000000004 2.5037900000000000 13.8970000000000002 H
  atom -2.1015899999999998 5.3956499999999998 7.1725300000000001 H
  atom 1.9916799999999999 3.4707200000000000 7.3558300000000001 H
  atom -4.4841899999999999 0.4834530000000000 14.0412999999999997 H
  atom -7.8765099999999997 1.7499700000000000 11.7037999999999993 H
  atom -2.8222100000000001 4.7521100000000001 9.4087200000000006 H
  atom 1.3051299999999999 4.1474200000000003 9.6255799999999994 H
  atom -3.7832499999999998 1.1526200000000000 11.8887000000000000 H
  atom -0.8617020000000000 5.8529099999999996 2.4331900000000002 C
  atom 0.3136010000000000 8.9286999999999992 4.7532399999999999 C
  atom 4.3565899999999997 11.9120000000000008 4.9976200000000004 C
  atom 3.2932199999999998 8.9326799999999995 2.5415800000000002 C
  atom 0.0247516000000000 6.6913400000000003 1.7673099999999999 C
  atom -0.4792150000000000 9.8025699999999993 5.4923999999999999 C
  atom 3.5871300000000002 11.0085999999999995 5.6830100000000003 C
  atom 4.0337399999999999 8.0599500000000006 1.7720300000000000 C
  atom 0.3319830000000000 6.4853399999999999 0.3823990000000000 C
  atom -0.8563050000000000 9.5103899999999992 6.8155500000000000 C
  atom 3.1315300000000001 11.2972999999999999 6.9775499999999999 C
  atom 4.3448599999999997 8.3288300000000000 0.3946280000000000 C
  atom -3.7701600000000002 7.4115300000000000 6.6859299999999999 C
  atom 3.1882700000000002 10.4505999999999997 0.6627170000000000 C
  atom 7.3474899999999996 10.3779000000000003 0.7472060000000000 C
  atom 0.2686270000000000 7.3692399999999996 6.5892200000000001 C
  atom -3.4000200000000000 7.0538699999999999 5.4019800000000000 C
  atom 2.9283500000000000 10.1683000000000003 1.9961100000000001 C
  atom 7.0522299999999998 10.8088999999999995 2.0259800000000001 C
  atom 0.6793500000000000 7.7024100000000004 5.3267499999999997 C
  atom -1.1358500000000000 6.0953499999999998 3.4815399999999999 H
  atom 0.5985560000000000 9.2147900000000007 3.7260800000000001 H
  atom 4.6910499999999997 11.6745000000000001 3.9890900000000000 H
  atom 3.0390899999999998 8.6969999999999992 3.5709300000000002 H
  atom 0.5532570000000000 7.5361599999999997 2.2345799999999998 H
  atom -0.7170580000000000 10.8119999999999994 5.0961499999999997 H
  atom 3.3747500000000001 10.0487000000000002 5.2406499999999996 H
  atom 4.3874300000000002 7.0994599999999997 2.2016300000000002 H
  atom -3.4670200000000002 8.3615100000000009 7.1317399999999997 H
  atom 2.7897599999999998 11.4001000000000001 0.2589900000000000 H
  atom 7.0064000000000002 9.3966700000000003 0.4019490000000000 H
  atom 0.4685900000000000 6.3674600000000003 6.9665400000000002 H
  atom -2.7900399999999999 7.7286700000000002 4.7948399999999998 H
  atom 2.3694199999999999 10.9271999999999991 2.5634899999999998 H
  atom 6.5454299999999996 10.0905000000000005 2.7404700000000002 H
  atom 1.3391000000000000 6.9954299999999998 4.8337599999999998 H
  atom -5.7447999999999997 6.0504100000000003 9.5550099999999993 C
  atom -4.6955799999999996 9.0125399999999996 12.0512999999999995 C
  atom -0.8316970000000000 11.7251999999999992 11.8920999999999992 C
  atom -1.6882100000000000 8.7116600000000002 9.4406199999999991 C
  atom -4.9776800000000003 6.9079199999999998 8.7891600000000007 C
  atom -5.4954200000000002 9.8776799999999998 12.7673000000000005 C
  atom -1.4902599999999999 10.8468000000000000 12.7606000000000002 C
  atom -0.9568870000000000 7.8230199999999996 8.6643799999999995 C
  atom -4.5800900000000002 6.5494300000000001 7.4792600000000000 C
  atom -5.8658400000000004 9.5561699999999998 14.1105999999999998 C
  atom -1.7667800000000000 11.2454999999999998 14.1071000000000009 C
  atom -0.5365340000000000 8.2070100000000004 7.3812400000000000 C
  atom -8.5952000000000002 7.3630300000000002 13.9049999999999994 C
  atom -1.6194200000000001 10.3729999999999993 7.6672200000000004 C
  atom 2.3091699999999999 10.4187999999999992 7.6893000000000002 C
  atom -4.6641800000000000 7.4363200000000003 13.8995999999999995 C
  atom -8.2219099999999994 7.0850999999999997 12.6142000000000003 C
  atom -2.0524000000000000 9.9603500000000000 8.9343400000000006 C
  atom 1.8030900000000001 10.7039000000000009 8.9360099999999996 C
  atom -4.2780199999999997 7.7912200000000000 12.6249000000000002 C
  atom -6.0230899999999998 6.4330499999999997 10.5432000000000006 H
  atom -4.3643799999999997 9.3284199999999995 11.0753000000000004 H
  atom -0.6196690000000000 11.3454999999999995 10.8696999999999999 H
  atom -2.0222300000000000 8.3864300000000007 10.4334000000000007 H
  atom -4.6470599999999997 7.8782300000000003 9.1776400000000002 H
  atom -5.8528599999999997 10.7789000000000001 12.3061000000000007 H
  atom -1.8566300000000000 9.8856400000000004 12.4937000000000005 H
  atom -0.7638590000000000 6.8220299999999998 9.0139399999999998 H
  atom -8.2402499999999996 8.3004400000000000 14.3744999999999994 H
  atom -1.9441200000000001 11.3500999999999994 7.3038400000000001 H
  atom 2.0216599999999998 9.4538700000000002 7.2587900000000003 H
  atom -4.3151900000000003 6.5022700000000002 14.3233999999999995 H
  atom -7.5615100000000002 7.7216600000000000 12.0452999999999992 H
  atom -2.7702800000000001 10.5848999999999993 9.4675100000000008 H
  atom 1.1086600000000000 10.0067000000000004 9.4285399999999999 H
  atom -3.5539600000000000 7.1472499999999997 12.0776000000000003 H
  
  -----------------------------------------------------------------------
  Completed first pass over input file geometry.in .
  -----------------------------------------------------------------------
  

  Basic array size parameters:
  | Number of species                 :        2
  | Number of atoms                   :      144
  | Number of lattice vectors         :        3
  | Max. basis fn. angular momentum   :        2
  | Max. atomic/ionic basis occupied n:        2
  | Max. number of basis fn. types    :        2
  | Max. radial fns per species/type  :        3
  | Max. logarithmic grid size        :     1277
  | Max. radial integration grid size :       34
  | Max. angular integration grid size:      302
  | Max. angular grid division number :        8
  | Radial grid for Hartree potential :     1277
  | Number of spin channels           :        1

------------------------------------------------------------
          Reading file control.in.
------------------------------------------------------------
  XC: Using Perdew-Wang parametrisation of Ceperley-Alder LDA.
  Spin treatment: No spin polarisation.
  Non-relativistic treatment of kinetic energy.
  Charge =   0.000000E+00: Neutral system requested explicitly.
  Found k-point grid:         2         1         1
  DFPT calculation will begin after the DFT/HF calculation.
  Charge density mixing - mixing parameter:     0.7500
  Forces will not be computed.
 
  Reading configuration options for species H                   .
  | Found nuclear charge :   1.0000
  | Found atomic mass :    1.00794000000000      amu
  | Found l_max for Hartree potential  :   4
  | Found cutoff potl. onset [A], width [A], scale factor :    3.50000    1.50000    1.00000
  | Threshold for basis-dependent cutoff potential is   0.100000E-03
  | Found data for basic radial integration grid :    24 points, outermost radius =    5.000 A
  | Found multiplier for basic radial grid :   1
  | Found angular grid specification: user-specified.
  | Specified grid contains     5 separate shells.
  | Check grid settings after all constraints further below.
  | Found free-atom valence shell :  1 s   1.000
  | No ionic wave fns used. Skipping ion_occ.
  | Found hydrogenic basis function :  2 s   2.100
  | Found hydrogenic basis function :  2 p   3.500
  Species H                   : Missing cutoff potential type.
  Defaulting to exp(1/x)/(1-x)^2 type cutoff potential.
  Species H : No 'logarithmic' tag. Using default grid for free atom:
  | Default logarithmic grid data [bohr] : 0.1000E-03 0.1000E+03 0.1012E+01
  Species H : On-site basis accuracy parameter (for Gram-Schmidt orthonormalisation) not specified.
  Using default value basis_acc =  0.1000000E-03.
  Species H                   : Using default innermost maximum threshold i_radial=  2 for radial functions.
  Species H                   : Default cutoff onset for free atom density etc. : 0.35000000E+01 AA.
  Species H                   : Basic radial grid will be enhanced according to radial_multiplier =   1, to contain    24 grid points.
 
  Reading configuration options for species C                   .
  | Found nuclear charge :   6.0000
  | Found atomic mass :    12.0107000000000      amu
  | Found l_max for Hartree potential  :   4
  | Found cutoff potl. onset [A], width [A], scale factor :    3.50000    1.50000    1.00000
  | Threshold for basis-dependent cutoff potential is   0.100000E-03
  | Found data for basic radial integration grid :    34 points, outermost radius =    5.000 A
  | Found multiplier for basic radial grid :   1
  | Found angular grid specification: user-specified.
  | Specified grid contains     5 separate shells.
  | Check grid settings after all constraints further below.
  | Found free-atom valence shell :  2 s   2.000
  | Found free-atom valence shell :  2 p   2.000
  | No ionic wave fns used. Skipping ion_occ.
  | No ionic wave fns used. Skipping ion_occ.
  | Found hydrogenic basis function :  2 p   1.700
  | Found hydrogenic basis function :  3 d   6.000
  | Found hydrogenic basis function :  2 s   4.900
  Species C                   : Missing cutoff potential type.
  Defaulting to exp(1/x)/(1-x)^2 type cutoff potential.
  Species C : No 'logarithmic' tag. Using default grid for free atom:
  | Default logarithmic grid data [bohr] : 0.1000E-03 0.1000E+03 0.1012E+01
  Species C : On-site basis accuracy parameter (for Gram-Schmidt orthonormalisation) not specified.
  Using default value basis_acc =  0.1000000E-03.
  Species C                   : Using default innermost maximum threshold i_radial=  2 for radial functions.
  Species C                   : Default cutoff onset for free atom density etc. : 0.35000000E+01 AA.
  Species C                   : Basic radial grid will be enhanced according to radial_multiplier =   1, to contain    34 grid points.
 
  Finished reading input file 'control.in'.
 
------------------------------------------------------------


------------------------------------------------------------
          Reading geometry description geometry.in.
------------------------------------------------------------
  | The smallest distance between any two atoms is         1.05514055 AA.
  | The first atom of this pair is atom number                     15 .
  | The second atom of this pair is atom number                    31 .
  | Wigner-Seitz cell of the first atom image           0     0     0 .
  | (The Wigner-Seitz cell of the second atom is 0 0 0  by definition.)

  Symmetry information by spglib:
  | Precision set to  0.1E-04
  | Number of Operations  : 1
  | Space group           : 1
  | International         : P1
  | Schoenflies           : C1^1
  Input structure read successfully.
  The structure contains      144 atoms,  and a total of        544.000 electrons.

  Input geometry:
  | Unit cell:
  |        8.10200000        0.00000000        0.00000000
  |        0.00000000       11.88000000        0.00000000
  |       -9.78509185        0.00000000       14.25711196
  | Atomic structure:
  |       Atom                x [A]            y [A]            z [A]
  |    1: Species C            -0.70205100        0.20113600        2.44809000
  |    2: Species C             0.35309600        3.05714000        4.80448000
  |    3: Species C             4.32611000        5.79466000        4.89434000
  |    4: Species C             3.10176000        2.90205000        2.33088000
  |    5: Species C            -0.05166710        1.09458000        1.55929000
  |    6: Species C            -0.49185100        3.89959000        5.53114000
  |    7: Species C             3.48612000        4.93551000        5.60564000
  |    8: Species C             3.86853000        2.02914000        1.58563000
  |    9: Species C             0.27653500        0.67326000        0.25106600
  |   10: Species C            -0.90551200        3.56503000        6.84713000
  |   11: Species C             3.09050000        5.29677000        6.93048000
  |   12: Species C             4.27429000        2.36808000        0.24816000
  |   13: Species C            -3.84401000        1.59819000        6.82124000
  |   14: Species C             3.08208000        4.52620000        0.51855000
  |   15: Species C             7.10846000        4.40272000        0.49557300
  |   16: Species C             0.32277700        1.46114000        6.62617000
  |   17: Species C            -3.43034000        1.27604000        5.53723000
  |   18: Species C             2.72475000        4.18037000        1.80309000
  |   19: Species C             6.74620000        4.68006000        1.80357000
  |   20: Species C             0.72208500        1.82387000        5.36059000
  |   21: Species H            -0.90808800        0.55728200        3.46446000
  |   22: Species H             0.69555300        3.36068000        3.80387000
  |   23: Species H             4.66552000        5.45553000        3.92702000
  |   24: Species H             2.85988000        2.63257000        3.36357000
  |   25: Species H             0.20602700        2.11094000        1.85313000
  |   26: Species H            -0.74092100        4.86958000        5.13909000
  |   27: Species H             3.15375000        3.96230000        5.19795000
  |   28: Species H             4.08549000        1.01787000        1.94521000
  |   29: Species H            -3.66442000        2.57459000        7.26750000
  |   30: Species H             2.81390000        5.48284000        0.09268180
  |   31: Species H             6.76514000        3.56040000       -0.03916990
  |   32: Species H             0.66851100        0.51582500        7.07789000
  |   33: Species H            -2.87602000        2.04583000        4.98372000
  |   34: Species H             2.14373000        4.92296000        2.38914000
  |   35: Species H             6.10135000        3.99588000        2.37128000
  |   36: Species H             1.31980000        1.15532000        4.76025000
  |   37: Species C            -5.96719000        0.07571680        9.54462000
  |   38: Species C            -4.74403000        3.07889000       11.89170000
  |   39: Species C            -0.68047100        5.93633000       11.98940000
  |   40: Species C            -1.68805000        2.87452000        9.45144000
  |   41: Species C            -5.12677000        0.96885000        8.85600000
  |   42: Species C            -5.47537000        4.00628000       12.63260000
  |   43: Species C            -1.52188000        5.05793000       12.67250000
  |   44: Species C            -0.92669100        1.97018000        8.75293000
  |   45: Species C            -4.62712000        0.67109100        7.55805000
  |   46: Species C            -5.90805000        3.65518000       13.94650000
  |   47: Species C            -1.86686000        5.29305000       14.02320000
  |   48: Species C            -0.48937900        2.31272000        7.40762000
  |   49: Species C            -8.76810000        1.49420000       13.61160000
  |   50: Species C            -1.70823000        4.46436000        7.61272000
  |   51: Species C             2.27159000        4.46225000        7.73018000
  |   52: Species C            -4.79063000        1.46716000       13.69500000
  |   53: Species C            -8.48996000        1.11659000       12.31720000
  |   54: Species C            -2.13059000        4.10098000        8.85852000
  |   55: Species C             1.91690000        4.84097000        9.02197000
  |   56: Species C            -4.41583000        1.83709000       12.43130000
  |   57: Species H            -6.26290000        0.28671500       10.56760000
  |   58: Species H            -4.35792000        3.32043000       10.90370000
  |   59: Species H            -0.38752600        5.77187000       10.94150000
  |   60: Species H            -2.08858000        2.61856000       10.45170000
  |   61: Species H            -4.76949000        1.87672000        9.38391000
  |   62: Species H            -5.60890000        4.99813000       12.22540000
  |   63: Species H            -2.02776000        4.23152000       12.15960000
  |   64: Species H            -0.59323400        1.01260000        9.18596000
  |   65: Species H            -8.44814000        2.50379000       13.89700000
  |   66: Species H            -2.10159000        5.39565000        7.17253000
  |   67: Species H             1.99168000        3.47072000        7.35583000
  |   68: Species H            -4.48419000        0.48345300       14.04130000
  |   69: Species H            -7.87651000        1.74997000       11.70380000
  |   70: Species H            -2.82221000        4.75211000        9.40872000
  |   71: Species H             1.30513000        4.14742000        9.62558000
  |   72: Species H            -3.78325000        1.15262000       11.88870000
  |   73: Species C            -0.86170200        5.85291000        2.43319000
  |   74: Species C             0.31360100        8.92870000        4.75324000
  |   75: Species C             4.35659000       11.91200000        4.99762000
  |   76: Species C             3.29322000        8.93268000        2.54158000
  |   77: Species C             0.02475160        6.69134000        1.76731000
  |   78: Species C            -0.47921500        9.80257000        5.49240000
  |   79: Species C             3.58713000       11.00860000        5.68301000
  |   80: Species C             4.03374000        8.05995000        1.77203000
  |   81: Species C             0.33198300        6.48534000        0.38239900
  |   82: Species C            -0.85630500        9.51039000        6.81555000
  |   83: Species C             3.13153000       11.29730000        6.97755000
  |   84: Species C             4.34486000        8.32883000        0.39462800
  |   85: Species C            -3.77016000        7.41153000        6.68593000
  |   86: Species C             3.18827000       10.45060000        0.66271700
  |   87: Species C             7.34749000       10.37790000        0.74720600
  |   88: Species C             0.26862700        7.36924000        6.58922000
  |   89: Species C            -3.40002000        7.05387000        5.40198000
  |   90: Species C             2.92835000       10.16830000        1.99611000
  |   91: Species C             7.05223000       10.80890000        2.02598000
  |   92: Species C             0.67935000        7.70241000        5.32675000
  |   93: Species H            -1.13585000        6.09535000        3.48154000
  |   94: Species H             0.59855600        9.21479000        3.72608000
  |   95: Species H             4.69105000       11.67450000        3.98909000
  |   96: Species H             3.03909000        8.69700000        3.57093000
  |   97: Species H             0.55325700        7.53616000        2.23458000
  |   98: Species H            -0.71705800       10.81200000        5.09615000
  |   99: Species H             3.37475000       10.04870000        5.24065000
  |  100: Species H             4.38743000        7.09946000        2.20163000
  |  101: Species H            -3.46702000        8.36151000        7.13174000
  |  102: Species H             2.78976000       11.40010000        0.25899000
  |  103: Species H             7.00640000        9.39667000        0.40194900
  |  104: Species H             0.46859000        6.36746000        6.96654000
  |  105: Species H            -2.79004000        7.72867000        4.79484000
  |  106: Species H             2.36942000       10.92720000        2.56349000
  |  107: Species H             6.54543000       10.09050000        2.74047000
  |  108: Species H             1.33910000        6.99543000        4.83376000
  |  109: Species C            -5.74480000        6.05041000        9.55501000
  |  110: Species C            -4.69558000        9.01254000       12.05130000
  |  111: Species C            -0.83169700       11.72520000       11.89210000
  |  112: Species C            -1.68821000        8.71166000        9.44062000
  |  113: Species C            -4.97768000        6.90792000        8.78916000
  |  114: Species C            -5.49542000        9.87768000       12.76730000
  |  115: Species C            -1.49026000       10.84680000       12.76060000
  |  116: Species C            -0.95688700        7.82302000        8.66438000
  |  117: Species C            -4.58009000        6.54943000        7.47926000
  |  118: Species C            -5.86584000        9.55617000       14.11060000
  |  119: Species C            -1.76678000       11.24550000       14.10710000
  |  120: Species C            -0.53653400        8.20701000        7.38124000
  |  121: Species C            -8.59520000        7.36303000       13.90500000
  |  122: Species C            -1.61942000       10.37300000        7.66722000
  |  123: Species C             2.30917000       10.41880000        7.68930000
  |  124: Species C            -4.66418000        7.43632000       13.89960000
  |  125: Species C            -8.22191000        7.08510000       12.61420000
  |  126: Species C            -2.05240000        9.96035000        8.93434000
  |  127: Species C             1.80309000       10.70390000        8.93601000
  |  128: Species C            -4.27802000        7.79122000       12.62490000
  |  129: Species H            -6.02309000        6.43305000       10.54320000
  |  130: Species H            -4.36438000        9.32842000       11.07530000
  |  131: Species H            -0.61966900       11.34550000       10.86970000
  |  132: Species H            -2.02223000        8.38643000       10.43340000
  |  133: Species H            -4.64706000        7.87823000        9.17764000
  |  134: Species H            -5.85286000       10.77890000       12.30610000
  |  135: Species H            -1.85663000        9.88564000       12.49370000
  |  136: Species H            -0.76385900        6.82203000        9.01394000
  |  137: Species H            -8.24025000        8.30044000       14.37450000
  |  138: Species H            -1.94412000       11.35010000        7.30384000
  |  139: Species H             2.02166000        9.45387000        7.25879000
  |  140: Species H            -4.31519000        6.50227000       14.32340000
  |  141: Species H            -7.56151000        7.72166000       12.04530000
  |  142: Species H            -2.77028000       10.58490000        9.46751000
  |  143: Species H             1.10866000       10.00670000        9.42854000
  |  144: Species H            -3.55396000        7.14725000       12.07760000

  Lattice parameters for 3D lattice (in Angstroms) :     8.102000   11.880000   17.292000
  Angle(s) between unit vectors (in degrees)       :    90.000000  124.463000   90.000000


  Quantities derived from the lattice vectors (in Angstrom^-1):
  | Reciprocal lattice vector 1:  0.775510  0.000000  0.532257
  | Reciprocal lattice vector 2:  0.000000  0.528888  0.000000
  | Reciprocal lattice vector 3: -0.000000  0.000000  0.440705
  | Unit cell volume                               :   0.137227E+04  Angstrom^3

  Fractional coordinates:
                         L1                L2                L3
       atom_frac         0.12072920        0.01693064        0.17171009  C
       atom_frac         0.45057486        0.25733502        0.33698831  C
       atom_frac         0.94856149        0.48776599        0.34329112  C
       atom_frac         0.58029057        0.24428030        0.16348893  C
       atom_frac         0.12571233        0.09213636        0.10936928  C
       atom_frac         0.40784245        0.32824832        0.38795655  C
       atom_frac         0.90513973        0.41544697        0.39318201  C
       atom_frac         0.61179911        0.17080303        0.11121677  C
       atom_frac         0.05539981        0.05667172        0.01760988  C
       atom_frac         0.46826496        0.30008670        0.48026066  C
       atom_frac         0.96853867        0.44585606        0.48610686  C
       atom_frac         0.54858181        0.19933333        0.01740605  C
       atom_frac         0.10338380        0.13452778        0.47844472  C
       atom_frac         0.42433680        0.38099327        0.03637132  C
       atom_frac         0.91935163        0.37059933        0.03475970  C
       atom_frac         0.60115034        0.12299158        0.46476243  C
       atom_frac         0.04567147        0.10741077        0.38838371  C
       atom_frac         0.48904786        0.35188300        0.12646951  C
       atom_frac         0.98544128        0.39394444        0.12650318  C
       atom_frac         0.54322659        0.15352441        0.37599410  C
       atom_frac         0.18139679        0.04690926        0.24299872  H
       atom_frac         0.40808014        0.28288552        0.26680509  H
       atom_frac         0.90851073        0.45921970        0.27544288  H
       atom_frac         0.63791668        0.22159680        0.23592225  H
       atom_frac         0.18241012        0.17768855        0.12997934  H
       atom_frac         0.34388961        0.40989731        0.36045800  H
       atom_frac         0.82958060        0.33352694        0.36458646  H
       atom_frac         0.66903815        0.08567929        0.13643787  H
       atom_frac         0.16335318        0.21671633        0.50974559  H
       atom_frac         0.35516050        0.46151852        0.00650074  H
       atom_frac         0.83167817        0.29969697       -0.00274739  H
       atom_frac         0.68208878        0.04341961        0.49644627  H
       atom_frac         0.06720062        0.17220791        0.34956028  H
       atom_frac         0.46697974        0.41439057        0.16757531  H
       atom_frac         0.95394124        0.33635354        0.16632260  H
       atom_frac         0.56614479        0.09724916        0.33388599  H
       atom_frac         0.07202845        0.00637347        0.66946378  C
       atom_frac         0.42182267        0.25916582        0.83408898  C
       atom_frac         0.93164907        0.49969108        0.84094170  C
       atom_frac         0.59229354        0.24196296        0.66292809  C
       atom_frac         0.11742453        0.08155303        0.62116367  C
       atom_frac         0.39431864        0.33722896        0.88605603  C
       atom_frac         0.88566332        0.42575168        0.88885463  C
       atom_frac         0.62709362        0.16584007        0.61393430  C
       atom_frac         0.06914352        0.05648914        0.53012490  C
       atom_frac         0.45221666        0.30767508        0.97821354  C
       atom_frac         0.95750320        0.44554293        0.98359331  C
       atom_frac         0.56710653        0.19467340        0.51957367  C
       atom_frac         0.07084143        0.12577441        0.95472351  C
       atom_frac         0.43404252        0.37578788        0.53395947  C
       atom_frac         0.93520722        0.37561027        0.54219817  C
       atom_frac         0.56883081        0.12349832        0.96057322  C
       atom_frac        -0.00447902        0.09398906        0.86393374  C
       atom_frac         0.48744546        0.34520034        0.62134042  C
       atom_frac         1.00085829        0.40748906        0.63280488  C
       atom_frac         0.50804138        0.15463721        0.87193676  C
       atom_frac         0.12218798        0.02413426        0.74121604  H
       atom_frac         0.38578409        0.27949747        0.76479023  H
       atom_frac         0.87903727        0.48584764        0.76744154  H
       atom_frac         0.62759087        0.22041751        0.73308676  H
       atom_frac         0.20624220        0.15797306        0.65819151  H
       atom_frac         0.34334310        0.42071801        0.85749484  H
       atom_frac         0.77977601        0.35618855        0.85287960  H
       atom_frac         0.70493350        0.08523569        0.64430721  H
       atom_frac         0.13450950        0.21075673        0.97474159  H
       atom_frac         0.34820250        0.45417929        0.50308436  H
       atom_frac         0.86894730        0.29214815        0.51594110  H
       atom_frac         0.63598908        0.04069470        0.98486286  H
       atom_frac         0.01927497        0.14730387        0.82090959  H
       atom_frac         0.44868948        0.40000926        0.65993169  H
       atom_frac         0.97648233        0.34910943        0.67514234  H
       atom_frac         0.54015407        0.09702189        0.83387856  H
       atom_frac         0.09976187        0.49266919        0.17066500  C
       atom_frac         0.44135953        0.75157407        0.33339431  C
       atom_frac         0.96107250        1.00269360        0.35053523  C
       atom_frac         0.62177043        0.75190909        0.17826752  C
       atom_frac         0.15276604        0.56324411        0.12395989  C
       atom_frac         0.40612035        0.82513215        0.38523931  C
       atom_frac         0.92416114        0.92664983        0.39860878  C
       atom_frac         0.64798054        0.67844697        0.12429095  C
       atom_frac         0.07336894        0.54590404        0.02682163  C
       atom_frac         0.47166321        0.80053788        0.47804563  C
       atom_frac         0.97759021        0.95095118        0.48940838  C
       atom_frac         0.56969949        0.70107997        0.02767938  C
       atom_frac         0.10103656        0.62386616        0.46895402  C
       atom_frac         0.44965600        0.87968013        0.04648326  C
       atom_frac         0.97017037        0.87356061        0.05240935  C
       atom_frac         0.59133673        0.62030640        0.46217074  C
       atom_frac         0.03795656        0.59376010        0.37889721  C
       atom_frac         0.53052843        0.85591751        0.14000802  C
       atom_frac         1.04205406        0.90984007        0.14210311  C
       atom_frac         0.53508534        0.64835101        0.37362055  C
       atom_frac         0.15473184        0.51307660        0.24419672  H
       atom_frac         0.38951847        0.77565572        0.26134886  H
       atom_frac         0.91691983        0.98270202        0.27979650  H
       atom_frac         0.67760163        0.73207071        0.25046657  H
       atom_frac         0.25758055        0.63435690        0.15673441  H
       atom_frac         0.34319743        0.91010101        0.35744617  H
       atom_frac         0.86047498        0.84585017        0.36758146  H
       atom_frac         0.72802715        0.59759764        0.15442328  H
       atom_frac         0.17621713        0.70383081        0.50022333  H
       atom_frac         0.36626916        0.95960438        0.01816567  H
       atom_frac         0.89882373        0.79096549        0.02819288  H
       atom_frac         0.64798067        0.53598148        0.48863613  H
       atom_frac         0.06181255        0.65056145        0.33631215  H
       atom_frac         0.50960523        0.91979798        0.17980430  H
       atom_frac         1.04002695        0.84936869        0.19221775  H
       atom_frac         0.57475405        0.58884091        0.33904202  H
       atom_frac         0.10035738        0.50929377        0.67019253  C
       atom_frac         0.44132259        0.75863131        0.84528339  C
       atom_frac         0.90474140        0.98696970        0.83411704  C
       atom_frac         0.59135721        0.73330471        0.66216917  C
       atom_frac         0.13016406        0.58147475        0.61647548  C
       atom_frac         0.40325455        0.83145455        0.89550394  C
       atom_frac         0.89702912        0.91303030        0.89503400  C
       atom_frac         0.61586545        0.65850337        0.60772336  C
       atom_frac         0.06827386        0.55129882        0.52459853  C
       atom_frac         0.47132760        0.80439141        0.98972359  C
       atom_frac         0.97696298        0.94659091        0.98947810  C
       atom_frac         0.55905168        0.69082576        0.51772337  C
       atom_frac         0.11703612        0.61978367        0.97530271  C
       atom_frac         0.44962077        0.87314815        0.53778213  C
       atom_frac         0.93638258        0.87700337        0.53933083  C
       atom_frac         0.60176999        0.62595286        0.97492396  C
       atom_frac         0.05376464        0.59638889        0.88476544  C
       atom_frac         0.50351897        0.83841330        0.62665847  C
       atom_frac         0.97952936        0.90100168        0.62677561  C
       atom_frac         0.54145086        0.65582660        0.88551595  C
       atom_frac         0.14971989        0.54150253        0.73950461  H
       atom_frac         0.39952321        0.78522054        0.77682633  H
       atom_frac         0.84430245        0.95500842        0.76240546  H
       atom_frac         0.63422999        0.70592845        0.73180319  H
       atom_frac         0.20387990        0.66315067        0.64372364  H
       atom_frac         0.32006822        0.90731481        0.86315518  H
       atom_frac         0.82919999        0.83212458        0.87631352  H
       atom_frac         0.66930185        0.57424495        0.63224165  H
       atom_frac         0.20061822        0.69869024        1.00823365  H
       atom_frac         0.37876187        0.95539562        0.51229450  H
       atom_frac         0.86442724        0.79578030        0.50913467  H
       atom_frac         0.68074517        0.54732912        1.00464947  H
       atom_frac         0.08708315        0.64997138        0.84486255  H
       atom_frac         0.46007919        0.89098485        0.66405525  H
       atom_frac         0.93554126        0.84231481        0.66132187  H
       atom_frac         0.58445645        0.60162037        0.84712809  H

 
  Finished reading input file 'geometry.in'.
 

 
  Consistency checks for stacksize environment parameter are next.
 
  | Maximum stacksize for task 0: unlimited
  | Maximum stacksize for task 1: unlimited
  | Maximum stacksize for task 2: unlimited
  | Maximum stacksize for task 3: unlimited
  | Maximum stacksize for task 4: unlimited
  | Maximum stacksize for task 5: unlimited
  | Maximum stacksize for task 6: unlimited
  | Maximum stacksize for task 7: unlimited
  | Maximum stacksize for task 8: unlimited
  | Maximum stacksize for task 9: unlimited
  | Maximum stacksize for task 10: unlimited
  | Maximum stacksize for task 11: unlimited
  | Maximum stacksize for task 12: unlimited
  | Maximum stacksize for task 13: unlimited
  | Maximum stacksize for task 14: unlimited
  | Maximum stacksize for task 15: unlimited
  | Maximum stacksize for task 16: unlimited
  | Maximum stacksize for task 17: unlimited
  | Current stacksize for task 0: unlimited
  | Current stacksize for task 1: unlimited
  | Current stacksize for task 2: unlimited
  | Current stacksize for task 3: unlimited
  | Current stacksize for task 4: unlimited
  | Current stacksize for task 5: unlimited
  | Current stacksize for task 6: unlimited
  | Current stacksize for task 7: unlimited
  | Current stacksize for task 8: unlimited
  | Current stacksize for task 9: unlimited
  | Current stacksize for task 10: unlimited
  | Current stacksize for task 11: unlimited
  | Current stacksize for task 12: unlimited
  | Current stacksize for task 13: unlimited
  | Current stacksize for task 14: unlimited
  | Current stacksize for task 15: unlimited
  | Current stacksize for task 16: unlimited
  | Current stacksize for task 17: unlimited
 
  Consistency checks for the contents of control.in are next.
 
  MPI_IN_PLACE appears to work with this MPI implementation.
  | Keeping use_mpi_in_place .true. (see manual).
  Explicit treatment of the Coulomb operator is needed, but the RI method is not specified.
  Coulomb operator: Defaulting to 'LVL fast' resolution of identity - RI_type = LVL_fast
  Species H: Using default value for prodbas_acc =   1.000000E-06.
  Species H: Using default value max_l_prodbas =     6.
  Species C: Using default value for prodbas_acc =   1.000000E-06.
  Species C: Using default value max_l_prodbas =     6.
  Target number of points in a grid batch is not set.  Since GPU acceleration is enabled, defaulting to  200
  Method for grid partitioning is not set. Defaulting to parallel hash+maxmin partitioning.
  Batch size limit is not set. Defaulting to    200
  By default, will store active basis functions for each batch.
  If in need of memory, prune_basis_once .false. can be used to disable this option.
  communication_type for Hartree potential was not specified.
  Defaulting to calc_hartree .
  Defaulting to Pulay charge density mixer.
  Pulay mixer: Number of relevant iterations not set.
  Defaulting to    8 iterations.
  Pulay mixer: Number of initial linear mixing iterations not set.
  Defaulting to    0 iterations.
  Work space size for distributed Hartree potential not set.
  Defaulting to   0.200000E+03 MB.
  Algorithm-dependent basis array size parameters:
  | n_max_pulay                         :        8
  Maximum number of self-consistency iterations not provided.
  Presetting  1000 iterations.
  Presetting      1001 iterations before the initial mixing cycle
  is restarted anyway using the sc_init_iter criterion / keyword.
  Presetting a factor      1.000 between actual scf density residual
  and density convergence criterion sc_accuracy_rho below which sc_init_iter
  takes no effect.
 * No s.c.f. convergence criteria (sc_accuracy_*) were provided in control.in.
 * The run will proceed with a reasonable default guess, but please check whether.
 * the s.c.f. cycles seem to take too much or too little time.
  Geometry relaxation not requested: no relaxation will be performed.
 * Notice: The s.c.f. convergence criterion sc_accuracy_rho was not provided.
 * We used to stop in this case, and ask the user to provide reasonable
 * scf convergence criteria. However, this led some users to employ criteria
 * that led to extremely long run times, e.g., for simple relaxation.
 * We now preset a default value for sc_accuracy_rho if it is not set.
 * You may still wish to check if this setting is too tight or too loose for your needs.
 * Based on n_atoms and forces and force-correction status, FHI-aims chose sc_accuracy_rho =  0.391918E-04 .
  No accuracy limit for integral partition fn. given. Defaulting to  0.1000E-14.
  No threshold value for u(r) in integrations given. Defaulting to  0.1000E-05.
  No occupation type (smearing scheme) given. Defaulting to Gaussian broadening, width =  0.1000E-01 eV.
  The width will be adjusted in iteration number     2 of the first full s.c.f. cycle only.
  S.C.F. convergence parameters will be adjusted in iteration number     2 of the first full s.c.f. cycle only.
  No accuracy for occupation numbers given. Defaulting to  0.1000E-12.
  No threshold value for occupation numbers given. Defaulting to  0.0000E+00.
  No accuracy for fermi level given. Defaulting to  0.1000E-19.
  Maximum # of iterations to find E_F not set. Defaulting to  200.
  Preferred method for the eigenvalue solver ('KS_method') not specified in 'control.in'.
  Calling BLACS routine to test compilation state
  Since ScaLAPACK support is enabled, defaulting to ELPA (via ELSI).
  Will not use alltoall communication since running on < 1024 CPUs.
  Threshold for basis singularities not set.
  Default threshold for basis singularities:  0.1000E-04
  partition_type (choice of integration weights) for integrals was not specified.
  | Using a version of the partition function of Stratmann and coworkers ('stratmann_sparse').
  | At each grid point, the set of atoms used to build the partition table is smoothly restricted to
  | only those atoms whose free-atom density would be non-zero at that grid point.
  Partitioning for Hartree potential was not defined. Using partition_type for integrals.
  | Adjusted default value of keyword multip_moments_threshold to:       0.10000000E-11
  | This value may affect high angular momentum components of the Hartree potential in periodic systems.
  Angular momentum expansion for Kerker preconditioner not set explicitly.
  | Using default value of   0
  No explicit requirement for turning off preconditioner.
  | By default, it will be turned off when the charge convergence reaches
  | sc_accuracy_rho  =   0.391918E-04
  No special mixing parameter while Kerker preconditioner is on.
  Using default: charge_mix_param =     0.7500.
  Threshold for auxiliary basis singularities not set.
  Default threshold for auxiliary basis singularities:  0.1000E-04
  No q(lm)/r^(l+1) cutoff set for long-range Hartree potential.
  | Using default value of  0.100000E-09 .
  | Verify using the multipole_threshold keyword.
  Defaulting to new monopole extrapolation.
  Density update method: automatic selection selected.
  Using density matrix based charge density update.
  Using density matrix based charge density update.
  Using packed matrix style: index .
  Defaulting to use time-reversal symmetry for k-point grid.
  Charge integration errors on the 3D integration grid will be compensated
  by explicit normalization and distribution of residual charges.
  Use the "compensate_multipole_errors" flag to change this behaviour.
  Default to 1D ("use_logsbt") integrations for auxiliary 2-center integrals.
  Default onset of logarithmic r-grid for SBT is -38.000000000000
  Default onset of logarithmic k-grid for SBT is -25.000000000000
  Default range of logarithmic r- and k-grid for SBT is  45.000000000000
  Default number of logarithmic r- and k-grid for SBT is   4096
  Default of use_2d_corr is to use the efficient 2D distribution where possible
 
  Consistency checks for the contents of geometry.in are next.
 

  Range separation radius for Ewald summation (hartree_convergence_parameter):      2.91768261 bohr.
  Number of empty states per atom not set in control.in .
  | Since you are using a method that relies on the unoccupied spectrum
  | (MP2,GW,RPA et al.), will use the full Hamiltonian size (see below)
  | as the max. possible number of states (occupied plus empty).

  Structure-dependent array size parameters: 
  | Maximum number of distinct radial functions  :        9
  | Maximum number of basis functions            :     1440
  | Number of Kohn-Sham states (occupied + empty):     1440
------------------------------------------------------------
CUDA runtime version: 11060
CUDA driver version: 11060
  Initializing GPUs...

  Number of GPUs available to MPI task         0 :   1
  Number of GPUs available to MPI task         1 :   1
  Number of GPUs available to MPI task         2 :   1
  Number of GPUs available to MPI task         3 :   1
  Number of GPUs available to MPI task         4 :   1
  Number of GPUs available to MPI task         5 :   1
  Number of GPUs available to MPI task         6 :   1
  Number of GPUs available to MPI task         7 :   1
  Number of GPUs available to MPI task         8 :   1
  Number of GPUs available to MPI task         9 :   1
  Number of GPUs available to MPI task        10 :   1
  Number of GPUs available to MPI task        11 :   1
  Number of GPUs available to MPI task        12 :   1
  Number of GPUs available to MPI task        13 :   1
  Number of GPUs available to MPI task        14 :   1
  Number of GPUs available to MPI task        15 :   1
  Number of GPUs available to MPI task        16 :   1
  Number of GPUs available to MPI task        17 :   1

  | MPI task         0, GPU activated = T, Device Name = NVIDIA A100-SXM4-80GB
  | MPI task         1, GPU activated = T, Device Name = NVIDIA A100-SXM4-80GB
  | MPI task         2, GPU activated = T, Device Name = NVIDIA A100-SXM4-80GB
  | MPI task         3, GPU activated = T, Device Name = NVIDIA A100-SXM4-80GB
  | MPI task         4, GPU activated = T, Device Name = NVIDIA A100-SXM4-80GB
  | MPI task         5, GPU activated = T, Device Name = NVIDIA A100-SXM4-80GB
  | MPI task         6, GPU activated = T, Device Name = NVIDIA A100-SXM4-80GB
  | MPI task         7, GPU activated = T, Device Name = NVIDIA A100-SXM4-80GB
  | MPI task         8, GPU activated = T, Device Name = NVIDIA A100-SXM4-80GB
  | MPI task         9, GPU activated = T, Device Name = NVIDIA A100-SXM4-80GB
  | MPI task        10, GPU activated = T, Device Name = NVIDIA A100-SXM4-80GB
  | MPI task        11, GPU activated = T, Device Name = NVIDIA A100-SXM4-80GB
  | MPI task        12, GPU activated = T, Device Name = NVIDIA A100-SXM4-80GB
  | MPI task        13, GPU activated = T, Device Name = NVIDIA A100-SXM4-80GB
  | MPI task        14, GPU activated = T, Device Name = NVIDIA A100-SXM4-80GB
  | MPI task        15, GPU activated = T, Device Name = NVIDIA A100-SXM4-80GB
  | MPI task        16, GPU activated = T, Device Name = NVIDIA A100-SXM4-80GB
  | MPI task        17, GPU activated = T, Device Name = NVIDIA A100-SXM4-80GB

------------------------------------------------------------
          Preparing all fixed parts of the calculation.
------------------------------------------------------------
  Determining machine precision:
    2.225073858507201E-308
  Setting up grids for atomic and cluster calculations.

  Creating wave function, potential, and density for free atoms.
  Runtime choices for atomic solver:
  | atomic solver xc        : PW-LDA
  | compute density gradient: 0
  | compute kinetic density : F

  Species: H

  List of occupied orbitals and eigenvalues:
    n    l              occ      energy [Ha]    energy [eV]
    1    0           1.0000        -0.232375        -6.3233


  Species: C

  List of occupied orbitals and eigenvalues:
    n    l              occ      energy [Ha]    energy [eV]
    1    0           2.0000        -9.944615      -270.6068
    2    0           2.0000        -0.498807       -13.5732
    2    1           2.0000        -0.196968        -5.3598


  Adding cutoff potential to free-atom effective potential.
  Creating fixed part of basis set: Ionic, confined, hydrogenic.
 
  H                    hydrogenic:
 
  List of hydrogenic basis orbitals: 
    n    l      effective z      eigenvalue [eV]  inner max. [A]     outer max. [A]     outer radius [A]   
    2    0         2.100000       -14.9728           0.193243           1.317208           4.583499
    2    1         3.500000       -41.6669           0.602369           0.602369           3.723403
 
 
  C                    hydrogenic:
 
  List of hydrogenic basis orbitals: 
    n    l      effective z      eigenvalue [eV]  inner max. [A]     outer max. [A]     outer radius [A]   
    2    1         1.700000        -9.7616           1.230570           1.230570           4.607917
    3    2         6.000000       -54.4224           0.792453           0.792453           3.883070
    2    0         4.900000       -81.6679           0.082559           0.562749           3.078220
 
  Creating atomic-like basis functions for current effective potential.

  Species H                   :

  List of atomic basis orbitals and eigenvalues:
    n    l      energy [Ha]    energy [eV]    outer radius [A]
    1    0        -0.232375        -6.3233       4.527807


  Species C                   :

  List of atomic basis orbitals and eigenvalues:
    n    l      energy [Ha]    energy [eV]    outer radius [A]
    1    0        -9.944615      -270.6068       1.934409
    2    0        -0.498807       -13.5732       4.496620
    2    1        -0.196968        -5.3598       4.551928

  Assembling full basis from fixed parts.
  | Species H :   atomic orbital   1 s accepted.
  | Species H :    hydro orbital   2 s accepted.
  | Species H :    hydro orbital   2 p accepted.
  | Species C :   atomic orbital   1 s accepted.
  | Species C :    hydro orbital   2 s accepted.
  | Species C :   atomic orbital   2 s accepted.
  | Species C :   atomic orbital   2 p accepted.
  | Species C :    hydro orbital   2 p accepted.
  | Species C :    hydro orbital   3 d accepted.
 
  Basis size parameters after reduction:
  | Total number of radial functions:        9
  | Total number of basis functions :     1440
 
  Per-task memory consumption for arrays in subroutine allocate_ext:
  |           2.242384MB.
  Testing on-site integration grid accuracy.
  |  Species  Function  <phi|h_atom|phi> (log., in eV)  <phi|h_atom|phi> (rad., in eV)
           1        1                 -6.3245358373                 -6.3232436907
           1        2                 14.1326137532                 14.1384481100
           1        3                 25.3627025200                 25.3628451197
           2        4               -270.6067544938               -270.6067222788
           2        5                -10.5634280949                -10.5635685736
           2        6                 16.2089822398                 16.2052121796
           2        7                 -5.3613872565                 -5.3627872378
           2        8                  8.5292058327                  8.5051734780
           2        9                 27.4884461005                 27.4884542459

  Preparing densities etc. for the partition functions (integrals / Hartree potential).

  Preparations completed.
  max(cpu_time)          :      0.078 s.
  Wall clock time (cpu1) :      0.073 s.
------------------------------------------------------------

  Initializing index lists of integration centers etc. from given atomic structure:
  Mapping all atomic coordinates to central unit cell.

  Initializing the k-points
  Using symmetry for reducing the k-points
  | k-points reduced from:        2 to        2
  | Number of k-points                             :         2
  | Consuming          0 KiB for k_phase_exx.
  The eigenvectors in the calculations are REAL.
  | Number of basis functions in the Hamiltonian integrals :      8054
  | Number of basis functions in a single unit cell        :      1440
  | Number of centers in hartree potential         :      3338
  | Number of centers in hartree multipole         :      2549
  | Number of centers in electron density summation:      1994
  | Number of centers in basis integrals           :      2127
  | Number of centers in integrals                 :       970
  | Number of centers in hamiltonian               :      2002
  | Consuming          1 KiB for k_phase.
  | Number of super-cells (origin) [n_cells]                     :         175
  | Number of super-cells (after PM_index) [n_cells]             :          36
  | Number of super-cells in hamiltonian [n_cells_in_hamiltonian]:          36
  | Size of matrix packed + index [n_hamiltonian_matrix_size] :     1932027
  | Size of matrix packed + index (no_symmetry):     3861237

------------------------------------------------------------
          Begin self-consistency loop: Initialization.

          Date     :  20230119, Time     :  163942.373
------------------------------------------------------------
  | Estimated reciprocal-space cutoff momentum G_max:         3.24344278 bohr^-1 .
  | Reciprocal lattice points for long-range Hartree potential:    5310
  Using simple linear distribution as default method for k-point parallelism.
  * Using 18 tasks for Scalapack Eigenvalue solver.
  Detailed listing of tasks and assigned k-points:
   Task     0 k-point     1 on adag036
   Task     1 k-point     1 on adag036
   Task     2 k-point     1 on adag036
   Task     3 k-point     1 on adag036
   Task     4 k-point     1 on adag036
   Task     5 k-point     1 on adag036
   Task     6 k-point     1 on adag036
   Task     7 k-point     1 on adag036
   Task     8 k-point     1 on adag036
   Task     9 k-point     2 on adag036
   Task    10 k-point     2 on adag036
   Task    11 k-point     2 on adag036
   Task    12 k-point     2 on adag036
   Task    13 k-point     2 on adag036
   Task    14 k-point     2 on adag036
   Task    15 k-point     2 on adag036
   Task    16 k-point     2 on adag036
   Task    17 k-point     2 on adag036
  K-point:     1 Tasks:     9 split into      3 X      3 BLACS grid
  Calculating block size based on n_basis =         1440  max_nprow =            3  max_npcol =            3
  ScaLAPACK block size set to:           16
  Allocating        1.758 MB for ovlp
  Allocating        1.758 MB for ham
  Allocating        1.758 MB for eigenvec
  Required Scalapack workspace - INTEGER:            1  REAL:             1
  Partitioning the integration grid into batches with parallel hashing+maxmin method.
  | Number of batches:     5632
  | Maximal batch size:     188
  | Minimal batch size:      99
  | Average batch size:     135.625
  | Standard deviation of batch sizes:      30.479

  Integration load balanced across    18 MPI tasks.
  Work distribution over tasks is as follows:
  Task     0 has      42402 integration points.
  Task     1 has      42406 integration points.
  Task     2 has      42379 integration points.
  Task     3 has      42460 integration points.
  Task     4 has      42422 integration points.
  Task     5 has      42455 integration points.
  Task     6 has      42428 integration points.
  Task     7 has      42441 integration points.
  Task     8 has      42424 integration points.
  Task     9 has      42446 integration points.
  Task    10 has      42459 integration points.
  Task    11 has      42428 integration points.
  Task    12 has      42485 integration points.
  Task    13 has      42434 integration points.
  Task    14 has      42437 integration points.
  Task    15 has      42433 integration points.
  Task    16 has      42448 integration points.
  Task    17 has      42453 integration points.
  Initializing partition tables, free-atom densities, potentials, etc. across the integration grid (initialize_grid_storage).
  | initialize_grid_storage: Actual outermost partition radius vs. multipole_radius_free
  | (-- VB: in principle, multipole_radius_free should be larger, hence this output)
  | Species        1: Confinement radius =              4.999999999999999 AA, multipole_radius_free =              5.054417573612229 AA.
  | Species        1: outer_partition_radius set to              5.054417573612229 AA .
  | Species        2: Confinement radius =              4.999999999999999 AA, multipole_radius_free =              5.019602836301480 AA.
  | Species        2: outer_partition_radius set to              5.019602836301480 AA .
  | The sparse table of interatomic distances needs       7656.40 kbyte instead of     36193.03 kbyte of memory.
  | Net number of integration points:   763840
  | of which are non-zero points    :   605393
  | Numerical average free-atom electrostatic potential    :     -8.61472339 eV
  Renormalizing the initial density to the exact electron count on the 3D integration grid.
  | Initial density: Formal number of electrons (from input files) :     544.0000000000
  | Integrated number of electrons on 3D grid     :     543.9998090191
  | Charge integration error                      :      -0.0001909809
  | Normalization factor for density and gradient :       1.0000003511
  Renormalizing the free-atom superposition density to the exact electron count on the 3D integration grid.
  | Formal number of electrons (from input files) :     544.0000000000
  | Integrated number of electrons on 3D grid     :     543.9998090191
  | Charge integration error                      :      -0.0001909809
  | Normalization factor for density and gradient :       1.0000003511
  Obtaining max. number of non-zero basis functions in each batch (get_n_compute_maxes).
  | Maximal number of non-zero basis functions:      546 in task     0
  | Maximal number of non-zero basis functions:      539 in task     1
  | Maximal number of non-zero basis functions:      536 in task     2
  | Maximal number of non-zero basis functions:      544 in task     3
  | Maximal number of non-zero basis functions:      550 in task     4
  | Maximal number of non-zero basis functions:      549 in task     5
  | Maximal number of non-zero basis functions:      539 in task     6
  | Maximal number of non-zero basis functions:      525 in task     7
  | Maximal number of non-zero basis functions:      553 in task     8
  | Maximal number of non-zero basis functions:      545 in task     9
  | Maximal number of non-zero basis functions:      554 in task    10
  | Maximal number of non-zero basis functions:      531 in task    11
  | Maximal number of non-zero basis functions:      526 in task    12
  | Maximal number of non-zero basis functions:      525 in task    13
  | Maximal number of non-zero basis functions:      538 in task    14
  | Maximal number of non-zero basis functions:      536 in task    15
  | Maximal number of non-zero basis functions:      548 in task    16
  | Maximal number of non-zero basis functions:      551 in task    17
  Integrating Hamiltonian matrix: batch-based integration.
  GPU acceleration will be used when integrating the Hamiltonian matrix.
  Reporting GPU memory usage by myid 0.  Note that it is likely not the only MPI task binding to its GPU!
  Allocating        2.385 MB on GPU for hamiltonian_shell
  Allocating        0.821 MB on GPU for wave
  Allocating        0.002 MB on GPU for partition
  Allocating        0.821 MB on GPU for h_times_psi
  Time summed over all CPUs for integration: real work       34.579 s, elapsed       35.608 s
  Deallocating memory used on GPU for Hamiltonian integration.
  Integrating overlap matrix.
  Time summed over all CPUs for integration: real work       25.048 s, elapsed       25.453 s
  Deallocating overlap matrix.

  Updating Kohn-Sham eigenvalues and eigenvectors using ELSI and the ELPA eigensolver.
  Singularity check in k-point 1 (analysis for other k-points may follow below):
  Overlap matrix is not singular
  | Lowest and highest eigenvalues :  0.7689E-03,  0.8222E+01
  Finished singularity check of overlap matrix
  | Time :     0.101 s
  Starting ELPA eigensolver
  Finished Cholesky decomposition
  | Time :     0.016 s
  Finished transformation to standard eigenproblem
  | Time :     0.021 s
  Finished solving standard eigenproblem
  | Time :     0.239 s
  Finished back-transformation of eigenvectors
  | Time :     0.017 s

  Obtaining occupation numbers and electronic chemical potential using ELSI.
  | Note that, for insulating systems, the printed 'chemical potential' value is not uniquely defined.
  | It can be anywhere in the energy gap, as long as it correctly separates occupied and unoccupied states.
  | In systems with a gap, the physically relevant chemical potential is the VBM or HOMO.

  | Chemical potential (Fermi level):    -7.57399922 eV
  Writing Kohn-Sham eigenvalues.
  K-point:       1 at    0.000000    0.000000    0.000000 (in units of recip. lattice)

  State    Occupation    Eigenvalue [Ha]    Eigenvalue [eV]
      1       2.00000         -10.071737         -274.06590
      2       2.00000         -10.070229         -274.02488
      3       2.00000         -10.069955         -274.01743
      4       2.00000         -10.069694         -274.01030
      5       2.00000         -10.069163         -273.99587
      6       2.00000         -10.068789         -273.98569
      7       2.00000         -10.068289         -273.97208
      8       2.00000         -10.067802         -273.95882
      9       2.00000         -10.067777         -273.95815
     10       2.00000         -10.067734         -273.95699
     11       2.00000         -10.067520         -273.95115
     12       2.00000         -10.067502         -273.95067
     13       2.00000         -10.067012         -273.93733
     14       2.00000         -10.066819         -273.93207
     15       2.00000         -10.066724         -273.92950
     16       2.00000         -10.066393         -273.92050
     17       2.00000         -10.066215         -273.91565
     18       2.00000         -10.065953         -273.90850
     19       2.00000         -10.065381         -273.89294
     20       2.00000         -10.065201         -273.88806
     21       2.00000         -10.064722         -273.87503
     22       2.00000         -10.064657         -273.87325
     23       2.00000         -10.064345         -273.86477
     24       2.00000         -10.064275         -273.86285
     25       2.00000         -10.064206         -273.86099
     26       2.00000         -10.064153         -273.85953
     27       2.00000         -10.064080         -273.85754
     28       2.00000         -10.063980         -273.85484
     29       2.00000         -10.063881         -273.85215
     30       2.00000         -10.063694         -273.84706
     31       2.00000         -10.063613         -273.84483
     32       2.00000         -10.063476         -273.84112
     33       2.00000         -10.063388         -273.83873
     34       2.00000         -10.063379         -273.83848
     35       2.00000         -10.063250         -273.83497
     36       2.00000         -10.063186         -273.83323
     37       2.00000         -10.062782         -273.82224
     38       2.00000         -10.062631         -273.81812
     39       2.00000         -10.062628         -273.81804
     40       2.00000         -10.062617         -273.81774
     41       2.00000         -10.062564         -273.81631
     42       2.00000         -10.062446         -273.81309
     43       2.00000         -10.062326         -273.80983
     44       2.00000         -10.061984         -273.80052
     45       2.00000         -10.061973         -273.80021
     46       2.00000         -10.061812         -273.79582
     47       2.00000         -10.061774         -273.79479
     48       2.00000         -10.061769         -273.79466
     49       2.00000         -10.061581         -273.78954
     50       2.00000         -10.061418         -273.78512
     51       2.00000         -10.061366         -273.78371
     52       2.00000         -10.061208         -273.77940
     53       2.00000         -10.061114         -273.77683
     54       2.00000         -10.060758         -273.76715
     55       2.00000         -10.060556         -273.76166
     56       2.00000         -10.060235         -273.75293
     57       2.00000         -10.059949         -273.74514
     58       2.00000         -10.059725         -273.73905
     59       2.00000         -10.059714         -273.73875
     60       2.00000         -10.059580         -273.73510
     61       2.00000         -10.059373         -273.72946
     62       2.00000         -10.059314         -273.72786
     63       2.00000         -10.059276         -273.72682
     64       2.00000         -10.058998         -273.71927
     65       2.00000         -10.058974         -273.71862
     66       2.00000         -10.058907         -273.71678
     67       2.00000         -10.058858         -273.71547
     68       2.00000         -10.058757         -273.71272
     69       2.00000         -10.058528         -273.70647
     70       2.00000         -10.058360         -273.70189
     71       2.00000         -10.058039         -273.69318
     72       2.00000         -10.057380         -273.67523
     73       2.00000         -10.057040         -273.66598
[...]
  |    H      0     4.527807 A      4.583499 A        4.713786E-16 a.u.
  |    H      2     3.678162 A  1.011968E+04 A            0.556529 a.u.
  |    H      1     3.958095 A  1.721251E+06 A            0.841931 a.u.
  |    H      0     4.527807 A  3.866455E+12 A            0.581436 a.u.
  |    C      0     2.562483 A      2.562483 A        6.563029E-17 a.u.
  |    C      0     2.967371 A      2.967371 A        1.352164E-16 a.u.
  |    C      0     3.003870 A      3.003870 A        2.312640E-17 a.u.
  |    C      1     3.272245 A      3.272245 A       -3.835259E-17 a.u.
  |    C      0     3.312494 A      3.312494 A       -2.710381E-16 a.u.
  |    C      3     4.077671 A      4.077671 A       -1.683752E-15 a.u.
  |    C      3     4.077671 A      4.077671 A        1.412852E-15 a.u.
  |    C      1     4.496620 A      4.496620 A       -3.011059E-16 a.u.
  |    C      0     4.496620 A      4.551928 A        2.873903E-17 a.u.
  |    C      2     4.551928 A      4.551928 A       -4.610785E-16 a.u.
  |    C      2     4.551928 A      4.551928 A        7.440584E-16 a.u.
  |    C      2     4.551928 A      4.551928 A       -7.110458E-16 a.u.
  |    C      2     4.551928 A      4.551928 A       -1.935424E-16 a.u.
  |    C      0     4.551928 A      4.607917 A        2.067142E-16 a.u.
  |    C      0     4.551928 A      4.607917 A       -1.109786E-16 a.u.
  |    C      1     4.551928 A      4.607917 A       -9.951742E-17 a.u.
  |    C      1     4.551928 A      4.607917 A        1.937809E-16 a.u.
  |    C      1     4.607917 A      4.607917 A       -2.813308E-16 a.u.
  |    C      1     4.607917 A      4.607917 A       -7.330363E-17 a.u.
  |    C      2     4.607917 A      4.607917 A        1.318462E-15 a.u.
  |    C      2     4.607917 A      4.607917 A       -1.318397E-15 a.u.
  |    C      0     4.607917 A      4.664595 A        3.157826E-16 a.u.
  |    C      1     4.607917 A      4.664595 A        7.356967E-16 a.u.
  |    C      4     3.835889 A  2.962973E+02 A            4.379483 a.u.
  |    C      3     4.127827 A  1.725964E+03 A            9.005588 a.u.
  |    C      2     4.607917 A  2.608475E+04 A            9.531178 a.u.
  |    C      1     4.607917 A  2.736013E+06 A            2.127278 a.u.
  |    C      0     4.607917 A  4.399765E+12 A            0.661635 a.u.

  | Shrink_full_auxil_basis : there are       36  radial auxiliary wave functions
                            accepted and       7 rejected.
  | Shrink_full_auxil_basis : there are totally                8992 partial auxiliary wave functions.
 
  | Maximal number of product basis functions per thread :   512   512
 
  | Minimal total memory requirement for three-center overlap :      72.476 Gbs
  | Number of local auxiliary basis functions on task:      0   512
  | Number of local auxiliary basis functions on task:      1   512
  | Number of local auxiliary basis functions on task:      2   512
  | Number of local auxiliary basis functions on task:      3   512
  | Number of local auxiliary basis functions on task:      4   496
  | Number of local auxiliary basis functions on task:      5   496
  | Number of local auxiliary basis functions on task:      6   496
  | Number of local auxiliary basis functions on task:      7   496
  | Number of local auxiliary basis functions on task:      8   496
  | Number of local auxiliary basis functions on task:      9   496
  | Number of local auxiliary basis functions on task:     10   496
  | Number of local auxiliary basis functions on task:     11   496
  | Number of local auxiliary basis functions on task:     12   496
  | Number of local auxiliary basis functions on task:     13   496
  | Number of local auxiliary basis functions on task:     14   496
  | Number of local auxiliary basis functions on task:     15   496
  | Number of local auxiliary basis functions on task:     16   496
  | Number of local auxiliary basis functions on task:     17   496
  | 2D aux task distribution:      3 X      6
  | 2D block size (nb_aux_2d):     64
 
  Basis pair condensation :   1037520  -->     541409
 
 --------------------------------------------
  Constructing auxiliary basis (full product) ...
 
  Product basis:
  | charge radius: extent of product basis function
  | field radius: extent of its Coulomb potential
  | Species   l  charge radius    field radius  multipol momen
  |    H      1     3.910002 A      3.910002 A       -2.487223E-16 a.u.
  |    H      1     3.958095 A      3.958095 A       -2.441841E-16 a.u.
  |    H      0     4.527807 A      4.527807 A        1.268855E-16 a.u.
  |    H      0     4.527807 A      4.583499 A       -4.900954E-17 a.u.
  |    H      0     4.527807 A      4.583499 A        4.713786E-16 a.u.
  |    H      2     3.678162 A  1.011968E+04 A            0.556529 a.u.
  |    H      1     3.958095 A  1.721251E+06 A            0.841931 a.u.
  |    H      0     4.527807 A  3.866455E+12 A            0.581436 a.u.
  |    C      0     2.562483 A      2.562483 A        6.563029E-17 a.u.
  |    C      0     2.967371 A      2.967371 A        1.352164E-16 a.u.
  |    C      0     3.003870 A      3.003870 A        2.312640E-17 a.u.
  |    C      1     3.272245 A      3.272245 A       -3.835259E-17 a.u.
  |    C      0     3.312494 A      3.312494 A       -2.710381E-16 a.u.
  |    C      3     4.077671 A      4.077671 A       -1.683752E-15 a.u.
  |    C      3     4.077671 A      4.077671 A        1.412852E-15 a.u.
  |    C      1     4.496620 A      4.496620 A       -3.011059E-16 a.u.
  |    C      0     4.496620 A      4.551928 A        2.873903E-17 a.u.
  |    C      2     4.551928 A      4.551928 A       -4.610785E-16 a.u.
  |    C      2     4.551928 A      4.551928 A        7.440584E-16 a.u.
  |    C      2     4.551928 A      4.551928 A       -7.110458E-16 a.u.
  |    C      2     4.551928 A      4.551928 A       -1.935424E-16 a.u.
  |    C      0     4.551928 A      4.607917 A        2.067142E-16 a.u.
  |    C      0     4.551928 A      4.607917 A       -1.109786E-16 a.u.
  |    C      1     4.551928 A      4.607917 A       -9.951742E-17 a.u.
  |    C      1     4.551928 A      4.607917 A        1.937809E-16 a.u.
  |    C      1     4.607917 A      4.607917 A       -2.813308E-16 a.u.
  |    C      1     4.607917 A      4.607917 A       -7.330363E-17 a.u.
  |    C      2     4.607917 A      4.607917 A        1.318462E-15 a.u.
  |    C      2     4.607917 A      4.607917 A       -1.318397E-15 a.u.
  |    C      0     4.607917 A      4.664595 A        3.157826E-16 a.u.
  |    C      1     4.607917 A      4.664595 A        7.356967E-16 a.u.
  |    C      4     3.835889 A  2.962973E+02 A            4.379483 a.u.
  |    C      3     4.127827 A  1.725964E+03 A            9.005588 a.u.
  |    C      2     4.607917 A  2.608475E+04 A            9.531178 a.u.
  |    C      1     4.607917 A  2.736013E+06 A            2.127278 a.u.
  |    C      0     4.607917 A  4.399765E+12 A            0.661635 a.u.

  | Shrink_full_auxil_basis : there are       36  radial auxiliary wave functions
                            accepted and       7 rejected.
  | Shrink_full_auxil_basis : there are totally                8992 partial auxiliary wave functions.
 
  | Maximal number of product basis functions per thread :   512   512
 
  | Minimal total memory requirement for three-center overlap :      72.476 Gbs
  | Number of local auxiliary basis functions on task:      0   512
  | Number of local auxiliary basis functions on task:      1   512
  | Number of local auxiliary basis functions on task:      2   512
  | Number of local auxiliary basis functions on task:      3   512
  | Number of local auxiliary basis functions on task:      4   496
  | Number of local auxiliary basis functions on task:      5   496
  | Number of local auxiliary basis functions on task:      6   496
  | Number of local auxiliary basis functions on task:      7   496
  | Number of local auxiliary basis functions on task:      8   496
  | Number of local auxiliary basis functions on task:      9   496
  | Number of local auxiliary basis functions on task:     10   496
  | Number of local auxiliary basis functions on task:     11   496
  | Number of local auxiliary basis functions on task:     12   496
  | Number of local auxiliary basis functions on task:     13   496
  | Number of local auxiliary basis functions on task:     14   496
  | Number of local auxiliary basis functions on task:     15   496
  | Number of local auxiliary basis functions on task:     16   496
  | Number of local auxiliary basis functions on task:     17   496
  | 2D aux task distribution:      3 X      6
  | 2D block size (nb_aux_2d):     64
 
  Basis pair condensation :   1037520  -->     541409
  Allocating        0.069 MB for t_coeff
  Allocating        0.034 MB for basbas_idx
  Allocating        0.069 MB for wave
  Allocating        0.069 MB for total_wave
  Allocating        0.206 MB for wave_gradient
  Allocating        0.206 MB for total_wave_grad
 HERE1
 HERE2
  Deallocating        0.069 MB for t_coeff
  Deallocating        0.034 MB for basbas_idx
  Deallocating        0.069 MB for wave
  Deallocating        0.206 MB for wave_gradient
  Deallocating        0.206 MB for total_wave_grad
dP_dE (Bohr^3) at every cycle:--->
 (1009.65431550252,0.000000000000000E+000) (11.0527527294766,0.000000000000000E+000) (-458.046681881036,0.000000000000000E+000)
 (11.0716982377527,0.000000000000000E+000) (1367.86100744692,0.000000000000000E+000) (-3.88048187344420,0.000000000000000E+000)
 (-458.216608378811,0.000000000000000E+000) (-3.88763840053183,0.000000000000000E+000) (1670.69320269479,0.000000000000000E+000)
DFPT polarizability (Bohr^3)        xx        yy        zz        xy        xz        yz
  | Polarizability:--->                      1009.654315503                 1367.861007447                 1670.693202695                   11.052752729                 -458.046681881                   -3.880481873

DFPT for dielectric_constant:--->  # PARSE DFPT_dielectric_tensor
               2.370079369772575             0.014998349693891            -0.621559576978229
               0.015024058344506             2.856158210037063            -0.005265731129903
              -0.621790163611103            -0.005275442384509             3.267095039446391

                                               :  max(cpu_time)    wall_clock(cpu1)
  | Time for  dielectric calculation            :        0.000 s           0.001 s
===========================================================================

------------------------------------------------------------------------------
  Final output of selected total energy values:

  The following output summarizes some interesting total energy values
  at the end of a run (AFTER all relaxation, molecular dynamics, etc.).

  | Total energy of the DFT / Hartree-Fock s.c.f. calculation      :         -83267.577381605 eV
  | Final zero-broadening corrected energy (caution - metals only) :         -83267.577381605 eV
  | For reference only, the value of 1 Hartree used in FHI-aims is :             27.211384500 eV
  | For reference only, the overall average (free atom contribution
  | + realspace contribution) of the electrostatic potential after
  | s.c.f. convergence is                                          :             -7.704529844 eV

  Before relying on these values, please be sure to understand exactly which
  total energy value is referred to by a given number. Different objects may
  all carry the same name 'total energy'. Definitions:

  Total energy of the DFT / Hartree-Fock s.c.f. calculation:
  | Note that this energy does not include ANY quantities calculated after the
  | s.c.f. cycle, in particular not ANY RPA, MP2, etc. many-body perturbation terms.

  Final zero-broadening corrected energy:
  | For metallic systems only, a broadening of the occupation numbers at the Fermi
  | level can be extrapolated back to zero broadening by an electron-gas inspired
  | formula. For all systems that are not real metals, this value can be
  | meaningless and should be avoided.

------------------------------------------------------------------------------
  Methods described in the following list of references were used in this FHI-aims run.
  If you publish the results, please make sure to cite these reference if they apply.
  FHI-aims is an academic code, and for our developers (often, Ph.D. students
  and postdocs), scientific credit in the community is essential.
  Thank you for helping us!

  For any use of FHI-aims, please cite:

    Volker Blum, Ralf Gehrke, Felix Hanke, Paula Havu, Ville Havu,
    Xinguo Ren, Karsten Reuter, and Matthias Scheffler
    'Ab initio molecular simulations with numeric atom-centered orbitals'
    Computer Physics Communications 180, 2175-2196 (2009)
    http://doi.org/10.1016/j.cpc.2009.06.022


  For Hartree-Fock, hybrid functionals, or many-body perturbation theory used in your run, please cite:

    Xinguo Ren, Patrick Rinke, Volker Blum, Juergen Wieferink, Alex Tkatchenko,
    Andrea Sanfilippo, Karsten Reuter, and Matthias Scheffler,
    'Resolution-of-identity approach to Hartree-Fock, hybrid density functionals,
    RPA, MP2, and GW with numeric atom-centered orbital basis functions'
    New Journal of Physics 14, 053020 (2012).
    http://doi.org/10.1088/1367-2630/14/5/053020


  The provided symmetry information was generated with SPGlib:

    Atsushi Togo, Yusuke Seto, Dimitar Pashov
    SPGlib 1.7.3 obtained from http://spglib.sourceforge.net
    Copyright (C) 2008 Atsushi Togo


  The DFPT (perturbation by an electric field) part of the code was used.
  Here is the corresponding reference:

    Honghui Shang, Nathaniel Raimbault, Mariana Rossi,
    Christian Carbogno, Patrick Rinke and Matthias Scheffler,
    'All-Electron, Real-Space Perturbation Theory for Homogeneous
    Electric Fields: Theory, Implementation, and Application within dft'
    New Journal of Physics, 20(7):073040, 2018


  The ELSI infrastructure was used in your run to solve the Kohn-Sham electronic structure.
  Please check out http://elsi-interchange.org to learn more.
  If scalability is important for your project, please acknowledge ELSI by citing:

    V. W-z. Yu, F. Corsetti, A. Garcia, W. P. Huhn, M. Jacquelin, W. Jia,
    B. Lange, L. Lin, J. Lu, W. Mi, A. Seifitokaldani, A. Vazquez-Mayagoitia,
    C. Yang, H. Yang, and V. Blum
    'ELSI: A unified software interface for Kohn-Sham electronic structure solvers'
    Computer Physics Communications 222, 267-285 (2018).
    http://doi.org/10.1016/j.cpc.2017.09.007


  For the real-space grid partitioning and parallelization used in this calculation, please cite:

    Ville Havu, Volker Blum, Paula Havu, and Matthias Scheffler,
    'Efficient O(N) integration for all-electron electronic structure calculation'
    'using numerically tabulated basis functions'
    Journal of Computational Physics 228, 8367-8379 (2009).
    http://doi.org/10.1016/j.jcp.2009.08.008


  The high-level electronic structure method used in your calculation
  employed our efficient localized resolution of identity for the Coulomb operator.
  Some calculations, especially large-scale hybrid density functional theory,
  are only possible thanks to this development. For this feature, please cite:

    Arvid Ihrig, Juergen Wieferink, Igor Ying Zhang, Matti Ropo, Xinguo Ren,
    Patrick Rinke, Matthias Scheffler, and Volker Blum,
    'Accurate localized resolution of identity approach for linear-scaling
    hybrid density functionals and for many-body perturbation theory'
    New Journal of Physics 117, 093020 (2015).
    http://doi.org/10.1088/1367-2630/17/9/093020

  Of course, there are many other important community references, e.g., those cited in the
  above references. Our list is limited to references that describe implementations in the
  FHI-aims code. The reason is purely practical (length of this list) - please credit others as well.

------------------------------------------------------------
          Leaving FHI-aims.
          Date     :  20230119, Time     :  170650.165

          Computational steps:
          | Number of self-consistency cycles          :           48
          | Number of SCF (re)initializations          :            1
          | Number of coupled perturbed self-consistency cycles          :            0
          | Number of CPSCF (re)initializations          :            0

          Detailed time accounting                     :  max(cpu_time)    wall_clock(cpu1)
          | Total time                                  :     1631.168 s        1663.587 s
          | GPU initialization                          :        3.206 s          34.464 s
          | Preparation time                            :        0.078 s           0.073 s
          | Boundary condition initalization            :        0.967 s           0.968 s
          | Grid partitioning                           :        1.249 s           1.249 s
          | Preloading free-atom quantities on grid     :        4.278 s           4.280 s
          | Free-atom superposition energy              :        0.493 s           0.493 s
          | Total time for integrations                 :       22.708 s          22.832 s
          | Product basis setup: Total time             :        0.000 s           0.000 s
          | Product basis: | 2-center integrations     :(       0.000 s)  (       0.000 s)
          | Product basis: | LVL 3-center & coefficient:(       0.000 s)  (       0.000 s)
          | Total time for solution of K.-S. equations  :        3.985 s           3.988 s
          | Total time for density update               :       17.473 s          17.665 s
          | Total time for mixing & preconditioning     :       12.890 s          12.894 s
          | Total time for Hartree multipole update     :        0.103 s           0.104 s
          | Total time for Hartree multipole sum        :       47.743 s          47.762 s
          | Total time for total energy evaluation      :        0.008 s           0.003 s
          | Total time first_order_DM                   :        1.983 s           1.974 s
          | Total time first_order_density              :      320.986 s         321.072 s
          | Total time first_order_potential            :      124.920 s         124.960 s
          | Total time first_order_H                    :      613.007 s         613.213 s
          | Total time solving of Sternheimer equations :        1.930 s           1.930 s
          | Total time for dielectric constant          :        0.000 s           0.001 s
          | Total time momentum matrix                  :        0.000 s           0.000 s

          GPU acceleration has been used for charge density update.
          GPU acceleration has been used for real-space Hamiltonian integration.
          Due to GPU usage, wall_clock(cpu1) will give a more reliable estimate for timings.

          Partial memory accounting:
          | Residual value for overall tracked memory usage across tasks:     1.234863 MB (should be 0.000000 MB)
          |
          | Largest tracked array allocation:
          |   Minimum:      103.181 MB (DFPT_pulay_mixing::initialize_pulay_mixing::X_in_diffs on task  0)
          |   Maximum:      103.181 MB (DFPT_pulay_mixing::initialize_pulay_mixing::X_in_diffs on task  0)
          |   Average:      103.181 MB
          |
          | Because the residual tracked memory usage was not zero, the peak value for overall
          | tracked memory usage was not output, as it is probably incorrect.  This is likely due
          | to a missing aims_deallocate statement in the source code, which should be otherwise
          | harmless.
          |
          Note:  These values currently only include a subset of arrays which are explicitly tracked.
          The "true" memory usage will be greater.

          Have a nice day.
------------------------------------------------------------
