------------------------------------------------------------
          Invoking FHI-aims ...

          When using FHI-aims, please cite the following reference:

            Volker Blum, Ralf Gehrke, Felix Hanke, Paula Havu,
            Ville Havu, Xinguo Ren, Karsten Reuter, and Matthias Scheffler,
            'Ab Initio Molecular Simulations with Numeric Atom-Centered Orbitals',
            Computer Physics Communications 180, 2175-2196 (2009)

          In addition, many other developments in FHI-aims are likely important for
          your particular application. A partial list of references is given at the end of
          this file. Thank you for giving credit to the authors of these developments.

          For any questions about FHI-aims, please visit our slack channel at

            https://fhi-aims.slack.com

          and our main development and support site at

            https://aims-git.rz-berlin.mpg.de .

          The latter site, in particular, has a wiki to collect information, as well
          as an issue tracker to log discussions, suggest improvements, and report issues
          or bugs. https://aims-git.rz-berlin.mpg.de is also the main development site
          of the project and all new and updated code versions can be obtained there.
          Please send an email to aims-coordinators@fhi-berlin.mpg.de and we will add
          you to these sites. They are for you and everyone is welcome there.

------------------------------------------------------------



  Date     :  20230120, Time     :  164830.855
  Time zero on CPU 1             :   0.407676000000000E+00  s.
  Internal wall clock time zero  :           443465310.855  s.

  FHI-aims created a unique identifier for this run for later identification
  aims_uuid : B026A95F-499E-43EC-A09B-6F781D2DF5F6

  Build configuration of the current instance of FHI-aims
  -------------------------------------------------------
  FHI-aims version      : 220829
  Commit number         : 9895fc21d
  CMake host system     : Linux-5.3.18-150300.59.68-default
  CMake version         : 3.17.0
  Fortran compiler      : /mpcdf/soft/SLE_15/packages/x86_64/intel_oneapi/2021.3/mpi/2021.3.0/bin/mpiifort (Intel) version 20.2.3.20210609
  Fortran compiler flags: -O3 -ip -fp-model precise
  C compiler            : /mpcdf/soft/SLE_15/packages/x86_64/intel/2021.3.0/bin/icc (Intel) version 20.2.3.20210609
  C compiler flags      : -O3 -ip -fp-model precise -std=gnu99
  CUDA compiler         : /mpcdf/soft/SLE_15/packages/x86_64/cuda/11.6.2/bin/nvcc
  CUDA compiler flags   : -O3 -DAdd_ -lcublas
  ELPA2 kernel          : AVX512
  Using MPI
  Using ScaLAPACK
  Using LibXC
  Using CUDA
  Using i-PI
  Using RLSY
  Linking against: /mpcdf/soft/SLE_15/packages/x86_64/cuda/11.6.2/lib64/libcublas.so
                   /mpcdf/soft/SLE_15/packages/x86_64/cuda/11.6.2/lib64/libcudart.so
                   /mpcdf/soft/SLE_15/packages/x86_64/intel_oneapi/2021.3/mkl/latest/lib/intel64/libmkl_intel_lp64.so
                   /mpcdf/soft/SLE_15/packages/x86_64/intel_oneapi/2021.3/mkl/latest/lib/intel64/libmkl_sequential.so
                   /mpcdf/soft/SLE_15/packages/x86_64/intel_oneapi/2021.3/mkl/latest/lib/intel64/libmkl_core.so
                   /mpcdf/soft/SLE_15/packages/x86_64/intel_oneapi/2021.3/mkl/latest/lib/intel64/libmkl_blacs_intelmpi_lp64.so
                   /mpcdf/soft/SLE_15/packages/x86_64/intel_oneapi/2021.3/mkl/latest/lib/intel64/libmkl_scalapack_lp64.so

  Using       18 parallel tasks.
  Task        0 on host adag006 reporting.
  Task        1 on host adag006 reporting.
  Task        2 on host adag006 reporting.
  Task        3 on host adag006 reporting.
  Task        4 on host adag006 reporting.
  Task        5 on host adag006 reporting.
  Task        6 on host adag006 reporting.
  Task        7 on host adag006 reporting.
  Task        8 on host adag006 reporting.
  Task        9 on host adag006 reporting.
  Task       10 on host adag006 reporting.
  Task       11 on host adag006 reporting.
  Task       12 on host adag006 reporting.
  Task       13 on host adag006 reporting.
  Task       14 on host adag006 reporting.
  Task       15 on host adag006 reporting.
  Task       16 on host adag006 reporting.
  Task       17 on host adag006 reporting.

  Performing system and environment tests:
  | Environment variable OMP_NUM_THREADS correctly set to 1.
  | Checking for ScaLAPACK...
  | Testing pdtran()...
  | All pdtran() tests passed.

  Obtaining array dimensions for all initial allocations:
  
  -----------------------------------------------------------------------
  Parsing control.in (first pass over file, find array dimensions only).
  The contents of control.in will be repeated verbatim below
  unless switched off by setting 'verbatim_writeout .false.' .
  in the first line of control.in .
  -----------------------------------------------------------------------
  
  #
  # Input for polarizability replays on generic oligoacene molecular crystals (light settings,  LDA+MBD).
  #
  #########################################################################################
  #
  #  Physical model
  #
    xc                 pw-lda
    spin               none
    relativistic       none
    charge             0.0
    k_grid 	     2 1 1
    DFPT dielectric
  #
  #  GPU acceleration
  #
  # Turns on GPU acceleration everywhere
    use_gpu
  
  # Turns OFF GPU acceleration of ELPA - may be necessary if GPU ELPA is slow
    elsi_elpa_gpu 0
  #
  #  Relaxation
  #
  #  relax_geometry trm 1E-3
  #  relax_unit_cell fixed_angles
  #
  #  SCF convergence        #
    charge_mix_param   0.75
    #sc_accuracy_rho 1E-4
  #
  # i-PI communication
  #
  compute_forces .false.
  # use_pimd_wrapper 130.183.223.27 26118
  #communicate_pimd_wrapper polarizability
  #output_level MD_light
  #
  # Output SALTED info
    ri_density_restart write
    ri_rho1 write
    ri_full_output .true.
  #  sc_accuracy_rho    1d-6
    default_prodbas_acc 1e-6
    default_max_l_prodbas 6
  #
  #
  ################################################################################
  #
  #  FHI-aims code project
  #  VB, Fritz-Haber Institut, 2009
  #
  #  Suggested "light" defaults for H atom (to be pasted into control.in file)
  #  Be sure to double-check any results obtained with these settings for post-processing,
  #  e.g., with the "tight" defaults and larger basis sets.
  #
  ################################################################################
    species        H
  #     global species definitions
      nucleus             1
      mass                1.00794
  #
      l_hartree           4
  #
      cut_pot             3.5  1.5  1.0
      basis_dep_cutoff    1e-4
  #
      radial_base         24 5.0
      radial_multiplier   1
      angular_grids       specified
        division   0.2421   50
        division   0.3822  110
        division   0.4799  194
        division   0.5341  302
  #      division   0.5626  434
  #      division   0.5922  590
  #      division   0.6542  770
  #      division   0.6868 1202
  #      outer_grid  770
        outer_grid  302
  ################################################################################
  #
  #  Definition of "minimal" basis
  #
  ################################################################################
  #     valence basis states
      valence      1  s   1.
  #     ion occupancy
      ion_occ      1  s   0.5
  ################################################################################
  #
  #  Suggested additional basis functions. For production calculations,
  #  uncomment them one after another (the most important basis functions are
  #  listed first).
  #
  #  Basis constructed for dimers: 0.5 A, 0.7 A, 1.0 A, 1.5 A, 2.5 A
  #
  ################################################################################
  #  "First tier" - improvements: -1014.90 meV to -62.69 meV
       hydro 2 s 2.1
       hydro 2 p 3.5
  #  "Second tier" - improvements: -12.89 meV to -1.83 meV
  #     hydro 1 s 0.85
  #     hydro 2 p 3.7
  #     hydro 2 s 1.2
  #     hydro 3 d 7
  #  "Third tier" - improvements: -0.25 meV to -0.12 meV
  #     hydro 4 f 11.2
  #     hydro 3 p 4.8
  #     hydro 4 d 9
  #     hydro 3 s 3.2
  ################################################################################
  ################################################################################
  #
  #  FHI-aims code project
  #  VB, Fritz-Haber Institut, 2009
  #
  #  Suggested "light" defaults for C atom (to be pasted into control.in file)
  #  Be sure to double-check any results obtained with these settings for post-processing,
  #  e.g., with the "tight" defaults and larger basis sets.
  #
  ################################################################################
    species        C
  #     global species definitions
      nucleus             6
      mass                12.0107
  #
      l_hartree           4
  #
      cut_pot             3.5  1.5  1.0
      basis_dep_cutoff    1e-4
  #
      radial_base         34 5.0
      radial_multiplier   1
      angular_grids specified
        division   0.3326   50
        division   0.5710  110
        division   0.7727  194
        division   0.8772  302
  #      division   0.9334  434
  #      division   0.9625  590
  #      division   0.9924  770
  #      division   1.0230  974
  #      division   1.4589 1202
  #     outer_grid  974
       outer_grid 302
  ################################################################################
  #
  #  Definition of "minimal" basis
  #
  ################################################################################
  #     valence basis states
      valence      2  s   2.
      valence      2  p   2.
  #     ion occupancy
      ion_occ      2  s   1.
      ion_occ      2  p   1.
  ################################################################################
  #
  #  Suggested additional basis functions. For production calculations,
  #  uncomment them one after another (the most important basis functions are
  #  listed first).
  #
  #  Constructed for dimers: 1.0 A, 1.25 A, 1.5 A, 2.0 A, 3.0 A
  #
  ################################################################################
  #  "First tier" - improvements: -1214.57 meV to -155.61 meV
       hydro 2 p 1.7
       hydro 3 d 6
       hydro 2 s 4.9
  #  "Second tier" - improvements: -67.75 meV to -5.23 meV
  #     hydro 4 f 9.8
  #     hydro 3 p 5.2
  #     hydro 3 s 4.3
  #     hydro 5 g 14.4
  #     hydro 3 d 6.2
  #  "Third tier" - improvements: -2.43 meV to -0.60 meV
  #     hydro 2 p 5.6
  #     hydro 2 s 1.4
  #     hydro 3 d 4.9
  #     hydro 4 f 11.2
  #  "Fourth tier" - improvements: -0.39 meV to -0.18 meV
  #     hydro 2 p 2.1
  #     hydro 5 g 16.4
  #     hydro 4 d 13.2
  #     hydro 3 s 13.6
  #     hydro 4 f 17.6
  #  Further basis functions - improvements: -0.08 meV and below
  #     hydro 3 s 2
  #     hydro 3 p 6
  #     hydro 4 d 20
  
  -----------------------------------------------------------------------
  Completed first pass over input file control.in .
  -----------------------------------------------------------------------
  
  
  -----------------------------------------------------------------------
  Parsing geometry.in (first pass over file, find array dimensions only).
  The contents of geometry.in will be repeated verbatim below
  unless switched off by setting 'verbatim_writeout .false.' .
  in the first line of geometry.in .
  -----------------------------------------------------------------------
  
  #=======================================================
  # FHI-aims file: /ada/ptmp/mpsd/alewis/naphthalene/qmdata/data/geoms/329.in
  # Created using the Atomic Simulation Environment (ASE)
  # Thu Jan 19 15:19:17 2023
  #=======================================================
  lattice_vector 8.1020000000000003 0.0000000000000000 0.0000000000000000
  lattice_vector 0.0000000000000000 11.8800000000000008 0.0000000000000000
  lattice_vector -9.7850918486534706 0.0000000000000000 14.2571119625755713
  atom -0.7010390000000000 0.1122110000000000 2.3462700000000001 C
  atom 0.2364240000000000 3.2915500000000000 4.7906899999999997 C
  atom 4.0728099999999996 5.6926800000000002 4.7382099999999996 C
  atom 3.1475399999999998 2.8504200000000002 2.4712000000000001 C
  atom 0.0340816000000000 1.0000599999999999 1.5475900000000000 C
  atom -0.5397740000000000 4.1097099999999998 5.6091499999999996 C
  atom 3.3426399999999998 4.8811000000000000 5.6082500000000000 C
  atom 3.8609000000000000 1.9579200000000001 1.7001500000000001 C
  atom 0.3552360000000000 0.6644090000000000 0.2346380000000000 C
  atom -0.8945390000000000 3.7148599999999998 6.9309200000000004 C
  atom 3.0104199999999999 5.2945799999999998 6.9109400000000001 C
  atom 4.2214200000000002 2.2763000000000000 0.3507190000000000 C
  atom -3.8014000000000001 1.5486599999999999 6.7580700000000000 C
  atom 3.0340500000000001 4.4092799999999999 0.6231610000000000 C
  atom 7.1543400000000004 4.3681799999999997 0.5758330000000000 C
  atom 0.3311840000000000 1.6409600000000000 6.5652900000000001 C
  atom -3.4598599999999999 1.2327100000000000 5.4407600000000000 C
  atom 2.7175300000000000 4.0942999999999996 1.9282100000000000 C
  atom 6.7482499999999996 4.7612500000000004 1.8492000000000000 C
  atom 0.6995970000000000 2.0445099999999998 5.2766599999999997 C
  atom -0.8120220000000000 0.3961100000000000 3.3994800000000001 H
  atom 0.4946650000000000 3.6168300000000002 3.7722899999999999 H
  atom 4.2848199999999999 5.2902399999999998 3.7572899999999998 H
  atom 2.8670800000000001 2.6462500000000002 3.5093500000000000 H
  atom 0.4177540000000000 1.9183600000000001 1.9766600000000001 H
  atom -0.8383370000000000 5.1290100000000001 5.3047300000000002 H
  atom 2.9749200000000000 3.9112900000000002 5.2343099999999998 H
  atom 4.1327499999999997 1.0139000000000000 2.1426900000000000 H
  atom -3.4921799999999998 2.4947400000000002 7.1704600000000003 H
  atom 2.6429299999999998 5.3479400000000004 0.2389430000000000 H
  atom 6.7835700000000001 3.4004599999999998 0.1450840000000000 H
  atom 0.6501749999999999 0.6678710000000000 6.9466000000000001 H
  atom -2.8490099999999998 1.9129600000000000 4.8767800000000001 H
  atom 2.1086200000000002 4.7964799999999999 2.5243699999999998 H
  atom 6.0788300000000000 4.1075999999999997 2.4747900000000000 H
  atom 1.3342200000000000 1.3810000000000000 4.6715700000000000 H
  atom -5.7158199999999999 0.1370810000000000 9.6376100000000005 C
  atom -4.7841199999999997 3.0465000000000000 11.9833999999999996 C
  atom -0.7440180000000000 5.8482399999999997 11.9452999999999996 C
  atom -1.6236100000000000 2.8856400000000000 9.4602100000000000 C
  atom -4.9394000000000000 0.9719920000000000 8.8917699999999993 C
  atom -5.4889299999999999 3.9326099999999999 12.7674000000000003 C
  atom -1.5027600000000001 4.9664400000000004 12.6973000000000003 C
  atom -0.8717260000000000 2.0326200000000001 8.7006999999999994 C
  atom -4.5644700000000000 0.6647590000000000 7.5323700000000002 C
  atom -5.9971600000000000 3.5466099999999998 14.0528999999999993 C
  atom -1.8631000000000000 5.2344200000000001 14.0335000000000001 C
  atom -0.4625530000000000 2.4579700000000000 7.3989700000000003 C
  atom -8.6705299999999994 1.4850200000000000 13.6126000000000005 C
  atom -1.6745000000000001 4.5851899999999999 7.7613399999999997 C
  atom 2.3026900000000001 4.5189599999999999 7.8419400000000001 C
  atom -4.7842700000000002 1.3857200000000001 13.7797999999999998 C
  atom -8.4549400000000006 1.1023600000000000 12.3226999999999993 C
  atom -1.9981700000000000 4.1610199999999997 9.0038000000000000 C
  atom 1.9900199999999999 4.9798200000000001 9.1059900000000003 C
  atom -4.3767100000000001 1.7869699999999999 12.5243000000000002 C
  atom -6.0175299999999998 0.4046300000000000 10.6428999999999991 H
  atom -4.4509400000000001 3.3099099999999999 10.9564000000000004 H
  atom -0.4389780000000000 5.6013900000000003 10.9296000000000006 H
  atom -1.9081100000000000 2.5501900000000002 10.4451000000000001 H
  atom -4.6221800000000002 1.9564999999999999 9.2436100000000003 H
  atom -5.7914500000000002 4.9218400000000004 12.3841999999999999 H
  atom -1.7510399999999999 3.9963700000000002 12.2426999999999992 H
  atom -0.6290559999999999 1.0425199999999999 9.0868800000000007 H
  atom -8.3222199999999997 2.4309200000000000 13.9896999999999991 H
  atom -1.9327500000000000 5.5542699999999998 7.3634300000000001 H
  atom 2.0160800000000001 3.5046100000000000 7.5558800000000002 H
  atom -4.5300599999999998 0.3885000000000000 14.1539999999999999 H
  atom -7.8582799999999997 1.7341700000000000 11.6567000000000007 H
  atom -2.5885500000000001 4.7944000000000004 9.6812500000000004 H
  atom 1.4521900000000001 4.3315900000000003 9.7693200000000004 H
  atom -3.7701300000000000 1.0987499999999999 11.9442000000000004 H
  atom -0.9263650000000000 6.0201599999999997 2.3987699999999998 C
  atom 0.3487400000000000 9.0407700000000002 4.9246600000000003 C
  atom 4.3135800000000000 11.8194999999999997 4.9057800000000000 C
  atom 3.3784399999999999 8.8406300000000009 2.4863599999999999 C
  atom -0.0859091000000000 6.8323200000000002 1.6690700000000001 C
  atom -0.3804080000000000 9.8661899999999996 5.7345199999999998 C
  atom 3.4935299999999998 10.9674999999999994 5.6699400000000004 C
  atom 4.0740900000000000 7.9601699999999997 1.6555000000000000 C
  atom 0.2406290000000000 6.5107299999999997 0.3259650000000000 C
  atom -0.8499960000000000 9.4823400000000007 7.0075200000000004 C
  atom 3.1432899999999999 11.2813999999999997 6.9813099999999997 C
  atom 4.3582999999999998 8.2495499999999993 0.3053010000000000 C
  atom -3.8744700000000001 7.4141199999999996 6.4568500000000002 C
  atom 3.1932700000000001 10.3605999999999998 0.6062880000000000 C
  atom 7.2565799999999996 10.4099000000000004 0.5861650000000000 C
  atom 0.3310560000000000 7.3392200000000001 6.6414799999999996 C
  atom -3.5706000000000002 6.9644300000000001 5.1750800000000003 C
  atom 2.9242300000000001 10.0653000000000006 1.9143100000000000 C
  atom 6.9970100000000004 10.7477999999999998 1.8793500000000001 C
  atom 0.7202030000000000 7.7466200000000001 5.3631200000000003 C
  atom -1.1926699999999999 6.2803599999999999 3.4361799999999998 H
  atom 0.7239980000000000 9.4428800000000006 4.0083599999999997 H
  atom 4.6780200000000001 11.5932999999999993 3.8868499999999999 H
  atom 3.2174399999999999 8.5736500000000007 3.5435800000000000 H
  atom 0.2862810000000000 7.7451100000000004 2.0796299999999999 H
  atom -0.5969820000000000 10.8767999999999994 5.4051700000000000 H
  atom 3.1703500000000000 10.0173000000000005 5.2498300000000002 H
  atom 4.4121899999999998 7.0329100000000002 2.0950899999999999 H
  atom -3.5522600000000000 8.4129000000000005 6.7447499999999998 H
  atom 2.8631099999999998 11.2853999999999992 0.1371150000000000 H
  atom 6.8566599999999998 9.4756000000000000 0.2206180000000000 H
  atom 0.6651400000000000 6.3729699999999996 7.0170000000000003 H
  atom -3.0077099999999999 7.6470399999999996 4.5159500000000001 H
  atom 2.3232499999999998 10.7462999999999997 2.5070399999999999 H
  atom 6.4306000000000001 10.0501000000000005 2.5329999999999999 H
  atom 1.3772300000000000 7.1506699999999999 4.7591000000000001 H
  atom -5.7172900000000002 6.2589199999999998 9.4970700000000008 C
  atom -4.7011599999999998 8.9625100000000000 11.9391999999999996 C
  atom -0.8079550000000000 11.7591999999999999 11.8027999999999995 C
  atom -1.6175100000000000 8.6155500000000007 9.5710800000000003 C
  atom -4.9840099999999996 7.0337699999999996 8.6332000000000004 C
  atom -5.4450700000000003 9.8434500000000007 12.6995000000000005 C
  atom -1.5221199999999999 10.9389000000000003 12.6423000000000005 C
  atom -0.8552160000000000 7.7801700000000000 8.7861399999999996 C
  atom -4.6220999999999997 6.5892400000000002 7.3562700000000003 C
  atom -5.8432800000000000 9.4935399999999994 14.0212000000000003 C
  atom -1.7865000000000000 11.2763000000000009 13.9731000000000005 C
  atom -0.4422700000000000 8.1747700000000005 7.5056000000000003 C
  atom -8.8120999999999992 7.4099199999999996 13.7926000000000002 C
  atom -1.6342800000000000 10.3132999999999999 7.8329000000000004 C
  atom 2.3483600000000000 10.4308999999999994 7.7658800000000001 C
  atom -4.6915300000000002 7.3467300000000000 13.7690999999999999 C
  atom -8.4775700000000001 7.1059700000000001 12.4777000000000005 C
  atom -2.0207500000000000 9.8811800000000005 9.0966900000000006 C
  atom 1.9968600000000001 10.7655999999999992 9.0562400000000007 C
  atom -4.3233899999999998 7.6744399999999997 12.4850999999999992 C
  atom -5.9168399999999997 6.6275899999999996 10.5167000000000002 H
  atom -4.4011800000000001 9.2530300000000008 10.9273000000000007 H
  atom -0.6111350000000000 11.3750999999999998 10.7760999999999996 H
  atom -1.9318599999999999 8.2993500000000004 10.5821000000000005 H
  atom -4.6675899999999997 8.0042100000000005 8.9747900000000005 H
  atom -5.7573400000000001 10.8202999999999996 12.2842000000000002 H
  atom -1.8239900000000000 9.9432399999999994 12.2754999999999992 H
  atom -0.5913440000000000 6.8070500000000003 9.1396899999999999 H
  atom -8.5865299999999998 8.4080600000000008 14.2211999999999996 H
  atom -1.9094599999999999 11.3023000000000007 7.4725700000000002 H
  atom 2.0825399999999998 9.4577200000000001 7.3572499999999996 H
  atom -4.4510300000000003 6.3850699999999998 14.1858000000000004 H
  atom -7.9416000000000002 7.8091200000000001 11.8467000000000002 H
  atom -2.6132000000000000 10.5226000000000006 9.7509300000000003 H
  atom 1.3938299999999999 10.0838000000000001 9.6189099999999996 H
  atom -3.7662300000000002 6.8993599999999997 11.9390000000000001 H
  
  -----------------------------------------------------------------------
  Completed first pass over input file geometry.in .
  -----------------------------------------------------------------------
  

  Basic array size parameters:
  | Number of species                 :        2
  | Number of atoms                   :      144
  | Number of lattice vectors         :        3
  | Max. basis fn. angular momentum   :        2
  | Max. atomic/ionic basis occupied n:        2
  | Max. number of basis fn. types    :        2
  | Max. radial fns per species/type  :        3
  | Max. logarithmic grid size        :     1277
  | Max. radial integration grid size :       34
  | Max. angular integration grid size:      302
  | Max. angular grid division number :        8
  | Radial grid for Hartree potential :     1277
  | Number of spin channels           :        1

------------------------------------------------------------
          Reading file control.in.
------------------------------------------------------------
  XC: Using Perdew-Wang parametrisation of Ceperley-Alder LDA.
  Spin treatment: No spin polarisation.
  Non-relativistic treatment of kinetic energy.
  Charge =   0.000000E+00: Neutral system requested explicitly.
  Found k-point grid:         2         1         1
  DFPT calculation will begin after the DFT/HF calculation.
  Charge density mixing - mixing parameter:     0.7500
  Forces will not be computed.
 
  Reading configuration options for species H                   .
  | Found nuclear charge :   1.0000
  | Found atomic mass :    1.00794000000000      amu
  | Found l_max for Hartree potential  :   4
  | Found cutoff potl. onset [A], width [A], scale factor :    3.50000    1.50000    1.00000
  | Threshold for basis-dependent cutoff potential is   0.100000E-03
  | Found data for basic radial integration grid :    24 points, outermost radius =    5.000 A
  | Found multiplier for basic radial grid :   1
  | Found angular grid specification: user-specified.
  | Specified grid contains     5 separate shells.
  | Check grid settings after all constraints further below.
  | Found free-atom valence shell :  1 s   1.000
  | No ionic wave fns used. Skipping ion_occ.
  | Found hydrogenic basis function :  2 s   2.100
  | Found hydrogenic basis function :  2 p   3.500
  Species H                   : Missing cutoff potential type.
  Defaulting to exp(1/x)/(1-x)^2 type cutoff potential.
  Species H : No 'logarithmic' tag. Using default grid for free atom:
  | Default logarithmic grid data [bohr] : 0.1000E-03 0.1000E+03 0.1012E+01
  Species H : On-site basis accuracy parameter (for Gram-Schmidt orthonormalisation) not specified.
  Using default value basis_acc =  0.1000000E-03.
  Species H                   : Using default innermost maximum threshold i_radial=  2 for radial functions.
  Species H                   : Default cutoff onset for free atom density etc. : 0.35000000E+01 AA.
  Species H                   : Basic radial grid will be enhanced according to radial_multiplier =   1, to contain    24 grid points.
 
  Reading configuration options for species C                   .
  | Found nuclear charge :   6.0000
  | Found atomic mass :    12.0107000000000      amu
  | Found l_max for Hartree potential  :   4
  | Found cutoff potl. onset [A], width [A], scale factor :    3.50000    1.50000    1.00000
  | Threshold for basis-dependent cutoff potential is   0.100000E-03
  | Found data for basic radial integration grid :    34 points, outermost radius =    5.000 A
  | Found multiplier for basic radial grid :   1
  | Found angular grid specification: user-specified.
  | Specified grid contains     5 separate shells.
  | Check grid settings after all constraints further below.
  | Found free-atom valence shell :  2 s   2.000
  | Found free-atom valence shell :  2 p   2.000
  | No ionic wave fns used. Skipping ion_occ.
  | No ionic wave fns used. Skipping ion_occ.
  | Found hydrogenic basis function :  2 p   1.700
  | Found hydrogenic basis function :  3 d   6.000
  | Found hydrogenic basis function :  2 s   4.900
  Species C                   : Missing cutoff potential type.
  Defaulting to exp(1/x)/(1-x)^2 type cutoff potential.
  Species C : No 'logarithmic' tag. Using default grid for free atom:
  | Default logarithmic grid data [bohr] : 0.1000E-03 0.1000E+03 0.1012E+01
  Species C : On-site basis accuracy parameter (for Gram-Schmidt orthonormalisation) not specified.
  Using default value basis_acc =  0.1000000E-03.
  Species C                   : Using default innermost maximum threshold i_radial=  2 for radial functions.
  Species C                   : Default cutoff onset for free atom density etc. : 0.35000000E+01 AA.
  Species C                   : Basic radial grid will be enhanced according to radial_multiplier =   1, to contain    34 grid points.
 
  Finished reading input file 'control.in'.
 
------------------------------------------------------------


------------------------------------------------------------
          Reading geometry description geometry.in.
------------------------------------------------------------
  | The smallest distance between any two atoms is         1.06783452 AA.
  | The first atom of this pair is atom number                     77 .
  | The second atom of this pair is atom number                    97 .
  | Wigner-Seitz cell of the first atom image           0     0     0 .
  | (The Wigner-Seitz cell of the second atom is 0 0 0  by definition.)

  Symmetry information by spglib:
  | Precision set to  0.1E-04
  | Number of Operations  : 1
  | Space group           : 1
  | International         : P1
  | Schoenflies           : C1^1
  Input structure read successfully.
  The structure contains      144 atoms,  and a total of        544.000 electrons.

  Input geometry:
  | Unit cell:
  |        8.10200000        0.00000000        0.00000000
  |        0.00000000       11.88000000        0.00000000
  |       -9.78509185        0.00000000       14.25711196
  | Atomic structure:
  |       Atom                x [A]            y [A]            z [A]
  |    1: Species C            -0.70103900        0.11221100        2.34627000
  |    2: Species C             0.23642400        3.29155000        4.79069000
  |    3: Species C             4.07281000        5.69268000        4.73821000
  |    4: Species C             3.14754000        2.85042000        2.47120000
  |    5: Species C             0.03408160        1.00006000        1.54759000
  |    6: Species C            -0.53977400        4.10971000        5.60915000
  |    7: Species C             3.34264000        4.88110000        5.60825000
  |    8: Species C             3.86090000        1.95792000        1.70015000
  |    9: Species C             0.35523600        0.66440900        0.23463800
  |   10: Species C            -0.89453900        3.71486000        6.93092000
  |   11: Species C             3.01042000        5.29458000        6.91094000
  |   12: Species C             4.22142000        2.27630000        0.35071900
  |   13: Species C            -3.80140000        1.54866000        6.75807000
  |   14: Species C             3.03405000        4.40928000        0.62316100
  |   15: Species C             7.15434000        4.36818000        0.57583300
  |   16: Species C             0.33118400        1.64096000        6.56529000
  |   17: Species C            -3.45986000        1.23271000        5.44076000
  |   18: Species C             2.71753000        4.09430000        1.92821000
  |   19: Species C             6.74825000        4.76125000        1.84920000
  |   20: Species C             0.69959700        2.04451000        5.27666000
  |   21: Species H            -0.81202200        0.39611000        3.39948000
  |   22: Species H             0.49466500        3.61683000        3.77229000
  |   23: Species H             4.28482000        5.29024000        3.75729000
  |   24: Species H             2.86708000        2.64625000        3.50935000
  |   25: Species H             0.41775400        1.91836000        1.97666000
  |   26: Species H            -0.83833700        5.12901000        5.30473000
  |   27: Species H             2.97492000        3.91129000        5.23431000
  |   28: Species H             4.13275000        1.01390000        2.14269000
  |   29: Species H            -3.49218000        2.49474000        7.17046000
  |   30: Species H             2.64293000        5.34794000        0.23894300
  |   31: Species H             6.78357000        3.40046000        0.14508400
  |   32: Species H             0.65017500        0.66787100        6.94660000
  |   33: Species H            -2.84901000        1.91296000        4.87678000
  |   34: Species H             2.10862000        4.79648000        2.52437000
  |   35: Species H             6.07883000        4.10760000        2.47479000
  |   36: Species H             1.33422000        1.38100000        4.67157000
  |   37: Species C            -5.71582000        0.13708100        9.63761000
  |   38: Species C            -4.78412000        3.04650000       11.98340000
  |   39: Species C            -0.74401800        5.84824000       11.94530000
  |   40: Species C            -1.62361000        2.88564000        9.46021000
  |   41: Species C            -4.93940000        0.97199200        8.89177000
  |   42: Species C            -5.48893000        3.93261000       12.76740000
  |   43: Species C            -1.50276000        4.96644000       12.69730000
  |   44: Species C            -0.87172600        2.03262000        8.70070000
  |   45: Species C            -4.56447000        0.66475900        7.53237000
  |   46: Species C            -5.99716000        3.54661000       14.05290000
  |   47: Species C            -1.86310000        5.23442000       14.03350000
  |   48: Species C            -0.46255300        2.45797000        7.39897000
  |   49: Species C            -8.67053000        1.48502000       13.61260000
  |   50: Species C            -1.67450000        4.58519000        7.76134000
  |   51: Species C             2.30269000        4.51896000        7.84194000
  |   52: Species C            -4.78427000        1.38572000       13.77980000
  |   53: Species C            -8.45494000        1.10236000       12.32270000
  |   54: Species C            -1.99817000        4.16102000        9.00380000
  |   55: Species C             1.99002000        4.97982000        9.10599000
  |   56: Species C            -4.37671000        1.78697000       12.52430000
  |   57: Species H            -6.01753000        0.40463000       10.64290000
  |   58: Species H            -4.45094000        3.30991000       10.95640000
  |   59: Species H            -0.43897800        5.60139000       10.92960000
  |   60: Species H            -1.90811000        2.55019000       10.44510000
  |   61: Species H            -4.62218000        1.95650000        9.24361000
  |   62: Species H            -5.79145000        4.92184000       12.38420000
  |   63: Species H            -1.75104000        3.99637000       12.24270000
  |   64: Species H            -0.62905600        1.04252000        9.08688000
  |   65: Species H            -8.32222000        2.43092000       13.98970000
  |   66: Species H            -1.93275000        5.55427000        7.36343000
  |   67: Species H             2.01608000        3.50461000        7.55588000
  |   68: Species H            -4.53006000        0.38850000       14.15400000
  |   69: Species H            -7.85828000        1.73417000       11.65670000
  |   70: Species H            -2.58855000        4.79440000        9.68125000
  |   71: Species H             1.45219000        4.33159000        9.76932000
  |   72: Species H            -3.77013000        1.09875000       11.94420000
  |   73: Species C            -0.92636500        6.02016000        2.39877000
  |   74: Species C             0.34874000        9.04077000        4.92466000
  |   75: Species C             4.31358000       11.81950000        4.90578000
  |   76: Species C             3.37844000        8.84063000        2.48636000
  |   77: Species C            -0.08590910        6.83232000        1.66907000
  |   78: Species C            -0.38040800        9.86619000        5.73452000
  |   79: Species C             3.49353000       10.96750000        5.66994000
  |   80: Species C             4.07409000        7.96017000        1.65550000
  |   81: Species C             0.24062900        6.51073000        0.32596500
  |   82: Species C            -0.84999600        9.48234000        7.00752000
  |   83: Species C             3.14329000       11.28140000        6.98131000
  |   84: Species C             4.35830000        8.24955000        0.30530100
  |   85: Species C            -3.87447000        7.41412000        6.45685000
  |   86: Species C             3.19327000       10.36060000        0.60628800
  |   87: Species C             7.25658000       10.40990000        0.58616500
  |   88: Species C             0.33105600        7.33922000        6.64148000
  |   89: Species C            -3.57060000        6.96443000        5.17508000
  |   90: Species C             2.92423000       10.06530000        1.91431000
  |   91: Species C             6.99701000       10.74780000        1.87935000
  |   92: Species C             0.72020300        7.74662000        5.36312000
  |   93: Species H            -1.19267000        6.28036000        3.43618000
  |   94: Species H             0.72399800        9.44288000        4.00836000
  |   95: Species H             4.67802000       11.59330000        3.88685000
  |   96: Species H             3.21744000        8.57365000        3.54358000
  |   97: Species H             0.28628100        7.74511000        2.07963000
  |   98: Species H            -0.59698200       10.87680000        5.40517000
  |   99: Species H             3.17035000       10.01730000        5.24983000
  |  100: Species H             4.41219000        7.03291000        2.09509000
  |  101: Species H            -3.55226000        8.41290000        6.74475000
  |  102: Species H             2.86311000       11.28540000        0.13711500
  |  103: Species H             6.85666000        9.47560000        0.22061800
  |  104: Species H             0.66514000        6.37297000        7.01700000
  |  105: Species H            -3.00771000        7.64704000        4.51595000
  |  106: Species H             2.32325000       10.74630000        2.50704000
  |  107: Species H             6.43060000       10.05010000        2.53300000
  |  108: Species H             1.37723000        7.15067000        4.75910000
  |  109: Species C            -5.71729000        6.25892000        9.49707000
  |  110: Species C            -4.70116000        8.96251000       11.93920000
  |  111: Species C            -0.80795500       11.75920000       11.80280000
  |  112: Species C            -1.61751000        8.61555000        9.57108000
  |  113: Species C            -4.98401000        7.03377000        8.63320000
  |  114: Species C            -5.44507000        9.84345000       12.69950000
  |  115: Species C            -1.52212000       10.93890000       12.64230000
  |  116: Species C            -0.85521600        7.78017000        8.78614000
  |  117: Species C            -4.62210000        6.58924000        7.35627000
  |  118: Species C            -5.84328000        9.49354000       14.02120000
  |  119: Species C            -1.78650000       11.27630000       13.97310000
  |  120: Species C            -0.44227000        8.17477000        7.50560000
  |  121: Species C            -8.81210000        7.40992000       13.79260000
  |  122: Species C            -1.63428000       10.31330000        7.83290000
  |  123: Species C             2.34836000       10.43090000        7.76588000
  |  124: Species C            -4.69153000        7.34673000       13.76910000
  |  125: Species C            -8.47757000        7.10597000       12.47770000
  |  126: Species C            -2.02075000        9.88118000        9.09669000
  |  127: Species C             1.99686000       10.76560000        9.05624000
  |  128: Species C            -4.32339000        7.67444000       12.48510000
  |  129: Species H            -5.91684000        6.62759000       10.51670000
  |  130: Species H            -4.40118000        9.25303000       10.92730000
  |  131: Species H            -0.61113500       11.37510000       10.77610000
  |  132: Species H            -1.93186000        8.29935000       10.58210000
  |  133: Species H            -4.66759000        8.00421000        8.97479000
  |  134: Species H            -5.75734000       10.82030000       12.28420000
  |  135: Species H            -1.82399000        9.94324000       12.27550000
  |  136: Species H            -0.59134400        6.80705000        9.13969000
  |  137: Species H            -8.58653000        8.40806000       14.22120000
  |  138: Species H            -1.90946000       11.30230000        7.47257000
  |  139: Species H             2.08254000        9.45772000        7.35725000
  |  140: Species H            -4.45103000        6.38507000       14.18580000
  |  141: Species H            -7.94160000        7.80912000       11.84670000
  |  142: Species H            -2.61320000       10.52260000        9.75093000
  |  143: Species H             1.39383000       10.08380000        9.61891000
  |  144: Species H            -3.76623000        6.89936000       11.93900000

  Lattice parameters for 3D lattice (in Angstroms) :     8.102000   11.880000   17.292000
  Angle(s) between unit vectors (in degrees)       :    90.000000  124.463000   90.000000


  Quantities derived from the lattice vectors (in Angstrom^-1):
  | Reciprocal lattice vector 1:  0.775510  0.000000  0.532257
  | Reciprocal lattice vector 2:  0.000000  0.528888  0.000000
  | Reciprocal lattice vector 3: -0.000000  0.000000  0.440705
  | Unit cell volume                               :   0.137227E+04  Angstrom^3

  Fractional coordinates:
                         L1                L2                L3
       atom_frac         0.11222881        0.00944537        0.16456839  C
       atom_frac         0.43500630        0.27706650        0.33602107  C
       atom_frac         0.90407164        0.47918182        0.33234010  C
       atom_frac         0.59782771        0.23993434        0.17333104  C
       atom_frac         0.13530485        0.08418013        0.10854863  C
       atom_frac         0.40853581        0.34593519        0.39342821  C
       atom_frac         0.88765162        0.41086700        0.39336508  C
       atom_frac         0.62055850        0.16480808        0.11924926  C
       atom_frac         0.06372195        0.05592668        0.01645761  C
       atom_frac         0.47671727        0.31269865        0.48613773  C
       atom_frac         0.95699944        0.44567172        0.48473632  C
       atom_frac         0.55074416        0.19160774        0.02459958  C
       atom_frac         0.10329179        0.13035859        0.47401395  C
       atom_frac         0.42727036        0.37115152        0.04370878  C
       atom_frac         0.93181335        0.36769192        0.04038918  C
       atom_frac         0.59703077        0.13812795        0.46049228  C
       atom_frac         0.03385583        0.10376347        0.38161726  C
       atom_frac         0.49875580        0.34463805        0.13524548  C
       atom_frac         0.98955968        0.40077862        0.12970369  C
       atom_frac         0.53334116        0.17209680        0.37010721  C
       atom_frac         0.18774933        0.03334259        0.23844100  H
       atom_frac         0.38061009        0.30444697        0.26459005  H
       atom_frac         0.84714429        0.44530640        0.26353795  H
       atom_frac         0.65115455        0.22274832        0.24614733  H
       atom_frac         0.21900718        0.16147811        0.13864379  H
       atom_frac         0.34589748        0.43173485        0.37207606  H
       atom_frac         0.81058837        0.32923316        0.36713677  H
       atom_frac         0.69160006        0.08534512        0.15028920  H
       atom_frac         0.17639175        0.20999495        0.50293917  H
       atom_frac         0.34644827        0.45016330        0.01675957  H
       atom_frac         0.84956129        0.28623401        0.01017625  H
       atom_frac         0.66870390        0.05621810        0.48723753  H
       atom_frac         0.06147534        0.16102357        0.34205946  H
       atom_frac         0.47410174        0.40374411        0.17706040  H
       atom_frac         0.95993015        0.34575758        0.17358284  H
       atom_frac         0.56041241        0.11624579        0.32766594  H
       atom_frac         0.11093143        0.01153880        0.67598613  C
       atom_frac         0.42464253        0.25643939        0.84052086  C
       atom_frac         0.92006994        0.49227609        0.83784851  C
       atom_frac         0.60099005        0.24289899        0.66354322  C
       atom_frac         0.14358104        0.08181751        0.62367259  C
       atom_frac         0.40406406        0.33102778        0.89551096  C
       atom_frac         0.89012407        0.41805051        0.89059411  C
       atom_frac         0.62945327        0.17109596        0.61027086  C
       atom_frac         0.07470079        0.05595614        0.52832369  C
       atom_frac         0.45023142        0.29853620        0.98567648  C
       atom_frac         0.95883981        0.44060774        0.98431576  C
       atom_frac         0.56968481        0.20689983        0.51896696  C
       atom_frac         0.08296885        0.12500168        0.95479365  C
       atom_frac         0.45079548        0.38595875        0.54438374  C
       atom_frac         0.94851311        0.38038384        0.55003706  C
       atom_frac         0.57679932        0.11664310        0.96652113  C
       atom_frac         0.00030928        0.09279125        0.86431951  C
       atom_frac         0.51609642        0.35025421        0.63153043  C
       atom_frac         1.01700066        0.41917677        0.63869808  C
       atom_frac         0.52074797        0.15041835        0.87845982  C
       atom_frac         0.15885185        0.03405976        0.74649761  H
       atom_frac         0.37876726        0.27861195        0.76848664  H
       atom_frac         0.87167868        0.47149747        0.76660687  H
       atom_frac         0.64930653        0.21466246        0.73262383  H
       atom_frac         0.21253915        0.16468855        0.64835080  H
       atom_frac         0.33426377        0.41429630        0.86863314  H
       atom_frac         0.82097005        0.33639478        0.85870827  H
       atom_frac         0.69211893        0.08775421        0.63735769  H
       atom_frac         0.15790408        0.20462290        0.98124361  H
       atom_frac         0.38521318        0.46753114        0.51647417  H
       atom_frac         0.88890539        0.29500084        0.52997269  H
       atom_frac         0.63987447        0.03270202        0.99276768  H
       atom_frac         0.01753513        0.14597391        0.81760598  H
       atom_frac         0.50061564        0.40356902        0.67904706  H
       atom_frac         1.00680980        0.36461195        0.68522433  H
       atom_frac         0.54647490        0.09248737        0.83777135  H
       atom_frac         0.08886500        0.50674747        0.16825077  C
       atom_frac         0.46021781        0.76100758        0.34541778  C
       atom_frac         0.94798405        0.99490741        0.34409353  C
       atom_frac         0.62761107        0.74416077        0.17439437  C
       atom_frac         0.13078557        0.57511111        0.11706929  C
       atom_frac         0.43882602        0.83048737        0.40222171  C
       atom_frac         0.91150126        0.92319024        0.39769204  C
       atom_frac         0.64308939        0.67004798        0.11611749  C
       atom_frac         0.05731285        0.54804125        0.02286333  C
       atom_frac         0.48870393        0.79817677        0.49151048  C
       atom_frac         0.97936022        0.94961279        0.48967210  C
       atom_frac         0.56379134        0.69440657        0.02141394  C
       atom_frac         0.06875630        0.62408418        0.45288625  C
       atom_frac         0.44549296        0.87210438        0.04252530  C
       atom_frac         0.94530770        0.87625421        0.04111387  C
       atom_frac         0.60346912        0.61777946        0.46583628  C
       atom_frac        -0.00231849        0.58623148        0.36298235  C
       atom_frac         0.52309053        0.84724747        0.13427053  C
       atom_frac         1.02281725        0.90469697        0.13181842  C
       atom_frac         0.54320862        0.65207239        0.37617156  C
       atom_frac         0.14387625        0.52864983        0.24101515  H
       atom_frac         0.42891360        0.79485522        0.28114810  H
       atom_frac         0.90665070        0.97586700        0.27262534  H
       atom_frac         0.69729786        0.72168771        0.24854823  H
       atom_frac         0.21150267        0.65194529        0.14586615  H
       atom_frac         0.38419544        0.91555556        0.37912096  H
       atom_frac         0.83602430        0.84320707        0.36822535  H
       atom_frac         0.72205805        0.59199579        0.14695052  H
       atom_frac         0.13291387        0.70815657        0.47307968  H
       atom_frac         0.36499830        0.94994949        0.00961731  H
       atom_frac         0.86498110        0.79760943        0.01547424  H
       atom_frac         0.67651464        0.53644529        0.49217542  H
       atom_frac         0.01132122        0.64369024        0.31675069  H
       atom_frac         0.49912469        0.90457071        0.17584487  H
       atom_frac         1.00827886        0.84596801        0.17766572  H
       atom_frac         0.57313575        0.60190825        0.33380533  H
       atom_frac         0.09884467        0.52684512        0.66612860  C
       atom_frac         0.43113774        0.75442003        0.83742065  C
       atom_frac         0.90010707        0.98983165        0.82785350  C
       atom_frac         0.61113488        0.72521465        0.67131969  C
       atom_frac         0.11617121        0.59206818        0.60553638  C
       atom_frac         0.40372564        0.82857323        0.89074842  C
       atom_frac         0.88307542        0.92078283        0.88673639  C
       atom_frac         0.63872877        0.65489646        0.61626366  C
       atom_frac         0.05267008        0.55464983        0.51597196  C
       atom_frac         0.46653891        0.79911953        0.98345303  C
       atom_frac         0.96317770        0.94918350        0.98007928  C
       atom_frac         0.58122103        0.68811195        0.52644603  C
       atom_frac         0.08074341        0.62373064        0.96741893  C
       atom_frac         0.46182162        0.86812290        0.54940299  C
       atom_frac         0.94770685        0.87802189        0.54470218  C
       atom_frac         0.58733946        0.61841162        0.96577063  C
       atom_frac         0.01064639        0.59814562        0.87519128  C
       atom_frac         0.52117829        0.83174916        0.63804577  C
       atom_frac         1.01363051        0.90619529        0.63520859  C
       atom_frac         0.52400838        0.64599663        0.87571031  C
       atom_frac         0.16058908        0.55787795        0.73764589  H
       atom_frac         0.38244385        0.77887458        0.76644555  H
       atom_frac         0.83742680        0.95750000        0.75584032  H
       atom_frac         0.65798059        0.69859848        0.74223307  H
       atom_frac         0.18416228        0.67375505        0.62949565  H
       atom_frac         0.33000272        0.91079966        0.86161910  H
       atom_frac         0.81474463        0.83697306        0.86100888  H
       atom_frac         0.70124718        0.57298401        0.64106181  H
       atom_frac         0.14489192        0.70774916        0.99748112  H
       atom_frac         0.39733316        0.95137205        0.52412929  H
       atom_frac         0.88028211        0.79610438        0.51604070  H
       atom_frac         0.65232267        0.53746380        0.99499815  H
       atom_frac         0.02334639        0.65733333        0.83093266  H
       atom_frac         0.50347586        0.88574074        0.68393445  H
       atom_frac         0.98686522        0.84880471        0.67467451  H
       atom_frac         0.54651577        0.58075421        0.83740662  H

 
  Finished reading input file 'geometry.in'.
 

 
  Consistency checks for stacksize environment parameter are next.
 
  | Maximum stacksize for task 0: unlimited
  | Maximum stacksize for task 1: unlimited
  | Maximum stacksize for task 2: unlimited
  | Maximum stacksize for task 3: unlimited
  | Maximum stacksize for task 4: unlimited
  | Maximum stacksize for task 5: unlimited
  | Maximum stacksize for task 6: unlimited
  | Maximum stacksize for task 7: unlimited
  | Maximum stacksize for task 8: unlimited
  | Maximum stacksize for task 9: unlimited
  | Maximum stacksize for task 10: unlimited
  | Maximum stacksize for task 11: unlimited
  | Maximum stacksize for task 12: unlimited
  | Maximum stacksize for task 13: unlimited
  | Maximum stacksize for task 14: unlimited
  | Maximum stacksize for task 15: unlimited
  | Maximum stacksize for task 16: unlimited
  | Maximum stacksize for task 17: unlimited
  | Current stacksize for task 0: unlimited
  | Current stacksize for task 1: unlimited
  | Current stacksize for task 2: unlimited
  | Current stacksize for task 3: unlimited
  | Current stacksize for task 4: unlimited
  | Current stacksize for task 5: unlimited
  | Current stacksize for task 6: unlimited
  | Current stacksize for task 7: unlimited
  | Current stacksize for task 8: unlimited
  | Current stacksize for task 9: unlimited
  | Current stacksize for task 10: unlimited
  | Current stacksize for task 11: unlimited
  | Current stacksize for task 12: unlimited
  | Current stacksize for task 13: unlimited
  | Current stacksize for task 14: unlimited
  | Current stacksize for task 15: unlimited
  | Current stacksize for task 16: unlimited
  | Current stacksize for task 17: unlimited
 
  Consistency checks for the contents of control.in are next.
 
  MPI_IN_PLACE appears to work with this MPI implementation.
  | Keeping use_mpi_in_place .true. (see manual).
  Explicit treatment of the Coulomb operator is needed, but the RI method is not specified.
  Coulomb operator: Defaulting to 'LVL fast' resolution of identity - RI_type = LVL_fast
  Species H: Using default value for prodbas_acc =   1.000000E-06.
  Species H: Using default value max_l_prodbas =     6.
  Species C: Using default value for prodbas_acc =   1.000000E-06.
  Species C: Using default value max_l_prodbas =     6.
  Target number of points in a grid batch is not set.  Since GPU acceleration is enabled, defaulting to  200
  Method for grid partitioning is not set. Defaulting to parallel hash+maxmin partitioning.
  Batch size limit is not set. Defaulting to    200
  By default, will store active basis functions for each batch.
  If in need of memory, prune_basis_once .false. can be used to disable this option.
  communication_type for Hartree potential was not specified.
  Defaulting to calc_hartree .
  Defaulting to Pulay charge density mixer.
  Pulay mixer: Number of relevant iterations not set.
  Defaulting to    8 iterations.
  Pulay mixer: Number of initial linear mixing iterations not set.
  Defaulting to    0 iterations.
  Work space size for distributed Hartree potential not set.
  Defaulting to   0.200000E+03 MB.
  Algorithm-dependent basis array size parameters:
  | n_max_pulay                         :        8
  Maximum number of self-consistency iterations not provided.
  Presetting  1000 iterations.
  Presetting      1001 iterations before the initial mixing cycle
  is restarted anyway using the sc_init_iter criterion / keyword.
  Presetting a factor      1.000 between actual scf density residual
  and density convergence criterion sc_accuracy_rho below which sc_init_iter
  takes no effect.
 * No s.c.f. convergence criteria (sc_accuracy_*) were provided in control.in.
 * The run will proceed with a reasonable default guess, but please check whether.
 * the s.c.f. cycles seem to take too much or too little time.
  Geometry relaxation not requested: no relaxation will be performed.
 * Notice: The s.c.f. convergence criterion sc_accuracy_rho was not provided.
 * We used to stop in this case, and ask the user to provide reasonable
 * scf convergence criteria. However, this led some users to employ criteria
 * that led to extremely long run times, e.g., for simple relaxation.
 * We now preset a default value for sc_accuracy_rho if it is not set.
 * You may still wish to check if this setting is too tight or too loose for your needs.
 * Based on n_atoms and forces and force-correction status, FHI-aims chose sc_accuracy_rho =  0.391918E-04 .
  No accuracy limit for integral partition fn. given. Defaulting to  0.1000E-14.
  No threshold value for u(r) in integrations given. Defaulting to  0.1000E-05.
  No occupation type (smearing scheme) given. Defaulting to Gaussian broadening, width =  0.1000E-01 eV.
  The width will be adjusted in iteration number     2 of the first full s.c.f. cycle only.
  S.C.F. convergence parameters will be adjusted in iteration number     2 of the first full s.c.f. cycle only.
  No accuracy for occupation numbers given. Defaulting to  0.1000E-12.
  No threshold value for occupation numbers given. Defaulting to  0.0000E+00.
  No accuracy for fermi level given. Defaulting to  0.1000E-19.
  Maximum # of iterations to find E_F not set. Defaulting to  200.
  Preferred method for the eigenvalue solver ('KS_method') not specified in 'control.in'.
  Calling BLACS routine to test compilation state
  Since ScaLAPACK support is enabled, defaulting to ELPA (via ELSI).
  Will not use alltoall communication since running on < 1024 CPUs.
  Threshold for basis singularities not set.
  Default threshold for basis singularities:  0.1000E-04
  partition_type (choice of integration weights) for integrals was not specified.
  | Using a version of the partition function of Stratmann and coworkers ('stratmann_sparse').
  | At each grid point, the set of atoms used to build the partition table is smoothly restricted to
  | only those atoms whose free-atom density would be non-zero at that grid point.
  Partitioning for Hartree potential was not defined. Using partition_type for integrals.
  | Adjusted default value of keyword multip_moments_threshold to:       0.10000000E-11
  | This value may affect high angular momentum components of the Hartree potential in periodic systems.
  Angular momentum expansion for Kerker preconditioner not set explicitly.
  | Using default value of   0
  No explicit requirement for turning off preconditioner.
  | By default, it will be turned off when the charge convergence reaches
  | sc_accuracy_rho  =   0.391918E-04
  No special mixing parameter while Kerker preconditioner is on.
  Using default: charge_mix_param =     0.7500.
  Threshold for auxiliary basis singularities not set.
  Default threshold for auxiliary basis singularities:  0.1000E-04
  No q(lm)/r^(l+1) cutoff set for long-range Hartree potential.
  | Using default value of  0.100000E-09 .
  | Verify using the multipole_threshold keyword.
  Defaulting to new monopole extrapolation.
  Density update method: automatic selection selected.
  Using density matrix based charge density update.
  Using density matrix based charge density update.
  Using packed matrix style: index .
  Defaulting to use time-reversal symmetry for k-point grid.
  Charge integration errors on the 3D integration grid will be compensated
  by explicit normalization and distribution of residual charges.
  Use the "compensate_multipole_errors" flag to change this behaviour.
  Default to 1D ("use_logsbt") integrations for auxiliary 2-center integrals.
  Default onset of logarithmic r-grid for SBT is -38.000000000000
  Default onset of logarithmic k-grid for SBT is -25.000000000000
  Default range of logarithmic r- and k-grid for SBT is  45.000000000000
  Default number of logarithmic r- and k-grid for SBT is   4096
  Default of use_2d_corr is to use the efficient 2D distribution where possible
 
  Consistency checks for the contents of geometry.in are next.
 

  Range separation radius for Ewald summation (hartree_convergence_parameter):      2.91768261 bohr.
  Number of empty states per atom not set in control.in .
  | Since you are using a method that relies on the unoccupied spectrum
  | (MP2,GW,RPA et al.), will use the full Hamiltonian size (see below)
  | as the max. possible number of states (occupied plus empty).

  Structure-dependent array size parameters: 
  | Maximum number of distinct radial functions  :        9
  | Maximum number of basis functions            :     1440
  | Number of Kohn-Sham states (occupied + empty):     1440
------------------------------------------------------------
CUDA runtime version: 11060
CUDA driver version: 11060
  Initializing GPUs...

  Number of GPUs available to MPI task         0 :   1
  Number of GPUs available to MPI task         1 :   1
  Number of GPUs available to MPI task         2 :   1
  Number of GPUs available to MPI task         3 :   1
  Number of GPUs available to MPI task         4 :   1
  Number of GPUs available to MPI task         5 :   1
  Number of GPUs available to MPI task         6 :   1
  Number of GPUs available to MPI task         7 :   1
  Number of GPUs available to MPI task         8 :   1
  Number of GPUs available to MPI task         9 :   1
  Number of GPUs available to MPI task        10 :   1
  Number of GPUs available to MPI task        11 :   1
  Number of GPUs available to MPI task        12 :   1
  Number of GPUs available to MPI task        13 :   1
  Number of GPUs available to MPI task        14 :   1
  Number of GPUs available to MPI task        15 :   1
  Number of GPUs available to MPI task        16 :   1
  Number of GPUs available to MPI task        17 :   1

  | MPI task         0, GPU activated = T, Device Name = NVIDIA A100-SXM4-80GB
  | MPI task         1, GPU activated = T, Device Name = NVIDIA A100-SXM4-80GB
  | MPI task         2, GPU activated = T, Device Name = NVIDIA A100-SXM4-80GB
  | MPI task         3, GPU activated = T, Device Name = NVIDIA A100-SXM4-80GB
  | MPI task         4, GPU activated = T, Device Name = NVIDIA A100-SXM4-80GB
  | MPI task         5, GPU activated = T, Device Name = NVIDIA A100-SXM4-80GB
  | MPI task         6, GPU activated = T, Device Name = NVIDIA A100-SXM4-80GB
  | MPI task         7, GPU activated = T, Device Name = NVIDIA A100-SXM4-80GB
  | MPI task         8, GPU activated = T, Device Name = NVIDIA A100-SXM4-80GB
  | MPI task         9, GPU activated = T, Device Name = NVIDIA A100-SXM4-80GB
  | MPI task        10, GPU activated = T, Device Name = NVIDIA A100-SXM4-80GB
  | MPI task        11, GPU activated = T, Device Name = NVIDIA A100-SXM4-80GB
  | MPI task        12, GPU activated = T, Device Name = NVIDIA A100-SXM4-80GB
  | MPI task        13, GPU activated = T, Device Name = NVIDIA A100-SXM4-80GB
  | MPI task        14, GPU activated = T, Device Name = NVIDIA A100-SXM4-80GB
  | MPI task        15, GPU activated = T, Device Name = NVIDIA A100-SXM4-80GB
  | MPI task        16, GPU activated = T, Device Name = NVIDIA A100-SXM4-80GB
  | MPI task        17, GPU activated = T, Device Name = NVIDIA A100-SXM4-80GB

------------------------------------------------------------
          Preparing all fixed parts of the calculation.
------------------------------------------------------------
  Determining machine precision:
    2.225073858507201E-308
  Setting up grids for atomic and cluster calculations.

  Creating wave function, potential, and density for free atoms.
  Runtime choices for atomic solver:
  | atomic solver xc        : PW-LDA
  | compute density gradient: 0
  | compute kinetic density : F

  Species: H

  List of occupied orbitals and eigenvalues:
    n    l              occ      energy [Ha]    energy [eV]
    1    0           1.0000        -0.232375        -6.3233


  Species: C

  List of occupied orbitals and eigenvalues:
    n    l              occ      energy [Ha]    energy [eV]
    1    0           2.0000        -9.944615      -270.6068
    2    0           2.0000        -0.498807       -13.5732
    2    1           2.0000        -0.196968        -5.3598


  Adding cutoff potential to free-atom effective potential.
  Creating fixed part of basis set: Ionic, confined, hydrogenic.
 
  H                    hydrogenic:
 
  List of hydrogenic basis orbitals: 
    n    l      effective z      eigenvalue [eV]  inner max. [A]     outer max. [A]     outer radius [A]   
    2    0         2.100000       -14.9728           0.193243           1.317208           4.583499
    2    1         3.500000       -41.6669           0.602369           0.602369           3.723403
 
 
  C                    hydrogenic:
 
  List of hydrogenic basis orbitals: 
    n    l      effective z      eigenvalue [eV]  inner max. [A]     outer max. [A]     outer radius [A]   
    2    1         1.700000        -9.7616           1.230570           1.230570           4.607917
    3    2         6.000000       -54.4224           0.792453           0.792453           3.883070
    2    0         4.900000       -81.6679           0.082559           0.562749           3.078220
 
  Creating atomic-like basis functions for current effective potential.

  Species H                   :

  List of atomic basis orbitals and eigenvalues:
    n    l      energy [Ha]    energy [eV]    outer radius [A]
    1    0        -0.232375        -6.3233       4.527807


  Species C                   :

  List of atomic basis orbitals and eigenvalues:
    n    l      energy [Ha]    energy [eV]    outer radius [A]
    1    0        -9.944615      -270.6068       1.934409
    2    0        -0.498807       -13.5732       4.496620
    2    1        -0.196968        -5.3598       4.551928

  Assembling full basis from fixed parts.
  | Species H :   atomic orbital   1 s accepted.
  | Species H :    hydro orbital   2 s accepted.
  | Species H :    hydro orbital   2 p accepted.
  | Species C :   atomic orbital   1 s accepted.
  | Species C :    hydro orbital   2 s accepted.
  | Species C :   atomic orbital   2 s accepted.
  | Species C :   atomic orbital   2 p accepted.
  | Species C :    hydro orbital   2 p accepted.
  | Species C :    hydro orbital   3 d accepted.
 
  Basis size parameters after reduction:
  | Total number of radial functions:        9
  | Total number of basis functions :     1440
 
  Per-task memory consumption for arrays in subroutine allocate_ext:
  |           2.242384MB.
  Testing on-site integration grid accuracy.
  |  Species  Function  <phi|h_atom|phi> (log., in eV)  <phi|h_atom|phi> (rad., in eV)
           1        1                 -6.3245358373                 -6.3232436907
           1        2                 14.1326137532                 14.1384481100
           1        3                 25.3627025200                 25.3628451197
           2        4               -270.6067544938               -270.6067222788
           2        5                -10.5634280949                -10.5635685736
           2        6                 16.2089822398                 16.2052121796
           2        7                 -5.3613872565                 -5.3627872378
           2        8                  8.5292058327                  8.5051734780
           2        9                 27.4884461005                 27.4884542459

  Preparing densities etc. for the partition functions (integrals / Hartree potential).

  Preparations completed.
  max(cpu_time)          :      0.072 s.
  Wall clock time (cpu1) :      0.066 s.
------------------------------------------------------------

  Initializing index lists of integration centers etc. from given atomic structure:
  Mapping all atomic coordinates to central unit cell.

  Initializing the k-points
  Using symmetry for reducing the k-points
  | k-points reduced from:        2 to        2
  | Number of k-points                             :         2
  | Consuming          0 KiB for k_phase_exx.
  The eigenvectors in the calculations are REAL.
  | Number of basis functions in the Hamiltonian integrals :      8050
  | Number of basis functions in a single unit cell        :      1440
  | Number of centers in hartree potential         :      3343
  | Number of centers in hartree multipole         :      2553
  | Number of centers in electron density summation:      2002
  | Number of centers in basis integrals           :      2125
  | Number of centers in integrals                 :       970
  | Number of centers in hamiltonian               :      2009
  | Consuming          1 KiB for k_phase.
  | Number of super-cells (origin) [n_cells]                     :         175
  | Number of super-cells (after PM_index) [n_cells]             :          40
  | Number of super-cells in hamiltonian [n_cells_in_hamiltonian]:          40
  | Size of matrix packed + index [n_hamiltonian_matrix_size] :     1931474
  | Size of matrix packed + index (no_symmetry):     3860131

------------------------------------------------------------
          Begin self-consistency loop: Initialization.

          Date     :  20230120, Time     :  164841.509
------------------------------------------------------------
  | Estimated reciprocal-space cutoff momentum G_max:         3.24344278 bohr^-1 .
  | Reciprocal lattice points for long-range Hartree potential:    5310
  Using simple linear distribution as default method for k-point parallelism.
  * Using 18 tasks for Scalapack Eigenvalue solver.
  Detailed listing of tasks and assigned k-points:
   Task     0 k-point     1 on adag006
   Task     1 k-point     1 on adag006
   Task     2 k-point     1 on adag006
   Task     3 k-point     1 on adag006
   Task     4 k-point     1 on adag006
   Task     5 k-point     1 on adag006
   Task     6 k-point     1 on adag006
   Task     7 k-point     1 on adag006
   Task     8 k-point     1 on adag006
   Task     9 k-point     2 on adag006
   Task    10 k-point     2 on adag006
   Task    11 k-point     2 on adag006
   Task    12 k-point     2 on adag006
   Task    13 k-point     2 on adag006
   Task    14 k-point     2 on adag006
   Task    15 k-point     2 on adag006
   Task    16 k-point     2 on adag006
   Task    17 k-point     2 on adag006
  K-point:     1 Tasks:     9 split into      3 X      3 BLACS grid
  Calculating block size based on n_basis =         1440  max_nprow =            3  max_npcol =            3
  ScaLAPACK block size set to:           16
  Allocating        1.758 MB for ovlp
  Allocating        1.758 MB for ham
  Allocating        1.758 MB for eigenvec
  Required Scalapack workspace - INTEGER:            1  REAL:             1
  Partitioning the integration grid into batches with parallel hashing+maxmin method.
  | Number of batches:     5263
  | Maximal batch size:     200
  | Minimal batch size:      99
  | Average batch size:     145.134
  | Standard deviation of batch sizes:      30.125

  Integration load balanced across    18 MPI tasks.
  Work distribution over tasks is as follows:
  Task     0 has      42391 integration points.
  Task     1 has      42413 integration points.
  Task     2 has      42420 integration points.
  Task     3 has      42490 integration points.
  Task     4 has      42522 integration points.
  Task     5 has      42404 integration points.
  Task     6 has      42456 integration points.
  Task     7 has      42402 integration points.
  Task     8 has      42433 integration points.
  Task     9 has      42435 integration points.
  Task    10 has      42422 integration points.
  Task    11 has      42430 integration points.
  Task    12 has      42422 integration points.
  Task    13 has      42444 integration points.
  Task    14 has      42368 integration points.
  Task    15 has      42512 integration points.
  Task    16 has      42445 integration points.
  Task    17 has      42431 integration points.
  Initializing partition tables, free-atom densities, potentials, etc. across the integration grid (initialize_grid_storage).
  | initialize_grid_storage: Actual outermost partition radius vs. multipole_radius_free
  | (-- VB: in principle, multipole_radius_free should be larger, hence this output)
  | Species        1: Confinement radius =              4.999999999999999 AA, multipole_radius_free =              5.054417573612229 AA.
  | Species        1: outer_partition_radius set to              5.054417573612229 AA .
  | Species        2: Confinement radius =              4.999999999999999 AA, multipole_radius_free =              5.019602836301480 AA.
  | Species        2: outer_partition_radius set to              5.019602836301480 AA .
  | The sparse table of interatomic distances needs       7647.15 kbyte instead of     36125.00 kbyte of memory.
  | Net number of integration points:   763840
  | of which are non-zero points    :   605076
  | Numerical average free-atom electrostatic potential    :     -8.61470521 eV
  Renormalizing the initial density to the exact electron count on the 3D integration grid.
  | Initial density: Formal number of electrons (from input files) :     544.0000000000
  | Integrated number of electrons on 3D grid     :     543.9981182176
  | Charge integration error                      :      -0.0018817824
  | Normalization factor for density and gradient :       1.0000034592
  Renormalizing the free-atom superposition density to the exact electron count on the 3D integration grid.
  | Formal number of electrons (from input files) :     544.0000000000
  | Integrated number of electrons on 3D grid     :     543.9981182176
  | Charge integration error                      :      -0.0018817824
  | Normalization factor for density and gradient :       1.0000034592
  Obtaining max. number of non-zero basis functions in each batch (get_n_compute_maxes).
  | Maximal number of non-zero basis functions:      548 in task     0
  | Maximal number of non-zero basis functions:      552 in task     1
  | Maximal number of non-zero basis functions:      531 in task     2
  | Maximal number of non-zero basis functions:      537 in task     3
  | Maximal number of non-zero basis functions:      547 in task     4
  | Maximal number of non-zero basis functions:      553 in task     5
  | Maximal number of non-zero basis functions:      541 in task     6
  | Maximal number of non-zero basis functions:      536 in task     7
  | Maximal number of non-zero basis functions:      555 in task     8
  | Maximal number of non-zero basis functions:      539 in task     9
  | Maximal number of non-zero basis functions:      542 in task    10
  | Maximal number of non-zero basis functions:      541 in task    11
  | Maximal number of non-zero basis functions:      529 in task    12
  | Maximal number of non-zero basis functions:      544 in task    13
  | Maximal number of non-zero basis functions:      534 in task    14
  | Maximal number of non-zero basis functions:      540 in task    15
  | Maximal number of non-zero basis functions:      559 in task    16
  | Maximal number of non-zero basis functions:      542 in task    17
  Integrating Hamiltonian matrix: batch-based integration.
  GPU acceleration will be used when integrating the Hamiltonian matrix.
  Reporting GPU memory usage by myid 0.  Note that it is likely not the only MPI task binding to its GPU!
  Allocating        2.402 MB on GPU for hamiltonian_shell
  Allocating        0.877 MB on GPU for wave
  Allocating        0.002 MB on GPU for partition
  Allocating        0.877 MB on GPU for h_times_psi
  Time summed over all CPUs for integration: real work       20.980 s, elapsed       21.766 s
  Deallocating memory used on GPU for Hamiltonian integration.
  Integrating overlap matrix.
  Time summed over all CPUs for integration: real work       17.977 s, elapsed       18.465 s
  Deallocating overlap matrix.

  Updating Kohn-Sham eigenvalues and eigenvectors using ELSI and the ELPA eigensolver.
  Singularity check in k-point 1 (analysis for other k-points may follow below):
  Overlap matrix is not singular
  | Lowest and highest eigenvalues :  0.7637E-03,  0.8292E+01
  Finished singularity check of overlap matrix
  | Time :     0.097 s
  Starting ELPA eigensolver
  Finished Cholesky decomposition
  | Time :     0.016 s
  Finished transformation to standard eigenproblem
  | Time :     0.022 s
  Finished solving standard eigenproblem
  | Time :     0.202 s
  Finished back-transformation of eigenvectors
  | Time :     0.014 s

  Obtaining occupation numbers and electronic chemical potential using ELSI.
  | Note that, for insulating systems, the printed 'chemical potential' value is not uniquely defined.
  | It can be anywhere in the energy gap, as long as it correctly separates occupied and unoccupied states.
  | In systems with a gap, the physically relevant chemical potential is the VBM or HOMO.

  | Chemical potential (Fermi level):    -7.89883709 eV
  Writing Kohn-Sham eigenvalues.
  K-point:       1 at    0.000000    0.000000    0.000000 (in units of recip. lattice)

  State    Occupation    Eigenvalue [Ha]    Eigenvalue [eV]
      1       2.00000         -10.070202         -274.02414
      2       2.00000         -10.070177         -274.02347
      3       2.00000         -10.070132         -274.02222
      4       2.00000         -10.069995         -274.01851
      5       2.00000         -10.069844         -274.01440
      6       2.00000         -10.069750         -274.01183
      7       2.00000         -10.068930         -273.98953
      8       2.00000         -10.068822         -273.98658
      9       2.00000         -10.068549         -273.97916
     10       2.00000         -10.068434         -273.97603
     11       2.00000         -10.068353         -273.97382
     12       2.00000         -10.068247         -273.97095
     13       2.00000         -10.067485         -273.95021
     14       2.00000         -10.067457         -273.94944
     15       2.00000         -10.066987         -273.93666
     16       2.00000         -10.066644         -273.92733
     17       2.00000         -10.066610         -273.92638
     18       2.00000         -10.066294         -273.91780
     19       2.00000         -10.066210         -273.91552
     20       2.00000         -10.065874         -273.90638
     21       2.00000         -10.065721         -273.90221
     22       2.00000         -10.065649         -273.90023
     23       2.00000         -10.065451         -273.89485
     24       2.00000         -10.065388         -273.89314
     25       2.00000         -10.065193         -273.88785
     26       2.00000         -10.064952         -273.88127
     27       2.00000         -10.064364         -273.86529
     28       2.00000         -10.064348         -273.86484
     29       2.00000         -10.064319         -273.86405
     30       2.00000         -10.064230         -273.86164
     31       2.00000         -10.064220         -273.86135
     32       2.00000         -10.064161         -273.85974
     33       2.00000         -10.064019         -273.85589
     34       2.00000         -10.064001         -273.85541
     35       2.00000         -10.063844         -273.85112
     36       2.00000         -10.063623         -273.84513
     37       2.00000         -10.063533         -273.84266
     38       2.00000         -10.063506         -273.84194
     39       2.00000         -10.063344         -273.83753
     40       2.00000         -10.063317         -273.83678
     41       2.00000         -10.063235         -273.83456
     42       2.00000         -10.063193         -273.83342
     43       2.00000         -10.062504         -273.81466
     44       2.00000         -10.062277         -273.80849
     45       2.00000         -10.062206         -273.80655
     46       2.00000         -10.061995         -273.80081
     47       2.00000         -10.061878         -273.79764
     48       2.00000         -10.061729         -273.79357
     49       2.00000         -10.061172         -273.77841
     50       2.00000         -10.061035         -273.77470
     51       2.00000         -10.060961         -273.77268
     52       2.00000         -10.060884         -273.77058
     53       2.00000         -10.060546         -273.76140
     54       2.00000         -10.060516         -273.76057
     55       2.00000         -10.060244         -273.75318
     56       2.00000         -10.060204         -273.75207
     57       2.00000         -10.060194         -273.75180
     58       2.00000         -10.060081         -273.74872
     59       2.00000         -10.060009         -273.74678
     60       2.00000         -10.059977         -273.74591
     61       2.00000         -10.059719         -273.73887
     62       2.00000         -10.059688         -273.73803
     63       2.00000         -10.059557         -273.73449
     64       2.00000         -10.059442         -273.73133
     65       2.00000         -10.059361         -273.72914
     66       2.00000         -10.059092         -273.72181
     67       2.00000         -10.059085         -273.72162
     68       2.00000         -10.058447         -273.70427
     69       2.00000         -10.058425         -273.70367
     70       2.00000         -10.058030         -273.69293
     71       2.00000         -10.057588         -273.68090
     72       2.00000         -10.057135         -273.66856
     73       2.00000         -10.057065         -273.66667
[...]
  |    H      2     3.678162 A  1.011968E+04 A            0.556529 a.u.
  |    H      1     3.958095 A  1.721251E+06 A            0.841931 a.u.
  |    H      0     4.527807 A  3.866455E+12 A            0.581436 a.u.
  |    C      0     2.562483 A      2.562483 A        6.563029E-17 a.u.
  |    C      0     2.967371 A      2.967371 A        1.352164E-16 a.u.
  |    C      0     3.003870 A      3.003870 A        2.312640E-17 a.u.
  |    C      1     3.272245 A      3.272245 A       -3.835259E-17 a.u.
  |    C      0     3.312494 A      3.312494 A       -2.710381E-16 a.u.
  |    C      3     4.077671 A      4.077671 A       -1.683752E-15 a.u.
  |    C      3     4.077671 A      4.077671 A        1.412852E-15 a.u.
  |    C      1     4.496620 A      4.496620 A       -3.011059E-16 a.u.
  |    C      0     4.496620 A      4.551928 A        2.873903E-17 a.u.
  |    C      2     4.551928 A      4.551928 A       -4.610785E-16 a.u.
  |    C      2     4.551928 A      4.551928 A        7.440584E-16 a.u.
  |    C      2     4.551928 A      4.551928 A       -7.110458E-16 a.u.
  |    C      2     4.551928 A      4.551928 A       -1.935424E-16 a.u.
  |    C      0     4.551928 A      4.607917 A        2.067142E-16 a.u.
  |    C      0     4.551928 A      4.607917 A       -1.109786E-16 a.u.
  |    C      1     4.551928 A      4.607917 A       -9.951742E-17 a.u.
  |    C      1     4.551928 A      4.607917 A        1.937809E-16 a.u.
  |    C      1     4.607917 A      4.607917 A       -2.813308E-16 a.u.
  |    C      1     4.607917 A      4.607917 A       -7.330363E-17 a.u.
  |    C      2     4.607917 A      4.607917 A        1.318462E-15 a.u.
  |    C      2     4.607917 A      4.607917 A       -1.318397E-15 a.u.
  |    C      0     4.607917 A      4.664595 A        3.157826E-16 a.u.
  |    C      1     4.607917 A      4.664595 A        7.356967E-16 a.u.
  |    C      4     3.835889 A  2.962973E+02 A            4.379483 a.u.
  |    C      3     4.127827 A  1.725964E+03 A            9.005588 a.u.
  |    C      2     4.607917 A  2.608475E+04 A            9.531178 a.u.
  |    C      1     4.607917 A  2.736013E+06 A            2.127278 a.u.
  |    C      0     4.607917 A  4.399765E+12 A            0.661635 a.u.

  | Shrink_full_auxil_basis : there are       36  radial auxiliary wave functions
                            accepted and       7 rejected.
  | Shrink_full_auxil_basis : there are totally                8992 partial auxiliary wave functions.
 
  | Maximal number of product basis functions per thread :   512   512
 
  | Minimal total memory requirement for three-center overlap :      72.476 Gbs
  | Number of local auxiliary basis functions on task:      0   512
  | Number of local auxiliary basis functions on task:      1   512
  | Number of local auxiliary basis functions on task:      2   512
  | Number of local auxiliary basis functions on task:      3   512
  | Number of local auxiliary basis functions on task:      4   496
  | Number of local auxiliary basis functions on task:      5   496
  | Number of local auxiliary basis functions on task:      6   496
  | Number of local auxiliary basis functions on task:      7   496
  | Number of local auxiliary basis functions on task:      8   496
  | Number of local auxiliary basis functions on task:      9   496
  | Number of local auxiliary basis functions on task:     10   496
  | Number of local auxiliary basis functions on task:     11   496
  | Number of local auxiliary basis functions on task:     12   496
  | Number of local auxiliary basis functions on task:     13   496
  | Number of local auxiliary basis functions on task:     14   496
  | Number of local auxiliary basis functions on task:     15   496
  | Number of local auxiliary basis functions on task:     16   496
  | Number of local auxiliary basis functions on task:     17   496
  | 2D aux task distribution:      3 X      6
  | 2D block size (nb_aux_2d):     64
 
  Basis pair condensation :   1037520  -->     549297
 
 --------------------------------------------
  Constructing auxiliary basis (full product) ...
 
  Product basis:
  | charge radius: extent of product basis function
  | field radius: extent of its Coulomb potential
  | Species   l  charge radius    field radius  multipol momen
  |    H      1     3.910002 A      3.910002 A       -2.487223E-16 a.u.
  |    H      1     3.958095 A      3.958095 A       -2.441841E-16 a.u.
  |    H      0     4.527807 A      4.527807 A        1.268855E-16 a.u.
  |    H      0     4.527807 A      4.583499 A       -4.900954E-17 a.u.
  |    H      0     4.527807 A      4.583499 A        4.713786E-16 a.u.
  |    H      2     3.678162 A  1.011968E+04 A            0.556529 a.u.
  |    H      1     3.958095 A  1.721251E+06 A            0.841931 a.u.
  |    H      0     4.527807 A  3.866455E+12 A            0.581436 a.u.
  |    C      0     2.562483 A      2.562483 A        6.563029E-17 a.u.
  |    C      0     2.967371 A      2.967371 A        1.352164E-16 a.u.
  |    C      0     3.003870 A      3.003870 A        2.312640E-17 a.u.
  |    C      1     3.272245 A      3.272245 A       -3.835259E-17 a.u.
  |    C      0     3.312494 A      3.312494 A       -2.710381E-16 a.u.
  |    C      3     4.077671 A      4.077671 A       -1.683752E-15 a.u.
  |    C      3     4.077671 A      4.077671 A        1.412852E-15 a.u.
  |    C      1     4.496620 A      4.496620 A       -3.011059E-16 a.u.
  |    C      0     4.496620 A      4.551928 A        2.873903E-17 a.u.
  |    C      2     4.551928 A      4.551928 A       -4.610785E-16 a.u.
  |    C      2     4.551928 A      4.551928 A        7.440584E-16 a.u.
  |    C      2     4.551928 A      4.551928 A       -7.110458E-16 a.u.
  |    C      2     4.551928 A      4.551928 A       -1.935424E-16 a.u.
  |    C      0     4.551928 A      4.607917 A        2.067142E-16 a.u.
  |    C      0     4.551928 A      4.607917 A       -1.109786E-16 a.u.
  |    C      1     4.551928 A      4.607917 A       -9.951742E-17 a.u.
  |    C      1     4.551928 A      4.607917 A        1.937809E-16 a.u.
  |    C      1     4.607917 A      4.607917 A       -2.813308E-16 a.u.
  |    C      1     4.607917 A      4.607917 A       -7.330363E-17 a.u.
  |    C      2     4.607917 A      4.607917 A        1.318462E-15 a.u.
  |    C      2     4.607917 A      4.607917 A       -1.318397E-15 a.u.
  |    C      0     4.607917 A      4.664595 A        3.157826E-16 a.u.
  |    C      1     4.607917 A      4.664595 A        7.356967E-16 a.u.
  |    C      4     3.835889 A  2.962973E+02 A            4.379483 a.u.
  |    C      3     4.127827 A  1.725964E+03 A            9.005588 a.u.
  |    C      2     4.607917 A  2.608475E+04 A            9.531178 a.u.
  |    C      1     4.607917 A  2.736013E+06 A            2.127278 a.u.
  |    C      0     4.607917 A  4.399765E+12 A            0.661635 a.u.

  | Shrink_full_auxil_basis : there are       36  radial auxiliary wave functions
                            accepted and       7 rejected.
  | Shrink_full_auxil_basis : there are totally                8992 partial auxiliary wave functions.
 
  | Maximal number of product basis functions per thread :   512   512
 
  | Minimal total memory requirement for three-center overlap :      72.476 Gbs
  | Number of local auxiliary basis functions on task:      0   512
  | Number of local auxiliary basis functions on task:      1   512
  | Number of local auxiliary basis functions on task:      2   512
  | Number of local auxiliary basis functions on task:      3   512
  | Number of local auxiliary basis functions on task:      4   496
  | Number of local auxiliary basis functions on task:      5   496
  | Number of local auxiliary basis functions on task:      6   496
  | Number of local auxiliary basis functions on task:      7   496
  | Number of local auxiliary basis functions on task:      8   496
  | Number of local auxiliary basis functions on task:      9   496
  | Number of local auxiliary basis functions on task:     10   496
  | Number of local auxiliary basis functions on task:     11   496
  | Number of local auxiliary basis functions on task:     12   496
  | Number of local auxiliary basis functions on task:     13   496
  | Number of local auxiliary basis functions on task:     14   496
  | Number of local auxiliary basis functions on task:     15   496
  | Number of local auxiliary basis functions on task:     16   496
  | Number of local auxiliary basis functions on task:     17   496
  | 2D aux task distribution:      3 X      6
  | 2D block size (nb_aux_2d):     64
 
  Basis pair condensation :   1037520  -->     549297
  Allocating        0.069 MB for t_coeff
  Allocating        0.034 MB for basbas_idx
  Allocating        0.069 MB for wave
  Allocating        0.069 MB for total_wave
  Allocating        0.206 MB for wave_gradient
  Allocating        0.206 MB for total_wave_grad
 HERE1
 HERE2
  Deallocating        0.069 MB for t_coeff
  Deallocating        0.034 MB for basbas_idx
  Deallocating        0.069 MB for wave
  Deallocating        0.206 MB for wave_gradient
  Deallocating        0.206 MB for total_wave_grad
dP_dE (Bohr^3) at every cycle:--->
 (972.108080093796,0.000000000000000E+000) (7.01110550637498,0.000000000000000E+000) (-460.976296858471,0.000000000000000E+000)
 (7.05269841632727,0.000000000000000E+000) (1372.16621193096,0.000000000000000E+000) (-0.126837603737441,0.000000000000000E+000)
 (-461.145781304245,0.000000000000000E+000) (-0.146129022477984,0.000000000000000E+000) (1729.39518188321,0.000000000000000E+000)
DFPT polarizability (Bohr^3)        xx        yy        zz        xy        xz        yz
  | Polarizability:--->                       972.108080094                 1372.166211931                 1729.395181883                    7.011105506                 -460.976296858                   -0.126837604

DFPT for dielectric_constant:--->  # PARSE DFPT_dielectric_tensor
               2.319129929200417             0.009513920622230            -0.625535002012649
               0.009570361313841             2.862000280690033            -0.000172115922771
              -0.625764988790387            -0.000198293966507             3.346752373066408

                                               :  max(cpu_time)    wall_clock(cpu1)
  | Time for  dielectric calculation            :        0.001 s           0.001 s
===========================================================================

------------------------------------------------------------------------------
  Final output of selected total energy values:

  The following output summarizes some interesting total energy values
  at the end of a run (AFTER all relaxation, molecular dynamics, etc.).

  | Total energy of the DFT / Hartree-Fock s.c.f. calculation      :         -83267.591371102 eV
  | Final zero-broadening corrected energy (caution - metals only) :         -83267.591371102 eV
  | For reference only, the value of 1 Hartree used in FHI-aims is :             27.211384500 eV
  | For reference only, the overall average (free atom contribution
  | + realspace contribution) of the electrostatic potential after
  | s.c.f. convergence is                                          :             -7.687323672 eV

  Before relying on these values, please be sure to understand exactly which
  total energy value is referred to by a given number. Different objects may
  all carry the same name 'total energy'. Definitions:

  Total energy of the DFT / Hartree-Fock s.c.f. calculation:
  | Note that this energy does not include ANY quantities calculated after the
  | s.c.f. cycle, in particular not ANY RPA, MP2, etc. many-body perturbation terms.

  Final zero-broadening corrected energy:
  | For metallic systems only, a broadening of the occupation numbers at the Fermi
  | level can be extrapolated back to zero broadening by an electron-gas inspired
  | formula. For all systems that are not real metals, this value can be
  | meaningless and should be avoided.

------------------------------------------------------------------------------
  Methods described in the following list of references were used in this FHI-aims run.
  If you publish the results, please make sure to cite these reference if they apply.
  FHI-aims is an academic code, and for our developers (often, Ph.D. students
  and postdocs), scientific credit in the community is essential.
  Thank you for helping us!

  For any use of FHI-aims, please cite:

    Volker Blum, Ralf Gehrke, Felix Hanke, Paula Havu, Ville Havu,
    Xinguo Ren, Karsten Reuter, and Matthias Scheffler
    'Ab initio molecular simulations with numeric atom-centered orbitals'
    Computer Physics Communications 180, 2175-2196 (2009)
    http://doi.org/10.1016/j.cpc.2009.06.022


  For Hartree-Fock, hybrid functionals, or many-body perturbation theory used in your run, please cite:

    Xinguo Ren, Patrick Rinke, Volker Blum, Juergen Wieferink, Alex Tkatchenko,
    Andrea Sanfilippo, Karsten Reuter, and Matthias Scheffler,
    'Resolution-of-identity approach to Hartree-Fock, hybrid density functionals,
    RPA, MP2, and GW with numeric atom-centered orbital basis functions'
    New Journal of Physics 14, 053020 (2012).
    http://doi.org/10.1088/1367-2630/14/5/053020


  The provided symmetry information was generated with SPGlib:

    Atsushi Togo, Yusuke Seto, Dimitar Pashov
    SPGlib 1.7.3 obtained from http://spglib.sourceforge.net
    Copyright (C) 2008 Atsushi Togo


  The DFPT (perturbation by an electric field) part of the code was used.
  Here is the corresponding reference:

    Honghui Shang, Nathaniel Raimbault, Mariana Rossi,
    Christian Carbogno, Patrick Rinke and Matthias Scheffler,
    'All-Electron, Real-Space Perturbation Theory for Homogeneous
    Electric Fields: Theory, Implementation, and Application within dft'
    New Journal of Physics, 20(7):073040, 2018


  The ELSI infrastructure was used in your run to solve the Kohn-Sham electronic structure.
  Please check out http://elsi-interchange.org to learn more.
  If scalability is important for your project, please acknowledge ELSI by citing:

    V. W-z. Yu, F. Corsetti, A. Garcia, W. P. Huhn, M. Jacquelin, W. Jia,
    B. Lange, L. Lin, J. Lu, W. Mi, A. Seifitokaldani, A. Vazquez-Mayagoitia,
    C. Yang, H. Yang, and V. Blum
    'ELSI: A unified software interface for Kohn-Sham electronic structure solvers'
    Computer Physics Communications 222, 267-285 (2018).
    http://doi.org/10.1016/j.cpc.2017.09.007


  For the real-space grid partitioning and parallelization used in this calculation, please cite:

    Ville Havu, Volker Blum, Paula Havu, and Matthias Scheffler,
    'Efficient O(N) integration for all-electron electronic structure calculation'
    'using numerically tabulated basis functions'
    Journal of Computational Physics 228, 8367-8379 (2009).
    http://doi.org/10.1016/j.jcp.2009.08.008


  The high-level electronic structure method used in your calculation
  employed our efficient localized resolution of identity for the Coulomb operator.
  Some calculations, especially large-scale hybrid density functional theory,
  are only possible thanks to this development. For this feature, please cite:

    Arvid Ihrig, Juergen Wieferink, Igor Ying Zhang, Matti Ropo, Xinguo Ren,
    Patrick Rinke, Matthias Scheffler, and Volker Blum,
    'Accurate localized resolution of identity approach for linear-scaling
    hybrid density functionals and for many-body perturbation theory'
    New Journal of Physics 117, 093020 (2015).
    http://doi.org/10.1088/1367-2630/17/9/093020

  Of course, there are many other important community references, e.g., those cited in the
  above references. Our list is limited to references that describe implementations in the
  FHI-aims code. The reason is purely practical (length of this list) - please credit others as well.

------------------------------------------------------------
          Leaving FHI-aims.
          Date     :  20230120, Time     :  171254.101

          Computational steps:
          | Number of self-consistency cycles          :           47
          | Number of SCF (re)initializations          :            1
          | Number of coupled perturbed self-consistency cycles          :            0
          | Number of CPSCF (re)initializations          :            0

          Detailed time accounting                     :  max(cpu_time)    wall_clock(cpu1)
          | Total time                                  :     1453.878 s        1463.246 s
          | GPU initialization                          :        1.686 s           9.471 s
          | Preparation time                            :        0.072 s           0.066 s
          | Boundary condition initalization            :        0.996 s           0.997 s
          | Grid partitioning                           :        1.246 s           1.246 s
          | Preloading free-atom quantities on grid     :        3.843 s           3.845 s
          | Free-atom superposition energy              :        0.485 s           0.485 s
          | Total time for integrations                 :       17.204 s          17.636 s
          | Product basis setup: Total time             :        0.000 s           0.000 s
          | Product basis: | 2-center integrations     :(       0.000 s)  (       0.000 s)
          | Product basis: | LVL 3-center & coefficient:(       0.000 s)  (       0.000 s)
          | Total time for solution of K.-S. equations  :        3.287 s           3.291 s
          | Total time for density update               :       12.354 s          12.963 s
          | Total time for mixing & preconditioning     :       12.062 s          12.065 s
          | Total time for Hartree multipole update     :        0.094 s           0.096 s
          | Total time for Hartree multipole sum        :       42.149 s          42.159 s
          | Total time for total energy evaluation      :        0.014 s           0.003 s
          | Total time first_order_DM                   :        1.968 s           1.957 s
          | Total time first_order_density              :      309.413 s         309.432 s
          | Total time first_order_potential            :      124.146 s         124.182 s
          | Total time first_order_H                    :      586.804 s         586.945 s
          | Total time solving of Sternheimer equations :        1.902 s           1.906 s
          | Total time for dielectric constant          :        0.001 s           0.001 s
          | Total time momentum matrix                  :        0.000 s           0.000 s

          GPU acceleration has been used for charge density update.
          GPU acceleration has been used for real-space Hamiltonian integration.
          Due to GPU usage, wall_clock(cpu1) will give a more reliable estimate for timings.

          Partial memory accounting:
          | Residual value for overall tracked memory usage across tasks:     1.234863 MB (should be 0.000000 MB)
          |
          | Largest tracked array allocation:
          |   Minimum:      103.152 MB (DFPT_pulay_mixing::initialize_pulay_mixing::X_in_diffs on task  0)
          |   Maximum:      103.152 MB (DFPT_pulay_mixing::initialize_pulay_mixing::X_in_diffs on task  0)
          |   Average:      103.152 MB
          |
          | Because the residual tracked memory usage was not zero, the peak value for overall
          | tracked memory usage was not output, as it is probably incorrect.  This is likely due
          | to a missing aims_deallocate statement in the source code, which should be otherwise
          | harmless.
          |
          Note:  These values currently only include a subset of arrays which are explicitly tracked.
          The "true" memory usage will be greater.

          Have a nice day.
------------------------------------------------------------
