------------------------------------------------------------
          Invoking FHI-aims ...

          When using FHI-aims, please cite the following reference:

            Volker Blum, Ralf Gehrke, Felix Hanke, Paula Havu,
            Ville Havu, Xinguo Ren, Karsten Reuter, and Matthias Scheffler,
            'Ab Initio Molecular Simulations with Numeric Atom-Centered Orbitals',
            Computer Physics Communications 180, 2175-2196 (2009)

          In addition, many other developments in FHI-aims are likely important for
          your particular application. A partial list of references is given at the end of
          this file. Thank you for giving credit to the authors of these developments.

          For any questions about FHI-aims, please visit our slack channel at

            https://fhi-aims.slack.com

          and our main development and support site at

            https://aims-git.rz-berlin.mpg.de .

          The latter site, in particular, has a wiki to collect information, as well
          as an issue tracker to log discussions, suggest improvements, and report issues
          or bugs. https://aims-git.rz-berlin.mpg.de is also the main development site
          of the project and all new and updated code versions can be obtained there.
          Please send an email to aims-coordinators@fhi-berlin.mpg.de and we will add
          you to these sites. They are for you and everyone is welcome there.

------------------------------------------------------------



  Date     :  20230125, Time     :  173337.067
  Time zero on CPU 1             :   0.838407000000000E+00  s.
  Internal wall clock time zero  :           443900017.067  s.

  FHI-aims created a unique identifier for this run for later identification
  aims_uuid : 9BD2A653-175D-4DD4-ADC1-34B59C7CB357

  Build configuration of the current instance of FHI-aims
  -------------------------------------------------------
  FHI-aims version      : 221103
  Commit number         : 42523251a
  CMake host system     : Linux-5.3.18-150300.59.68-default
  CMake version         : 3.17.0
  Fortran compiler      : /mpcdf/soft/SLE_15/packages/x86_64/intel_oneapi/2021.3/mpi/2021.3.0/bin/mpiifort (Intel) version 20.2.3.20210609
  Fortran compiler flags: -O3 -ip -fp-model precise
  C compiler            : /mpcdf/soft/SLE_15/packages/x86_64/intel/2021.3.0/bin/icc (Intel) version 20.2.3.20210609
  C compiler flags      : -O3 -ip -fp-model precise -std=gnu99
  CUDA compiler         : /mpcdf/soft/SLE_15/packages/x86_64/cuda/11.6.2/bin/nvcc
  CUDA compiler flags   : -O3 -DAdd_ -lcublas
  HIP compiler          :
  HIP compiler flags    :
  HIP GPU arch          :
  ELPA2 kernel          : AVX512
  Using MPI
  Using ScaLAPACK
  Using LibXC
  Using CUDA
  Using i-PI
  Using RLSY
  Linking against: /mpcdf/soft/SLE_15/packages/x86_64/cuda/11.6.2/lib64/libcublas.so
                   /mpcdf/soft/SLE_15/packages/x86_64/cuda/11.6.2/lib64/libcudart.so
                   /mpcdf/soft/SLE_15/packages/x86_64/intel_oneapi/2021.3/mkl/latest/lib/intel64/libmkl_intel_lp64.so
                   /mpcdf/soft/SLE_15/packages/x86_64/intel_oneapi/2021.3/mkl/latest/lib/intel64/libmkl_sequential.so
                   /mpcdf/soft/SLE_15/packages/x86_64/intel_oneapi/2021.3/mkl/latest/lib/intel64/libmkl_core.so
                   /mpcdf/soft/SLE_15/packages/x86_64/intel_oneapi/2021.3/mkl/latest/lib/intel64/libmkl_blacs_intelmpi_lp64.so
                   /mpcdf/soft/SLE_15/packages/x86_64/intel_oneapi/2021.3/mkl/latest/lib/intel64/libmkl_scalapack_lp64.so

  Using       18 parallel tasks.
  Task        0 on host adag028 reporting.
  Task        1 on host adag028 reporting.
  Task        2 on host adag028 reporting.
  Task        3 on host adag028 reporting.
  Task        4 on host adag028 reporting.
  Task        5 on host adag028 reporting.
  Task        6 on host adag028 reporting.
  Task        7 on host adag028 reporting.
  Task        8 on host adag028 reporting.
  Task        9 on host adag028 reporting.
  Task       10 on host adag028 reporting.
  Task       11 on host adag028 reporting.
  Task       12 on host adag028 reporting.
  Task       13 on host adag028 reporting.
  Task       14 on host adag028 reporting.
  Task       15 on host adag028 reporting.
  Task       16 on host adag028 reporting.
  Task       17 on host adag028 reporting.

  Obtaining array dimensions for all initial allocations:
  
  -----------------------------------------------------------------------
  Parsing control.in (first pass over file, find array dimensions only).
  The contents of control.in will be repeated verbatim below
  unless switched off by setting 'verbatim_writeout .false.' .
  in the first line of control.in .
  -----------------------------------------------------------------------
  
  #
  # Input for polarizability replays on generic oligoacene molecular crystals (light settings,  LDA+MBD).
  #
  #########################################################################################
  #
  #  Physical model
  #
    xc                 pw-lda
    spin               none
    relativistic       none
    charge             0.0
    k_grid 	     2 1 1
    DFPT dielectric
  #
  #  GPU acceleration
  #
  # Turns on GPU acceleration everywhere
    use_gpu
  
  # Turns OFF GPU acceleration of ELPA - may be necessary if GPU ELPA is slow
    elsi_elpa_gpu 0
  #
  #  Relaxation
  #
  #  relax_geometry trm 1E-3
  #  relax_unit_cell fixed_angles
  #
  #  SCF convergence        #
    charge_mix_param   0.75
    #sc_accuracy_rho 1E-4
  #
  # i-PI communication
  #
  compute_forces .false.
  # use_pimd_wrapper 130.183.223.27 26118
  #communicate_pimd_wrapper polarizability
  #output_level MD_light
  #
  # Output SALTED info
    ri_density_restart write
    ri_rho1 write
    ri_full_output .true.
  #  sc_accuracy_rho    1d-6
    default_prodbas_acc 1e-6
    default_max_l_prodbas 6
  #
  #
  ################################################################################
  #
  #  FHI-aims code project
  #  VB, Fritz-Haber Institut, 2009
  #
  #  Suggested "light" defaults for H atom (to be pasted into control.in file)
  #  Be sure to double-check any results obtained with these settings for post-processing,
  #  e.g., with the "tight" defaults and larger basis sets.
  #
  ################################################################################
    species        H
  #     global species definitions
      nucleus             1
      mass                1.00794
  #
      l_hartree           4
  #
      cut_pot             3.5  1.5  1.0
      basis_dep_cutoff    1e-4
  #
      radial_base         24 5.0
      radial_multiplier   1
      angular_grids       specified
        division   0.2421   50
        division   0.3822  110
        division   0.4799  194
        division   0.5341  302
  #      division   0.5626  434
  #      division   0.5922  590
  #      division   0.6542  770
  #      division   0.6868 1202
  #      outer_grid  770
        outer_grid  302
  ################################################################################
  #
  #  Definition of "minimal" basis
  #
  ################################################################################
  #     valence basis states
      valence      1  s   1.
  #     ion occupancy
      ion_occ      1  s   0.5
  ################################################################################
  #
  #  Suggested additional basis functions. For production calculations,
  #  uncomment them one after another (the most important basis functions are
  #  listed first).
  #
  #  Basis constructed for dimers: 0.5 A, 0.7 A, 1.0 A, 1.5 A, 2.5 A
  #
  ################################################################################
  #  "First tier" - improvements: -1014.90 meV to -62.69 meV
       hydro 2 s 2.1
       hydro 2 p 3.5
  #  "Second tier" - improvements: -12.89 meV to -1.83 meV
  #     hydro 1 s 0.85
  #     hydro 2 p 3.7
  #     hydro 2 s 1.2
  #     hydro 3 d 7
  #  "Third tier" - improvements: -0.25 meV to -0.12 meV
  #     hydro 4 f 11.2
  #     hydro 3 p 4.8
  #     hydro 4 d 9
  #     hydro 3 s 3.2
  ################################################################################
  ################################################################################
  #
  #  FHI-aims code project
  #  VB, Fritz-Haber Institut, 2009
  #
  #  Suggested "light" defaults for C atom (to be pasted into control.in file)
  #  Be sure to double-check any results obtained with these settings for post-processing,
  #  e.g., with the "tight" defaults and larger basis sets.
  #
  ################################################################################
    species        C
  #     global species definitions
      nucleus             6
      mass                12.0107
  #
      l_hartree           4
  #
      cut_pot             3.5  1.5  1.0
      basis_dep_cutoff    1e-4
  #
      radial_base         34 5.0
      radial_multiplier   1
      angular_grids specified
        division   0.3326   50
        division   0.5710  110
        division   0.7727  194
        division   0.8772  302
  #      division   0.9334  434
  #      division   0.9625  590
  #      division   0.9924  770
  #      division   1.0230  974
  #      division   1.4589 1202
  #     outer_grid  974
       outer_grid 302
  ################################################################################
  #
  #  Definition of "minimal" basis
  #
  ################################################################################
  #     valence basis states
      valence      2  s   2.
      valence      2  p   2.
  #     ion occupancy
      ion_occ      2  s   1.
      ion_occ      2  p   1.
  ################################################################################
  #
  #  Suggested additional basis functions. For production calculations,
  #  uncomment them one after another (the most important basis functions are
  #  listed first).
  #
  #  Constructed for dimers: 1.0 A, 1.25 A, 1.5 A, 2.0 A, 3.0 A
  #
  ################################################################################
  #  "First tier" - improvements: -1214.57 meV to -155.61 meV
       hydro 2 p 1.7
       hydro 3 d 6
       hydro 2 s 4.9
  #  "Second tier" - improvements: -67.75 meV to -5.23 meV
  #     hydro 4 f 9.8
  #     hydro 3 p 5.2
  #     hydro 3 s 4.3
  #     hydro 5 g 14.4
  #     hydro 3 d 6.2
  #  "Third tier" - improvements: -2.43 meV to -0.60 meV
  #     hydro 2 p 5.6
  #     hydro 2 s 1.4
  #     hydro 3 d 4.9
  #     hydro 4 f 11.2
  #  "Fourth tier" - improvements: -0.39 meV to -0.18 meV
  #     hydro 2 p 2.1
  #     hydro 5 g 16.4
  #     hydro 4 d 13.2
  #     hydro 3 s 13.6
  #     hydro 4 f 17.6
  #  Further basis functions - improvements: -0.08 meV and below
  #     hydro 3 s 2
  #     hydro 3 p 6
  #     hydro 4 d 20
  
  -----------------------------------------------------------------------
  Completed first pass over input file control.in .
  -----------------------------------------------------------------------
  
  
  -----------------------------------------------------------------------
  Parsing geometry.in (first pass over file, find array dimensions only).
  The contents of geometry.in will be repeated verbatim below
  unless switched off by setting 'verbatim_writeout .false.' .
  in the first line of geometry.in .
  -----------------------------------------------------------------------
  
  #=======================================================
  # FHI-aims file: /ada/ptmp/mpsd/alewis/naphthalene/qmdata/data/geoms/330.in
  # Created using the Atomic Simulation Environment (ASE)
  # Thu Jan 19 15:19:17 2023
  #=======================================================
  lattice_vector 8.1020000000000003 0.0000000000000000 0.0000000000000000
  lattice_vector 0.0000000000000000 11.8800000000000008 0.0000000000000000
  lattice_vector -9.7850918486534706 0.0000000000000000 14.2571119625755713
  atom -0.7390910000000001 0.0097428700000000 2.3419599999999998 C
  atom 0.1770140000000000 3.1906400000000001 4.7903000000000002 C
  atom 4.3342200000000002 5.9124900000000000 4.8140099999999997 C
  atom 3.1267900000000002 2.9035099999999998 2.4958200000000001 C
  atom 0.0176048000000000 0.8713210000000000 1.5593200000000000 C
  atom -0.6021270000000000 4.0113399999999997 5.5599999999999996 C
  atom 3.5591200000000001 5.0174399999999997 5.5683699999999998 C
  atom 3.9413999999999998 2.0341700000000000 1.7943600000000000 C
  atom 0.3575450000000000 0.5536390000000000 0.2227100000000000 C
  atom -0.9996290000000000 3.6732600000000000 6.8798800000000000 C
  atom 3.1928999999999998 5.3802800000000000 6.8818599999999996 C
  atom 4.3000400000000001 2.3098700000000001 0.4411750000000000 C
  atom -3.7569200000000000 1.5842900000000000 6.7281500000000003 C
  atom 3.0665499999999999 4.4468500000000004 0.6633120000000000 C
  atom 7.1906699999999999 4.3744300000000003 0.7128360000000000 C
  atom 0.3155960000000000 1.6320800000000000 6.6444700000000001 C
  atom -3.3039700000000001 1.2394600000000000 5.4558400000000002 C
  atom 2.7647499999999998 4.1548800000000004 1.9699000000000000 C
  atom 6.9141899999999996 4.7903000000000002 2.0157300000000000 C
  atom 0.6645700000000000 1.9546200000000000 5.3215199999999996 C
  atom -1.0035600000000000 0.2675610000000000 3.3648500000000001 H
  atom 0.3548780000000000 3.5013700000000001 3.7638099999999999 H
  atom 4.6400300000000003 5.7002899999999999 3.7785899999999999 H
  atom 2.8696199999999998 2.6193599999999999 3.5125899999999999 H
  atom 0.3188970000000000 1.8392800000000000 2.0079799999999999 H
  atom -0.9311410000000000 4.9518500000000003 5.1412399999999998 H
  atom 3.1528100000000001 4.0950600000000001 5.1809700000000003 H
  atom 4.1770699999999996 1.0251900000000000 2.1990400000000001 H
  atom -3.4929500000000000 2.5470600000000001 7.2237999999999998 H
  atom 2.7328299999999999 5.3470100000000000 0.1434580000000000 H
  atom 6.9685699999999997 3.3751500000000001 0.4156760000000000 H
  atom 0.7283560000000000 0.7228580000000000 7.0936000000000003 H
  atom -2.6419600000000001 1.9832600000000000 4.9739899999999997 H
  atom 2.1839300000000001 4.8193599999999996 2.5912600000000001 H
  atom 6.4402900000000001 4.0873699999999999 2.6579999999999999 H
  atom 1.3195399999999999 1.2582500000000001 4.7905800000000003 H
  atom -5.7758099999999999 0.1150790000000000 9.5087399999999995 C
  atom -4.8093000000000004 2.9945300000000001 12.0625000000000000 C
  atom -0.7127080000000000 5.7055300000000004 12.0149000000000008 C
  atom -1.7330399999999999 2.9013900000000001 9.4866899999999994 C
  atom -5.0607199999999999 1.0332900000000000 8.7714499999999997 C
  atom -5.5395399999999997 3.8969700000000000 12.8125999999999998 C
  atom -1.4799199999999999 4.8568199999999999 12.7885000000000009 C
  atom -0.9234690000000000 2.0534500000000002 8.7469000000000001 C
  atom -4.5889400000000000 0.6936680000000000 7.4570900000000000 C
  atom -5.8738700000000001 3.5822600000000002 14.1661999999999999 C
  atom -1.8512800000000000 5.2301599999999997 14.1172000000000004 C
  atom -0.5116770000000000 2.4535000000000000 7.4433400000000001 C
  atom -8.6455500000000001 1.4159800000000000 13.5998999999999999 C
  atom -1.7956799999999999 4.5145600000000004 7.6981500000000000 C
  atom 2.3553400000000000 4.5571200000000003 7.6949899999999998 C
  atom -4.6817900000000003 1.4565500000000000 13.9503000000000004 C
  atom -8.3463899999999995 1.0295799999999999 12.3270000000000000 C
  atom -2.1914500000000001 4.1276200000000003 8.9373400000000007 C
  atom 2.0013600000000000 4.9529199999999998 8.9756999999999998 C
  atom -4.3546899999999997 1.7842000000000000 12.6462000000000003 C
  atom -6.0285599999999997 0.3681760000000000 10.5515000000000008 H
  atom -4.5169300000000003 3.2109200000000002 11.0515000000000008 H
  atom -0.4824360000000000 5.4157700000000002 10.9869000000000003 H
  atom -2.0604200000000001 2.6344799999999999 10.5058000000000007 H
  atom -4.6748300000000000 1.9427900000000000 9.2289300000000001 H
  atom -5.9024200000000002 4.8153499999999996 12.3613999999999997 H
  atom -1.8998600000000001 3.9661599999999999 12.3275000000000006 H
  atom -0.5418520000000000 1.1126300000000000 9.1640099999999993 H
  atom -8.3092000000000006 2.3893100000000000 14.0005000000000006 H
  atom -2.1432699999999998 5.4711499999999997 7.2795600000000000 H
  atom 2.0163899999999999 3.5992299999999999 7.2984200000000001 H
  atom -4.3537699999999999 0.5141010000000000 14.3876000000000008 H
  atom -7.6872600000000002 1.6524300000000001 11.7207000000000008 H
  atom -2.8531700000000000 4.7616699999999996 9.5201899999999995 H
  atom 1.2979499999999999 4.3267499999999997 9.5492699999999999 H
  atom -3.6987899999999998 1.0996600000000001 12.0800999999999998 H
  atom -0.8253170000000000 6.0853999999999999 2.4725400000000000 C
  atom 0.3513650000000000 9.1190400000000000 4.8864900000000002 C
  atom 4.4438100000000000 11.8689000000000000 4.9153599999999997 C
  atom 3.0279199999999999 8.7952200000000005 2.3265600000000002 C
  atom -0.1100510000000000 6.9369699999999996 1.6638999999999999 C
  atom -0.4783680000000000 9.9393499999999992 5.6631700000000000 C
  atom 3.6325400000000001 10.9760000000000009 5.6159400000000002 C
  atom 3.8487499999999999 7.9086299999999996 1.6153700000000000 C
  atom 0.2428110000000000 6.5254099999999999 0.3502240000000000 C
  atom -0.9355490000000000 9.5398099999999992 6.9493400000000003 C
  atom 3.1586699999999999 11.2885000000000009 6.9228300000000003 C
  atom 4.2546799999999996 8.2546300000000006 0.2897410000000000 C
  atom -3.6663800000000002 7.5183299999999997 6.6447799999999999 C
  atom 3.0871599999999999 10.4077000000000002 0.5116900000000000 C
  atom 7.2140300000000002 10.3520000000000003 0.4810310000000000 C
  atom 0.3803950000000000 7.4916299999999998 6.7107599999999996 C
  atom -3.3356300000000001 7.1532200000000001 5.3432199999999996 C
  atom 2.6526700000000001 10.0383999999999993 1.7737900000000000 C
  atom 6.9178800000000003 10.6935000000000002 1.7807999999999999 C
  atom 0.7491430000000000 7.8908899999999997 5.4477099999999998 C
  atom -1.1135500000000000 6.3663600000000002 3.4783700000000000 H
  atom 0.7156550000000000 9.4652399999999997 3.8975399999999998 H
  atom 4.7642300000000004 11.5867000000000004 3.9078599999999999 H
  atom 2.6420499999999998 8.4764999999999997 3.2887700000000000 H
  atom 0.2573200000000000 7.9569299999999998 1.9308399999999999 H
  atom -0.8442040000000000 10.9306000000000001 5.3340699999999996 H
  atom 3.4251299999999998 9.9711599999999994 5.2412700000000001 H
  atom 4.0574000000000003 6.8883700000000001 1.9921100000000000 H
  atom -3.3444500000000001 8.4755699999999994 7.0739900000000002 H
  atom 2.7996900000000000 11.3809000000000005 0.1024430000000000 H
  atom 6.9485400000000004 9.3762699999999999 0.0457291000000000 H
  atom 0.6988660000000000 6.5063199999999997 7.0645100000000003 H
  atom -2.7678199999999999 7.8241399999999999 4.7066999999999997 H
  atom 1.9951700000000001 10.7205999999999992 2.3235800000000002 H
  atom 6.3814799999999998 9.9957100000000008 2.4060600000000001 H
  atom 1.4711099999999999 7.2513500000000004 4.8718300000000001 H
  atom -5.6290500000000003 6.1409700000000003 9.5115300000000005 C
  atom -4.7754500000000002 8.8957599999999992 11.9314000000000000 C
  atom -0.6632280000000000 11.6501000000000001 11.8559000000000001 C
  atom -1.8298700000000001 8.6880500000000005 9.4611499999999999 C
  atom -4.8715099999999998 7.0044300000000002 8.7658799999999992 C
  atom -5.4890299999999996 9.8277999999999999 12.6674000000000007 C
  atom -1.4201299999999999 10.7912999999999997 12.6204000000000001 C
  atom -0.9890409999999999 7.8362400000000001 8.7288300000000003 C
  atom -4.4841699999999998 6.6398299999999999 7.4284699999999999 C
  atom -5.8891299999999998 9.5017899999999997 13.9981000000000009 C
  atom -1.7670300000000001 11.1809999999999992 13.9357000000000006 C
  atom -0.4802810000000000 8.2707499999999996 7.4873000000000003 C
  atom -8.7165599999999994 7.3396400000000002 13.7622999999999998 C
  atom -1.7919700000000001 10.3881999999999994 7.7202799999999998 C
  atom 2.3733599999999999 10.3782999999999994 7.6811499999999997 C
  atom -4.7250600000000000 7.3186099999999996 13.7990999999999993 C
  atom -8.3237699999999997 6.9293399999999998 12.5069999999999997 C
  atom -2.2204000000000002 9.9497499999999999 8.9631799999999995 C
  atom 1.9471900000000000 10.7294000000000000 8.9633900000000004 C
  atom -4.3437900000000003 7.6582299999999996 12.5005000000000006 C
  atom -5.9386099999999997 6.3923600000000000 10.5298999999999996 H
  atom -4.4447700000000001 9.1299700000000001 10.9101999999999997 H
  atom -0.3874250000000000 11.3904999999999994 10.8547999999999991 H
  atom -2.1923699999999999 8.3400499999999997 10.4164999999999992 H
  atom -4.5219600000000000 7.9420200000000003 9.2127400000000002 H
  atom -5.8329399999999998 10.7653999999999996 12.2689000000000004 H
  atom -1.8006500000000001 9.8435799999999993 12.2634000000000007 H
  atom -0.7888320000000000 6.8009399999999998 9.0972700000000000 H
  atom -8.4019499999999994 8.2983799999999999 14.1325000000000003 H
  atom -2.1816100000000000 11.3183000000000007 7.2919299999999998 H
  atom 2.1535299999999999 9.3978599999999997 7.2415300000000000 H
  atom -4.4781399999999998 6.3542600000000000 14.2947000000000006 H
  atom -7.6291300000000000 7.5723799999999999 11.9475999999999996 H
  atom -2.9746899999999998 10.5279000000000007 9.5117799999999999 H
  atom 1.2601100000000001 10.0662000000000003 9.5359999999999996 H
  atom -3.7236799999999999 6.9814200000000000 11.9223999999999997 H
  
  -----------------------------------------------------------------------
  Completed first pass over input file geometry.in .
  -----------------------------------------------------------------------
  

  Basic array size parameters:
  | Number of species                 :        2
  | Number of atoms                   :      144
  | Number of lattice vectors         :        3
  | Max. basis fn. angular momentum   :        2
  | Max. atomic/ionic basis occupied n:        2
  | Max. number of basis fn. types    :        2
  | Max. radial fns per species/type  :        3
  | Max. logarithmic grid size        :     1277
  | Max. radial integration grid size :       34
  | Max. angular integration grid size:      302
  | Max. angular grid division number :        8
  | Radial grid for Hartree potential :     1277
  | Number of spin channels           :        1

------------------------------------------------------------
          Reading file control.in.
------------------------------------------------------------
  XC: Using Perdew-Wang parametrisation of Ceperley-Alder LDA.
  Spin treatment: No spin polarisation.
  Non-relativistic treatment of kinetic energy.
  Charge =   0.000000E+00: Neutral system requested explicitly.
  Found k-point grid:         2         1         1
  DFPT calculation will begin after the DFT/HF calculation.
  Charge density mixing - mixing parameter:     0.7500
  Forces will not be computed.
 
  Reading configuration options for species H                   .
  | Found nuclear charge :   1.0000
  | Found atomic mass :    1.00794000000000      amu
  | Found l_max for Hartree potential  :   4
  | Found cutoff potl. onset [A], width [A], scale factor :    3.50000    1.50000    1.00000
  | Threshold for basis-dependent cutoff potential is   0.100000E-03
  | Found data for basic radial integration grid :    24 points, outermost radius =    5.000 A
  | Found multiplier for basic radial grid :   1
  | Found angular grid specification: user-specified.
  | Specified grid contains     5 separate shells.
  | Check grid settings after all constraints further below.
  | Found free-atom valence shell :  1 s   1.000
  | No ionic wave fns used. Skipping ion_occ.
  | Found hydrogenic basis function :  2 s   2.100
  | Found hydrogenic basis function :  2 p   3.500
  Species H                   : Missing cutoff potential type.
  Defaulting to exp(1/x)/(1-x)^2 type cutoff potential.
  Species H : No 'logarithmic' tag. Using default grid for free atom:
  | Default logarithmic grid data [bohr] : 0.1000E-03 0.1000E+03 0.1012E+01
  Species H : On-site basis accuracy parameter (for Gram-Schmidt orthonormalisation) not specified.
  Using default value basis_acc =  0.1000000E-03.
  Species H                   : Using default innermost maximum threshold i_radial=  2 for radial functions.
  Species H                   : Default cutoff onset for free atom density etc. : 0.35000000E+01 AA.
  Species H                   : Basic radial grid will be enhanced according to radial_multiplier =   1, to contain    24 grid points.
 
  Reading configuration options for species C                   .
  | Found nuclear charge :   6.0000
  | Found atomic mass :    12.0107000000000      amu
  | Found l_max for Hartree potential  :   4
  | Found cutoff potl. onset [A], width [A], scale factor :    3.50000    1.50000    1.00000
  | Threshold for basis-dependent cutoff potential is   0.100000E-03
  | Found data for basic radial integration grid :    34 points, outermost radius =    5.000 A
  | Found multiplier for basic radial grid :   1
  | Found angular grid specification: user-specified.
  | Specified grid contains     5 separate shells.
  | Check grid settings after all constraints further below.
  | Found free-atom valence shell :  2 s   2.000
  | Found free-atom valence shell :  2 p   2.000
  | No ionic wave fns used. Skipping ion_occ.
  | No ionic wave fns used. Skipping ion_occ.
  | Found hydrogenic basis function :  2 p   1.700
  | Found hydrogenic basis function :  3 d   6.000
  | Found hydrogenic basis function :  2 s   4.900
  Species C                   : Missing cutoff potential type.
  Defaulting to exp(1/x)/(1-x)^2 type cutoff potential.
  Species C : No 'logarithmic' tag. Using default grid for free atom:
  | Default logarithmic grid data [bohr] : 0.1000E-03 0.1000E+03 0.1012E+01
  Species C : On-site basis accuracy parameter (for Gram-Schmidt orthonormalisation) not specified.
  Using default value basis_acc =  0.1000000E-03.
  Species C                   : Using default innermost maximum threshold i_radial=  2 for radial functions.
  Species C                   : Default cutoff onset for free atom density etc. : 0.35000000E+01 AA.
  Species C                   : Basic radial grid will be enhanced according to radial_multiplier =   1, to contain    34 grid points.
 
  Finished reading input file 'control.in'.
 
------------------------------------------------------------


------------------------------------------------------------
          Reading geometry description geometry.in.
------------------------------------------------------------
  | The smallest distance between any two atoms is         1.06358006 AA.
  | The first atom of this pair is atom number                     19 .
  | The second atom of this pair is atom number                    35 .
  | Wigner-Seitz cell of the first atom image           0     0     0 .
  | (The Wigner-Seitz cell of the second atom is 0 0 0  by definition.)

  Symmetry information by spglib:
  | Precision set to  0.1E-04
  | Number of Operations  : 1
  | Space group           : 1
  | International         : P1  Y
  | Schoenflies           : C1^1
  Input structure read successfully.
  The structure contains      144 atoms,  and a total of        544.000 electrons.

  Input geometry:
  | Unit cell:
  |        8.10200000        0.00000000        0.00000000
  |        0.00000000       11.88000000        0.00000000
  |       -9.78509185        0.00000000       14.25711196
  | Atomic structure:
  |       Atom                x [A]            y [A]            z [A]
  |    1: Species C            -0.73909100        0.00974287        2.34196000
  |    2: Species C             0.17701400        3.19064000        4.79030000
  |    3: Species C             4.33422000        5.91249000        4.81401000
  |    4: Species C             3.12679000        2.90351000        2.49582000
  |    5: Species C             0.01760480        0.87132100        1.55932000
  |    6: Species C            -0.60212700        4.01134000        5.56000000
  |    7: Species C             3.55912000        5.01744000        5.56837000
  |    8: Species C             3.94140000        2.03417000        1.79436000
  |    9: Species C             0.35754500        0.55363900        0.22271000
  |   10: Species C            -0.99962900        3.67326000        6.87988000
  |   11: Species C             3.19290000        5.38028000        6.88186000
  |   12: Species C             4.30004000        2.30987000        0.44117500
  |   13: Species C            -3.75692000        1.58429000        6.72815000
  |   14: Species C             3.06655000        4.44685000        0.66331200
  |   15: Species C             7.19067000        4.37443000        0.71283600
  |   16: Species C             0.31559600        1.63208000        6.64447000
  |   17: Species C            -3.30397000        1.23946000        5.45584000
  |   18: Species C             2.76475000        4.15488000        1.96990000
  |   19: Species C             6.91419000        4.79030000        2.01573000
  |   20: Species C             0.66457000        1.95462000        5.32152000
  |   21: Species H            -1.00356000        0.26756100        3.36485000
  |   22: Species H             0.35487800        3.50137000        3.76381000
  |   23: Species H             4.64003000        5.70029000        3.77859000
  |   24: Species H             2.86962000        2.61936000        3.51259000
  |   25: Species H             0.31889700        1.83928000        2.00798000
  |   26: Species H            -0.93114100        4.95185000        5.14124000
  |   27: Species H             3.15281000        4.09506000        5.18097000
  |   28: Species H             4.17707000        1.02519000        2.19904000
  |   29: Species H            -3.49295000        2.54706000        7.22380000
  |   30: Species H             2.73283000        5.34701000        0.14345800
  |   31: Species H             6.96857000        3.37515000        0.41567600
  |   32: Species H             0.72835600        0.72285800        7.09360000
  |   33: Species H            -2.64196000        1.98326000        4.97399000
  |   34: Species H             2.18393000        4.81936000        2.59126000
  |   35: Species H             6.44029000        4.08737000        2.65800000
  |   36: Species H             1.31954000        1.25825000        4.79058000
  |   37: Species C            -5.77581000        0.11507900        9.50874000
  |   38: Species C            -4.80930000        2.99453000       12.06250000
  |   39: Species C            -0.71270800        5.70553000       12.01490000
  |   40: Species C            -1.73304000        2.90139000        9.48669000
  |   41: Species C            -5.06072000        1.03329000        8.77145000
  |   42: Species C            -5.53954000        3.89697000       12.81260000
  |   43: Species C            -1.47992000        4.85682000       12.78850000
  |   44: Species C            -0.92346900        2.05345000        8.74690000
  |   45: Species C            -4.58894000        0.69366800        7.45709000
  |   46: Species C            -5.87387000        3.58226000       14.16620000
  |   47: Species C            -1.85128000        5.23016000       14.11720000
  |   48: Species C            -0.51167700        2.45350000        7.44334000
  |   49: Species C            -8.64555000        1.41598000       13.59990000
  |   50: Species C            -1.79568000        4.51456000        7.69815000
  |   51: Species C             2.35534000        4.55712000        7.69499000
  |   52: Species C            -4.68179000        1.45655000       13.95030000
  |   53: Species C            -8.34639000        1.02958000       12.32700000
  |   54: Species C            -2.19145000        4.12762000        8.93734000
  |   55: Species C             2.00136000        4.95292000        8.97570000
  |   56: Species C            -4.35469000        1.78420000       12.64620000
  |   57: Species H            -6.02856000        0.36817600       10.55150000
  |   58: Species H            -4.51693000        3.21092000       11.05150000
  |   59: Species H            -0.48243600        5.41577000       10.98690000
  |   60: Species H            -2.06042000        2.63448000       10.50580000
  |   61: Species H            -4.67483000        1.94279000        9.22893000
  |   62: Species H            -5.90242000        4.81535000       12.36140000
  |   63: Species H            -1.89986000        3.96616000       12.32750000
  |   64: Species H            -0.54185200        1.11263000        9.16401000
  |   65: Species H            -8.30920000        2.38931000       14.00050000
  |   66: Species H            -2.14327000        5.47115000        7.27956000
  |   67: Species H             2.01639000        3.59923000        7.29842000
  |   68: Species H            -4.35377000        0.51410100       14.38760000
  |   69: Species H            -7.68726000        1.65243000       11.72070000
  |   70: Species H            -2.85317000        4.76167000        9.52019000
  |   71: Species H             1.29795000        4.32675000        9.54927000
  |   72: Species H            -3.69879000        1.09966000       12.08010000
  |   73: Species C            -0.82531700        6.08540000        2.47254000
  |   74: Species C             0.35136500        9.11904000        4.88649000
  |   75: Species C             4.44381000       11.86890000        4.91536000
  |   76: Species C             3.02792000        8.79522000        2.32656000
  |   77: Species C            -0.11005100        6.93697000        1.66390000
  |   78: Species C            -0.47836800        9.93935000        5.66317000
  |   79: Species C             3.63254000       10.97600000        5.61594000
  |   80: Species C             3.84875000        7.90863000        1.61537000
  |   81: Species C             0.24281100        6.52541000        0.35022400
  |   82: Species C            -0.93554900        9.53981000        6.94934000
  |   83: Species C             3.15867000       11.28850000        6.92283000
  |   84: Species C             4.25468000        8.25463000        0.28974100
  |   85: Species C            -3.66638000        7.51833000        6.64478000
  |   86: Species C             3.08716000       10.40770000        0.51169000
  |   87: Species C             7.21403000       10.35200000        0.48103100
  |   88: Species C             0.38039500        7.49163000        6.71076000
  |   89: Species C            -3.33563000        7.15322000        5.34322000
  |   90: Species C             2.65267000       10.03840000        1.77379000
  |   91: Species C             6.91788000       10.69350000        1.78080000
  |   92: Species C             0.74914300        7.89089000        5.44771000
  |   93: Species H            -1.11355000        6.36636000        3.47837000
  |   94: Species H             0.71565500        9.46524000        3.89754000
  |   95: Species H             4.76423000       11.58670000        3.90786000
  |   96: Species H             2.64205000        8.47650000        3.28877000
  |   97: Species H             0.25732000        7.95693000        1.93084000
  |   98: Species H            -0.84420400       10.93060000        5.33407000
  |   99: Species H             3.42513000        9.97116000        5.24127000
  |  100: Species H             4.05740000        6.88837000        1.99211000
  |  101: Species H            -3.34445000        8.47557000        7.07399000
  |  102: Species H             2.79969000       11.38090000        0.10244300
  |  103: Species H             6.94854000        9.37627000        0.04572910
  |  104: Species H             0.69886600        6.50632000        7.06451000
  |  105: Species H            -2.76782000        7.82414000        4.70670000
  |  106: Species H             1.99517000       10.72060000        2.32358000
  |  107: Species H             6.38148000        9.99571000        2.40606000
  |  108: Species H             1.47111000        7.25135000        4.87183000
  |  109: Species C            -5.62905000        6.14097000        9.51153000
  |  110: Species C            -4.77545000        8.89576000       11.93140000
  |  111: Species C            -0.66322800       11.65010000       11.85590000
  |  112: Species C            -1.82987000        8.68805000        9.46115000
  |  113: Species C            -4.87151000        7.00443000        8.76588000
  |  114: Species C            -5.48903000        9.82780000       12.66740000
  |  115: Species C            -1.42013000       10.79130000       12.62040000
  |  116: Species C            -0.98904100        7.83624000        8.72883000
  |  117: Species C            -4.48417000        6.63983000        7.42847000
  |  118: Species C            -5.88913000        9.50179000       13.99810000
  |  119: Species C            -1.76703000       11.18100000       13.93570000
  |  120: Species C            -0.48028100        8.27075000        7.48730000
  |  121: Species C            -8.71656000        7.33964000       13.76230000
  |  122: Species C            -1.79197000       10.38820000        7.72028000
  |  123: Species C             2.37336000       10.37830000        7.68115000
  |  124: Species C            -4.72506000        7.31861000       13.79910000
  |  125: Species C            -8.32377000        6.92934000       12.50700000
  |  126: Species C            -2.22040000        9.94975000        8.96318000
  |  127: Species C             1.94719000       10.72940000        8.96339000
  |  128: Species C            -4.34379000        7.65823000       12.50050000
  |  129: Species H            -5.93861000        6.39236000       10.52990000
  |  130: Species H            -4.44477000        9.12997000       10.91020000
  |  131: Species H            -0.38742500       11.39050000       10.85480000
  |  132: Species H            -2.19237000        8.34005000       10.41650000
  |  133: Species H            -4.52196000        7.94202000        9.21274000
  |  134: Species H            -5.83294000       10.76540000       12.26890000
  |  135: Species H            -1.80065000        9.84358000       12.26340000
  |  136: Species H            -0.78883200        6.80094000        9.09727000
  |  137: Species H            -8.40195000        8.29838000       14.13250000
  |  138: Species H            -2.18161000       11.31830000        7.29193000
  |  139: Species H             2.15353000        9.39786000        7.24153000
  |  140: Species H            -4.47814000        6.35426000       14.29470000
  |  141: Species H            -7.62913000        7.57238000       11.94760000
  |  142: Species H            -2.97469000       10.52790000        9.51178000
  |  143: Species H             1.26011000       10.06620000        9.53600000
  |  144: Species H            -3.72368000        6.98142000       11.92240000

  Lattice parameters for 3D lattice (in Angstroms) :     8.102000   11.880000   17.292000
  Angle(s) between unit vectors (in degrees)       :    90.000000  124.463000   90.000000


  Quantities derived from the lattice vectors (in Angstrom^-1):
  | Reciprocal lattice vector 1:  0.775510  0.000000  0.532257
  | Reciprocal lattice vector 2:  0.000000  0.528888  0.000000
  | Reciprocal lattice vector 3: -0.000000  0.000000  0.440705
  | Unit cell volume                               :   0.137227E+04  Angstrom^3

  Fractional coordinates:
                         L1                L2                L3
       atom_frac         0.10716709        0.00082011        0.16426609  C
       atom_frac         0.42764050        0.26857239        0.33599371  C
       atom_frac         0.94275762        0.49768434        0.33765674  C
       atom_frac         0.59735221        0.24440320        0.17505789  C
       atom_frac         0.13426485        0.07334352        0.10937138  C
       atom_frac         0.39667625        0.33765488        0.38998080  C
       atom_frac         0.91099267        0.42234343        0.39056788  C
       atom_frac         0.63847496        0.17122643        0.12585719  C
       atom_frac         0.06299650        0.04660261        0.01562098  C
       atom_frac         0.45942273        0.30919697        0.48255776  C
       atom_frac         0.97705887        0.45288552        0.48269664  C
       atom_frac         0.56811058        0.19443350        0.03094421  C
       atom_frac         0.10624723        0.13335774        0.47191535  C
       atom_frac         0.43468296        0.37431397        0.04652499  C
       atom_frac         0.94790313        0.36821801        0.04999863  C
       atom_frac         0.60181423        0.13738047        0.46604600  C
       atom_frac         0.05437420        0.10433165        0.38267498  C
       atom_frac         0.50811560        0.34973737        0.13816964  C
       atom_frac         1.02414800        0.40322391        0.14138417  C
       atom_frac         0.53281805        0.16453030        0.37325371  C
       atom_frac         0.16117495        0.02252197        0.23601203  H
       atom_frac         0.36263835        0.29472811        0.26399526  H
       atom_frac         0.89279090        0.47982239        0.26503194  H
       atom_frac         0.65174252        0.22048485        0.24637458  H
       atom_frac         0.20945878        0.15482155        0.14084059  H
       atom_frac         0.32059358        0.41682239        0.36060880  H
       atom_frac         0.82802618        0.34470202        0.36339548  H
       atom_frac         0.70184379        0.08629545        0.15424162  H
       atom_frac         0.18081521        0.21439899        0.50668046  H
       atom_frac         0.34945564        0.45008502        0.01006221  H
       atom_frac         0.89531735        0.28410354        0.02915569  H
       atom_frac         0.69080604        0.06084663        0.49754817  H
       atom_frac         0.09526554        0.16694108        0.34887781  H
       atom_frac         0.48906331        0.40567003        0.18175210  H
       atom_frac         1.02006377        0.34405471        0.18643327  H
       atom_frac         0.56868200        0.10591330        0.33601335  H
       atom_frac         0.09261034        0.00968678        0.66694714  C
       atom_frac         0.42823532        0.25206481        0.84606897  C
       atom_frac         0.92983032        0.48026347        0.84273028  C
       atom_frac         0.58972666        0.24422475        0.66540054  C
       atom_frac         0.11841451        0.08697727        0.61523330  C
       atom_frac         0.40164640        0.32802778        0.89868131  C
       atom_frac         0.90066879        0.40882323        0.89699092  C
       atom_frac         0.62698049        0.17284933        0.61351135  C
       atom_frac         0.06530349        0.05838956        0.52304352  C
       atom_frac         0.47504643        0.30153704        0.99362340  C
       atom_frac         0.96738904        0.44024916        0.99018651  C
       atom_frac         0.56738025        0.20652357        0.52207909  C
       atom_frac         0.08497620        0.11919024        0.95390287  C
       atom_frac         0.43048577        0.38001347        0.53995157  C
       atom_frac         0.94256318        0.38359596        0.53972993  C
       atom_frac         0.60389131        0.12260522        0.97848008  C
       atom_frac         0.01407146        0.08666498        0.86462111  C
       atom_frac         0.48661068        0.34744276        0.62686889  C
       atom_frac         1.00736329        0.41691246        0.62955948  C
       atom_frac         0.53379211        0.15018519        0.88700994  C
       atom_frac         0.14974785        0.03099125        0.74008677  H
       atom_frac         0.37867839        0.27027946        0.77515699  H
       atom_frac         0.87116877        0.45587290        0.77062592  H
       atom_frac         0.63564944        0.22175758        0.73688136  H
       atom_frac         0.20479719        0.16353451        0.64732114  H
       atom_frac         0.31863574        0.40533249        0.86703394  H
       atom_frac         0.80978526        0.33385185        0.86465618  H
       atom_frac         0.70941598        0.09365572        0.64276763  H
       atom_frac         0.16042597        0.20112037        0.98200113  H
       atom_frac         0.35212473        0.46053451        0.51059149  H
       atom_frac         0.86713389        0.30296549        0.51191434  H
       atom_frac         0.68142184        0.04327449        1.00915249  H
       atom_frac         0.04406502        0.13909343        0.82209497  H
       atom_frac         0.45431097        0.40081397        0.66775024  H
       atom_frac         0.96913182        0.36420455        0.66978993  H
       atom_frac         0.56679239        0.09256397        0.84730344  H
       atom_frac         0.10758613        0.51223906        0.17342503  C
       atom_frac         0.45730838        0.76759596        0.34274052  C
       atom_frac         0.96486940        0.99906566        0.34476548  C
       atom_frac         0.57081082        0.74033838        0.16318592  C
       atom_frac         0.12736787        0.58392003        0.11670667  C
       atom_frac         0.42069103        0.83664562        0.39721719  C
       atom_frac         0.92408434        0.92390572        0.39390446  C
       atom_frac         0.61187705        0.66570960        0.11330275  C
       atom_frac         0.05963718        0.54927694        0.02456486  C
       atom_frac         0.47321594        0.80301431        0.48742971  C
       atom_frac         0.97630460        0.95021044        0.48557029  C
       atom_frac         0.54968379        0.69483418        0.02032256  C
       atom_frac         0.11035987        0.63285606        0.46606774  C
       atom_frac         0.42438268        0.87606902        0.03589016  C
       atom_frac         0.93114987        0.87138047        0.03373972  C
       atom_frac         0.61542764        0.63060859        0.47069561  C
       atom_frac         0.04092635        0.60212290        0.37477576  C
       atom_frac         0.47766926        0.84498316        0.12441440  C
       atom_frac         1.00470223        0.90012626        0.12490608  C
       atom_frac         0.55394630        0.66421633        0.38210474  C
       atom_frac         0.15721571        0.53588889        0.24397438  H
       atom_frac         0.41849616        0.79673737        0.27337514  H
       atom_frac         0.91907107        0.97531145        0.27409899  H
       atom_frac         0.60469432        0.71351010        0.23067575  H
       atom_frac         0.19532394        0.66977525        0.13542995  H
       atom_frac         0.34765877        0.92008418        0.37413398  H
       atom_frac         0.86674572        0.83932323        0.36762494  H
       atom_frac         0.66954406        0.57982912        0.13972746  H
       atom_frac         0.18645342        0.71343182        0.49617272  H
       atom_frac         0.35423349        0.95798822        0.00718540  H
       atom_frac         0.86150645        0.78924832        0.00320746  H
       atom_frac         0.68470195        0.54767003        0.49550779  H
       atom_frac         0.05708863        0.65859764        0.33012997  H
       atom_frac         0.44308985        0.90240741        0.16297691  H
       atom_frac         0.99146292        0.84138973        0.16876209  H
       atom_frac         0.59427251        0.61038300        0.34171226  H
       atom_frac         0.11096073        0.51691667        0.66714283  C
       atom_frac         0.42130765        0.74880135        0.83687356  C
       atom_frac         0.92246836        0.98064815        0.83157795  C
       atom_frac         0.57561176        0.73131734        0.66360915  C
       atom_frac         0.14129616        0.58959848        0.61484261  C
       atom_frac         0.39558059        0.82725589        0.88849692  C
       atom_frac         0.89380849        0.90835859        0.88520031  C
       atom_frac         0.61735644        0.65961616        0.61224391  C
       atom_frac         0.07581043        0.55890825        0.52103610  C
       atom_frac         0.45892298        0.79981397        0.98183279  C
       atom_frac         0.96241261        0.94116162        0.97745603  C
       atom_frac         0.57497925        0.69619108        0.52516246  C
       atom_frac         0.08996881        0.61781481        0.96529367  C
       atom_frac         0.43281834        0.87442761        0.54150378  C
       atom_frac         0.94361492        0.87359428        0.53875918  C
       atom_frac         0.58574231        0.61604461        0.96787484  C
       atom_frac         0.03211139        0.58327778        0.87724639  C
       atom_frac         0.48522642        0.83752104        0.62868132  C
       atom_frac         0.99963449        0.90314815        0.62869605  C
       atom_frac         0.52279503        0.64463215        0.87679048  C
       atom_frac         0.15902028        0.53807744        0.73857174  H
       atom_frac         0.37561514        0.76851599        0.76524615  H
       atom_frac         0.87170527        0.95879630        0.76136037  H
       atom_frac         0.61179862        0.70202441        0.73061782  H
       atom_frac         0.22229390        0.66852020        0.64618557  H
       atom_frac         0.31937561        0.90617845        0.86054595  H
       atom_frac         0.81660039        0.82858418        0.86016018  H
       atom_frac         0.67327852        0.57246970        0.63808645  H
       atom_frac         0.16016007        0.69851684        0.99125966  H
       atom_frac         0.34844045        0.95271886        0.51145912  H
       atom_frac         0.87924135        0.79106566        0.50792405  H
       atom_frac         0.65820164        0.53487037        1.00263644  H
       atom_frac         0.07046077        0.63740572        0.83800983  H
       atom_frac         0.43859978        0.88618687        0.66716036  H
       atom_frac         0.96333725        0.84732323        0.66885916  H
       atom_frac         0.55036135        0.58766162        0.83624229  H

 
  Finished reading input file 'geometry.in'.
 

 
  Consistency checks for stacksize environment parameter are next.
 
  | Maximum stacksize for task 0: unlimited
  | Maximum stacksize for task 1: unlimited
  | Maximum stacksize for task 2: unlimited
  | Maximum stacksize for task 3: unlimited
  | Maximum stacksize for task 4: unlimited
  | Maximum stacksize for task 5: unlimited
  | Maximum stacksize for task 6: unlimited
  | Maximum stacksize for task 7: unlimited
  | Maximum stacksize for task 8: unlimited
  | Maximum stacksize for task 9: unlimited
  | Maximum stacksize for task 10: unlimited
  | Maximum stacksize for task 11: unlimited
  | Maximum stacksize for task 12: unlimited
  | Maximum stacksize for task 13: unlimited
  | Maximum stacksize for task 14: unlimited
  | Maximum stacksize for task 15: unlimited
  | Maximum stacksize for task 16: unlimited
  | Maximum stacksize for task 17: unlimited
  | Current stacksize for task 0: unlimited
  | Current stacksize for task 1: unlimited
  | Current stacksize for task 2: unlimited
  | Current stacksize for task 3: unlimited
  | Current stacksize for task 4: unlimited
  | Current stacksize for task 5: unlimited
  | Current stacksize for task 6: unlimited
  | Current stacksize for task 7: unlimited
  | Current stacksize for task 8: unlimited
  | Current stacksize for task 9: unlimited
  | Current stacksize for task 10: unlimited
  | Current stacksize for task 11: unlimited
  | Current stacksize for task 12: unlimited
  | Current stacksize for task 13: unlimited
  | Current stacksize for task 14: unlimited
  | Current stacksize for task 15: unlimited
  | Current stacksize for task 16: unlimited
  | Current stacksize for task 17: unlimited
 
  Consistency checks for the contents of control.in are next.
 
  MPI_IN_PLACE appears to work with this MPI implementation.
  | Keeping use_mpi_in_place .true. (see manual).
  Explicit treatment of the Coulomb operator is needed, but the RI method is not specified.
  Coulomb operator: Defaulting to 'LVL fast' resolution of identity - RI_type = LVL_fast
  Species H: Using default value for prodbas_acc =   1.000000E-06.
  Species H: Using default value max_l_prodbas =     6.
  Species C: Using default value for prodbas_acc =   1.000000E-06.
  Species C: Using default value max_l_prodbas =     6.
  Target number of points in a grid batch is not set.  Since GPU acceleration is enabled, defaulting to  200
  Method for grid partitioning is not set. Defaulting to parallel hash+maxmin partitioning.
  Batch size limit is not set. Defaulting to    200
  By default, will store active basis functions for each batch.
  If in need of memory, prune_basis_once .false. can be used to disable this option.
  communication_type for Hartree potential was not specified.
  Defaulting to calc_hartree .
  Defaulting to Pulay charge density mixer.
  Pulay mixer: Number of relevant iterations not set.
  Defaulting to    8 iterations.
  Pulay mixer: Number of initial linear mixing iterations not set.
  Defaulting to    0 iterations.
  Work space size for distributed Hartree potential not set.
  Defaulting to   0.200000E+03 MB.
  Algorithm-dependent basis array size parameters:
  | n_max_pulay                         :        8
  Maximum number of self-consistency iterations not provided.
  Presetting  1000 iterations.
  Presetting      1001 iterations before the initial mixing cycle
  is restarted anyway using the sc_init_iter criterion / keyword.
  Presetting a factor      1.000 between actual scf density residual
  and density convergence criterion sc_accuracy_rho below which sc_init_iter
  takes no effect.
 * No s.c.f. convergence criteria (sc_accuracy_*) were provided in control.in.
 * The run will proceed with a reasonable default guess, but please check whether.
 * the s.c.f. cycles seem to take too much or too little time.
  Geometry relaxation not requested: no relaxation will be performed.
 * Notice: The s.c.f. convergence criterion sc_accuracy_rho was not provided.
 * We used to stop in this case, and ask the user to provide reasonable
 * scf convergence criteria. However, this led some users to employ criteria
 * that led to extremely long run times, e.g., for simple relaxation.
 * We now preset a default value for sc_accuracy_rho if it is not set.
 * You may still wish to check if this setting is too tight or too loose for your needs.
 * Based on n_atoms and forces and force-correction status, FHI-aims chose sc_accuracy_rho =  0.391918E-04 .
  No accuracy limit for integral partition fn. given. Defaulting to  0.1000E-14.
  No threshold value for u(r) in integrations given. Defaulting to  0.1000E-05.
  No occupation type (smearing scheme) given. Defaulting to Gaussian broadening, width =  0.1000E-01 eV.
  The width will be adjusted in iteration number     2 of the first full s.c.f. cycle only.
  S.C.F. convergence parameters will be adjusted in iteration number     2 of the first full s.c.f. cycle only.
  No accuracy for occupation numbers given. Defaulting to  0.1000E-12.
  No threshold value for occupation numbers given. Defaulting to  0.0000E+00.
  No accuracy for fermi level given. Defaulting to  0.1000E-19.
  Maximum # of iterations to find E_F not set. Defaulting to  200.
  Preferred method for the eigenvalue solver ('KS_method') not specified in 'control.in'.
  Calling BLACS routine to test compilation state
  Since ScaLAPACK support is enabled, defaulting to ELPA (via ELSI).
  Will not use alltoall communication since running on < 1024 CPUs.
  Threshold for basis singularities not set.
  Default threshold for basis singularities:  0.1000E-04
  partition_type (choice of integration weights) for integrals was not specified.
  | Using a version of the partition function of Stratmann and coworkers ('stratmann_sparse').
  | At each grid point, the set of atoms used to build the partition table is smoothly restricted to
  | only those atoms whose free-atom density would be non-zero at that grid point.
  Partitioning for Hartree potential was not defined. Using partition_type for integrals.
  | Adjusted default value of keyword multip_moments_threshold to:       0.10000000E-11
  | This value may affect high angular momentum components of the Hartree potential in periodic systems.
  Angular momentum expansion for Kerker preconditioner not set explicitly.
  | Using default value of   0
  No explicit requirement for turning off preconditioner.
  | By default, it will be turned off when the charge convergence reaches
  | sc_accuracy_rho  =   0.391918E-04
  No special mixing parameter while Kerker preconditioner is on.
  Using default: charge_mix_param =     0.7500.
  Threshold for auxiliary basis singularities not set.
  Default threshold for auxiliary basis singularities:  0.1000E-04
  No q(lm)/r^(l+1) cutoff set for long-range Hartree potential.
  | Using default value of  0.100000E-09 .
  | Verify using the multipole_threshold keyword.
  Defaulting to new monopole extrapolation.
  Density update method: automatic selection selected.
  Using density matrix based charge density update.
  Using density matrix based charge density update.
  Using packed matrix style: index .
  Defaulting to use time-reversal symmetry for k-point grid.
  Charge integration errors on the 3D integration grid will be compensated
  by explicit normalization and distribution of residual charges.
  Use the "compensate_multipole_errors" flag to change this behaviour.
  Default to 1D ("use_logsbt") integrations for auxiliary 2-center integrals.
  Default onset of logarithmic r-grid for SBT is -38.000000000000
  Default onset of logarithmic k-grid for SBT is -25.000000000000
  Default range of logarithmic r- and k-grid for SBT is  45.000000000000
  Default number of logarithmic r- and k-grid for SBT is   4096
  Default of use_2d_corr is to use the efficient 2D distribution where possible
 
  Consistency checks for the contents of geometry.in are next.
 

  Range separation radius for Ewald summation (hartree_convergence_parameter):      2.91768261 bohr.
  Number of empty states per atom not set in control.in .
  | Since you are using a method that relies on the unoccupied spectrum
  | (MP2,GW,RPA et al.), will use the full Hamiltonian size (see below)
  | as the max. possible number of states (occupied plus empty).

  Structure-dependent array size parameters: 
  | Maximum number of distinct radial functions  :        9
  | Maximum number of basis functions            :     1440
  | Number of Kohn-Sham states (occupied + empty):     1440
------------------------------------------------------------

  Performing system and environment tests:
  | Environment variable OMP_NUM_THREADS correctly set to 1.
  | Checking for ScaLAPACK...
  | Testing pdtran()...
  | All pdtran() tests passed.
CUDA runtime version: 11060
CUDA driver version: 11060
  Initializing GPUs...

  Number of GPUs available to MPI task         0 :   1
  Number of GPUs available to MPI task         1 :   1
  Number of GPUs available to MPI task         2 :   1
  Number of GPUs available to MPI task         3 :   1
  Number of GPUs available to MPI task         4 :   1
  Number of GPUs available to MPI task         5 :   1
  Number of GPUs available to MPI task         6 :   1
  Number of GPUs available to MPI task         7 :   1
  Number of GPUs available to MPI task         8 :   1
  Number of GPUs available to MPI task         9 :   1
  Number of GPUs available to MPI task        10 :   1
  Number of GPUs available to MPI task        11 :   1
  Number of GPUs available to MPI task        12 :   1
  Number of GPUs available to MPI task        13 :   1
  Number of GPUs available to MPI task        14 :   1
  Number of GPUs available to MPI task        15 :   1
  Number of GPUs available to MPI task        16 :   1
  Number of GPUs available to MPI task        17 :   1

  | MPI task         0, GPU activated = T, Device Name = NVIDIA A100-SXM4-80GB
  | MPI task         1, GPU activated = T, Device Name = NVIDIA A100-SXM4-80GB
  | MPI task         2, GPU activated = T, Device Name = NVIDIA A100-SXM4-80GB
  | MPI task         3, GPU activated = T, Device Name = NVIDIA A100-SXM4-80GB
  | MPI task         4, GPU activated = T, Device Name = NVIDIA A100-SXM4-80GB
  | MPI task         5, GPU activated = T, Device Name = NVIDIA A100-SXM4-80GB
  | MPI task         6, GPU activated = T, Device Name = NVIDIA A100-SXM4-80GB
  | MPI task         7, GPU activated = T, Device Name = NVIDIA A100-SXM4-80GB
  | MPI task         8, GPU activated = T, Device Name = NVIDIA A100-SXM4-80GB
  | MPI task         9, GPU activated = T, Device Name = NVIDIA A100-SXM4-80GB
  | MPI task        10, GPU activated = T, Device Name = NVIDIA A100-SXM4-80GB
  | MPI task        11, GPU activated = T, Device Name = NVIDIA A100-SXM4-80GB
  | MPI task        12, GPU activated = T, Device Name = NVIDIA A100-SXM4-80GB
  | MPI task        13, GPU activated = T, Device Name = NVIDIA A100-SXM4-80GB
  | MPI task        14, GPU activated = T, Device Name = NVIDIA A100-SXM4-80GB
  | MPI task        15, GPU activated = T, Device Name = NVIDIA A100-SXM4-80GB
  | MPI task        16, GPU activated = T, Device Name = NVIDIA A100-SXM4-80GB
  | MPI task        17, GPU activated = T, Device Name = NVIDIA A100-SXM4-80GB

------------------------------------------------------------
          Preparing all fixed parts of the calculation.
------------------------------------------------------------
  Determining machine precision:
    2.225073858507201E-308
  Setting up grids for atomic and cluster calculations.

  Creating wave function, potential, and density for free atoms.
  Runtime choices for atomic solver:
  | atomic solver xc        : PW-LDA
  | compute density gradient: 0
  | compute kinetic density : F

  Species: H

  List of occupied orbitals and eigenvalues:
    n    l              occ      energy [Ha]    energy [eV]
    1    0           1.0000        -0.232375        -6.3233


  Species: C

  List of occupied orbitals and eigenvalues:
    n    l              occ      energy [Ha]    energy [eV]
    1    0           2.0000        -9.944615      -270.6068
    2    0           2.0000        -0.498807       -13.5732
    2    1           2.0000        -0.196968        -5.3598


  Adding cutoff potential to free-atom effective potential.
  Creating fixed part of basis set: Ionic, confined, hydrogenic.
 
  H                    hydrogenic:
 
  List of hydrogenic basis orbitals: 
    n    l      effective z      eigenvalue [eV]  inner max. [A]     outer max. [A]     outer radius [A]   
    2    0         2.100000       -14.9728           0.193243           1.317208           4.583499
    2    1         3.500000       -41.6669           0.602369           0.602369           3.723403
 
 
  C                    hydrogenic:
 
  List of hydrogenic basis orbitals: 
    n    l      effective z      eigenvalue [eV]  inner max. [A]     outer max. [A]     outer radius [A]   
    2    1         1.700000        -9.7616           1.230570           1.230570           4.607917
    3    2         6.000000       -54.4224           0.792453           0.792453           3.883070
    2    0         4.900000       -81.6679           0.082559           0.562749           3.078220
 
  Creating atomic-like basis functions for current effective potential.

  Species H                   :

  List of atomic basis orbitals and eigenvalues:
    n    l      energy [Ha]    energy [eV]    outer radius [A]
    1    0        -0.232375        -6.3233       4.527807


  Species C                   :

  List of atomic basis orbitals and eigenvalues:
    n    l      energy [Ha]    energy [eV]    outer radius [A]
    1    0        -9.944615      -270.6068       1.934409
    2    0        -0.498807       -13.5732       4.496620
    2    1        -0.196968        -5.3598       4.551928

  Assembling full basis from fixed parts.
  | Species H :   atomic orbital   1 s accepted.
  | Species H :    hydro orbital   2 s accepted.
  | Species H :    hydro orbital   2 p accepted.
  | Species C :   atomic orbital   1 s accepted.
  | Species C :    hydro orbital   2 s accepted.
  | Species C :   atomic orbital   2 s accepted.
  | Species C :   atomic orbital   2 p accepted.
  | Species C :    hydro orbital   2 p accepted.
  | Species C :    hydro orbital   3 d accepted.
 
  Basis size parameters after reduction:
  | Total number of radial functions:        9
  | Total number of basis functions :     1440
 
  Per-task memory consumption for arrays in subroutine allocate_ext:
  |           2.242384MB.
  Testing on-site integration grid accuracy.
  |  Species  Function  <phi|h_atom|phi> (log., in eV)  <phi|h_atom|phi> (rad., in eV)
           1        1                 -6.3245358373                 -6.3232436907
           1        2                 14.1326137532                 14.1384481100
           1        3                 25.3627025200                 25.3628451197
           2        4               -270.6067544938               -270.6067222788
           2        5                -10.5634280949                -10.5635685736
           2        6                 16.2089822398                 16.2052121796
           2        7                 -5.3613872565                 -5.3627872378
           2        8                  8.5292058327                  8.5051734780
           2        9                 27.4884461005                 27.4884542459

  Preparing densities etc. for the partition functions (integrals / Hartree potential).

  Preparations completed.
  max(cpu_time)          :      0.081 s.
  Wall clock time (cpu1) :      0.077 s.
------------------------------------------------------------

  Initializing index lists of integration centers etc. from given atomic structure:
  Mapping all atomic coordinates to central unit cell.

  Initializing the k-points
  Using symmetry for reducing the k-points
  | k-points reduced from:        2 to        2
  | Number of k-points                             :         2
  | Consuming          0 KiB for k_phase_exx.
  The eigenvectors in the calculations are REAL.
  | Number of basis functions in the Hamiltonian integrals :      8062
  | Number of basis functions in a single unit cell        :      1440
  | Number of centers in hartree potential         :      3316
  | Number of centers in hartree multipole         :      2538
  | Number of centers in electron density summation:      1997
  | Number of centers in basis integrals           :      2117
  | Number of centers in integrals                 :       965
  | Number of centers in hamiltonian               :      2003
  | Consuming          1 KiB for k_phase.
  | Number of super-cells (origin) [n_cells]                     :         175
  | Number of super-cells (after PM_index) [n_cells]             :          38
  | Number of super-cells in hamiltonian [n_cells_in_hamiltonian]:          38
  | Size of matrix packed + index [n_hamiltonian_matrix_size] :     1932777
  | Size of matrix packed + index (no_symmetry):     3862737

------------------------------------------------------------
          Begin self-consistency loop: Initialization.

          Date     :  20230125, Time     :  173420.426
------------------------------------------------------------
  | Estimated reciprocal-space cutoff momentum G_max:         3.24344278 bohr^-1 .
  | Reciprocal lattice points for long-range Hartree potential:    5310
  Using simple linear distribution as default method for k-point parallelism.
  * Using 18 tasks for Scalapack Eigenvalue solver.
  Detailed listing of tasks and assigned k-points:
   Task     0 k-point     1 on adag028
   Task     1 k-point     1 on adag028
   Task     2 k-point     1 on adag028
   Task     3 k-point     1 on adag028
   Task     4 k-point     1 on adag028
   Task     5 k-point     1 on adag028
   Task     6 k-point     1 on adag028
   Task     7 k-point     1 on adag028
   Task     8 k-point     1 on adag028
   Task     9 k-point     2 on adag028
   Task    10 k-point     2 on adag028
   Task    11 k-point     2 on adag028
   Task    12 k-point     2 on adag028
   Task    13 k-point     2 on adag028
   Task    14 k-point     2 on adag028
   Task    15 k-point     2 on adag028
   Task    16 k-point     2 on adag028
   Task    17 k-point     2 on adag028
  K-point:     1 Tasks:     9 split into      3 X      3 BLACS grid
  Calculating block size based on n_basis =         1440  max_nprow =            3  max_npcol =            3
  ScaLAPACK block size set to:           16
  Allocating        1.758 MB for ovlp
  Allocating        1.758 MB for ham
  Allocating        1.758 MB for eigenvec
  Required Scalapack workspace - INTEGER:            1  REAL:             1
  Partitioning the integration grid into batches with parallel hashing+maxmin method.
  | Number of batches:     5518
  | Maximal batch size:     200
  | Minimal batch size:      99
  | Average batch size:     138.427
  | Standard deviation of batch sizes:      31.894

  Integration load balanced across    18 MPI tasks.
  Work distribution over tasks is as follows:
  Task     0 has      42435 integration points.
  Task     1 has      42438 integration points.
  Task     2 has      42457 integration points.
  Task     3 has      42422 integration points.
  Task     4 has      42491 integration points.
  Task     5 has      42425 integration points.
  Task     6 has      42451 integration points.
  Task     7 has      42429 integration points.
  Task     8 has      42457 integration points.
  Task     9 has      42440 integration points.
  Task    10 has      42433 integration points.
  Task    11 has      42429 integration points.
  Task    12 has      42384 integration points.
  Task    13 has      42443 integration points.
  Task    14 has      42404 integration points.
  Task    15 has      42444 integration points.
  Task    16 has      42407 integration points.
  Task    17 has      42451 integration points.
  Initializing partition tables, free-atom densities, potentials, etc. across the integration grid (initialize_grid_storage).
  | initialize_grid_storage: Actual outermost partition radius vs. multipole_radius_free
  | (-- VB: in principle, multipole_radius_free should be larger, hence this output)
  | Species        1: Confinement radius =              4.999999999999999 AA, multipole_radius_free =              5.054417573612229 AA.
  | Species        1: outer_partition_radius set to              5.054417573612229 AA .
  | Species        2: Confinement radius =              4.999999999999999 AA, multipole_radius_free =              5.019602836301480 AA.
  | Species        2: outer_partition_radius set to              5.019602836301480 AA .
  | The sparse table of interatomic distances needs       7636.61 kbyte instead of     35853.51 kbyte of memory.
  | Net number of integration points:   763840
  | of which are non-zero points    :   605283
  | Numerical average free-atom electrostatic potential    :     -8.61471654 eV
  Renormalizing the initial density to the exact electron count on the 3D integration grid.
  | Initial density: Formal number of electrons (from input files) :     544.0000000000
  | Integrated number of electrons on 3D grid     :     543.9994205980
  | Charge integration error                      :      -0.0005794020
  | Normalization factor for density and gradient :       1.0000010651
  Renormalizing the free-atom superposition density to the exact electron count on the 3D integration grid.
  | Formal number of electrons (from input files) :     544.0000000000
  | Integrated number of electrons on 3D grid     :     543.9994205980
  | Charge integration error                      :      -0.0005794020
  | Normalization factor for density and gradient :       1.0000010651
  Obtaining max. number of non-zero basis functions in each batch (get_n_compute_maxes).
  | Maximal number of non-zero basis functions:      549 in task     0
  | Maximal number of non-zero basis functions:      550 in task     1
  | Maximal number of non-zero basis functions:      554 in task     2
  | Maximal number of non-zero basis functions:      553 in task     3
  | Maximal number of non-zero basis functions:      540 in task     4
  | Maximal number of non-zero basis functions:      544 in task     5
  | Maximal number of non-zero basis functions:      526 in task     6
  | Maximal number of non-zero basis functions:      539 in task     7
  | Maximal number of non-zero basis functions:      537 in task     8
  | Maximal number of non-zero basis functions:      559 in task     9
  | Maximal number of non-zero basis functions:      539 in task    10
  | Maximal number of non-zero basis functions:      546 in task    11
  | Maximal number of non-zero basis functions:      561 in task    12
  | Maximal number of non-zero basis functions:      554 in task    13
  | Maximal number of non-zero basis functions:      558 in task    14
  | Maximal number of non-zero basis functions:      551 in task    15
  | Maximal number of non-zero basis functions:      543 in task    16
  | Maximal number of non-zero basis functions:      534 in task    17
  Integrating Hamiltonian matrix: batch-based integration.
  GPU acceleration will be used when integrating the Hamiltonian matrix.
  Reporting GPU memory usage by myid 0.  Note that it is likely not the only MPI task binding to its GPU!
  Allocating        2.411 MB on GPU for hamiltonian_shell
  Allocating        0.878 MB on GPU for wave
  Allocating        0.002 MB on GPU for partition
  Allocating        0.878 MB on GPU for h_times_psi
  Time summed over all CPUs for integration: real work       35.882 s, elapsed       36.800 s
  Deallocating memory used on GPU for Hamiltonian integration.
  Integrating overlap matrix.
  Time summed over all CPUs for integration: real work       27.095 s, elapsed       27.653 s
  Deallocating overlap matrix.

  Updating Kohn-Sham eigenvalues and eigenvectors using ELSI and the ELPA eigensolver.
  Singularity check in k-point 1 (analysis for other k-points may follow below):
  Overlap matrix is not singular
  | Lowest and highest eigenvalues :  0.7800E-03,  0.8247E+01
  Finished singularity check of overlap matrix
  | Time :     0.171 s
  Starting ELPA eigensolver
  Finished Cholesky decomposition
  | Time :     0.016 s
  Finished transformation to standard eigenproblem
  | Time :     0.028 s
  Finished solving standard eigenproblem
  | Time :     0.237 s
  Finished back-transformation of eigenvectors
  | Time :     0.019 s

  Obtaining occupation numbers and electronic chemical potential using ELSI.
  | Note that, for insulating systems, the printed 'chemical potential' value is not uniquely defined.
  | It can be anywhere in the energy gap, as long as it correctly separates occupied and unoccupied states.
  | In systems with a gap, the physically relevant chemical potential is the VBM or HOMO.

  | Chemical potential (Fermi level):    -8.21688433 eV
  Writing Kohn-Sham eigenvalues.
  K-point:       1 at    0.000000    0.000000    0.000000 (in units of recip. lattice)

  State    Occupation    Eigenvalue [Ha]    Eigenvalue [eV]
      1       2.00000         -10.070366         -274.02861
      2       2.00000         -10.069959         -274.01753
      3       2.00000         -10.069123         -273.99477
      4       2.00000         -10.068748         -273.98458
      5       2.00000         -10.068645         -273.98176
      6       2.00000         -10.068288         -273.97206
      7       2.00000         -10.067803         -273.95886
      8       2.00000         -10.067631         -273.95419
      9       2.00000         -10.067389         -273.94760
     10       2.00000         -10.066889         -273.93398
     11       2.00000         -10.066888         -273.93396
     12       2.00000         -10.066541         -273.92451
     13       2.00000         -10.066360         -273.91959
     14       2.00000         -10.066310         -273.91823
     15       2.00000         -10.065967         -273.90891
     16       2.00000         -10.065754         -273.90310
     17       2.00000         -10.065432         -273.89435
     18       2.00000         -10.065417         -273.89394
     19       2.00000         -10.065379         -273.89291
     20       2.00000         -10.065037         -273.88360
     21       2.00000         -10.064967         -273.88169
     22       2.00000         -10.064718         -273.87492
     23       2.00000         -10.064481         -273.86847
     24       2.00000         -10.064433         -273.86717
     25       2.00000         -10.063906         -273.85282
     26       2.00000         -10.063684         -273.84678
     27       2.00000         -10.063459         -273.84064
     28       2.00000         -10.063282         -273.83583
     29       2.00000         -10.063032         -273.82903
     30       2.00000         -10.062888         -273.82513
     31       2.00000         -10.062787         -273.82237
     32       2.00000         -10.062682         -273.81951
     33       2.00000         -10.062600         -273.81728
     34       2.00000         -10.062585         -273.81687
     35       2.00000         -10.062435         -273.81279
     36       2.00000         -10.062324         -273.80976
     37       2.00000         -10.062238         -273.80743
     38       2.00000         -10.061910         -273.79849
     39       2.00000         -10.061882         -273.79775
     40       2.00000         -10.061556         -273.78888
     41       2.00000         -10.061326         -273.78260
     42       2.00000         -10.061211         -273.77948
     43       2.00000         -10.061049         -273.77508
     44       2.00000         -10.061029         -273.77453
     45       2.00000         -10.060981         -273.77322
     46       2.00000         -10.060841         -273.76942
     47       2.00000         -10.060808         -273.76850
     48       2.00000         -10.060789         -273.76801
     49       2.00000         -10.060631         -273.76369
     50       2.00000         -10.060628         -273.76361
     51       2.00000         -10.060554         -273.76159
     52       2.00000         -10.060219         -273.75248
     53       2.00000         -10.060169         -273.75112
     54       2.00000         -10.059989         -273.74622
     55       2.00000         -10.059886         -273.74341
     56       2.00000         -10.059778         -273.74049
     57       2.00000         -10.059580         -273.73511
     58       2.00000         -10.059512         -273.73326
     59       2.00000         -10.059454         -273.73166
     60       2.00000         -10.059296         -273.72738
     61       2.00000         -10.058742         -273.71229
     62       2.00000         -10.058305         -273.70042
     63       2.00000         -10.058236         -273.69854
     64       2.00000         -10.058053         -273.69354
     65       2.00000         -10.057980         -273.69156
     66       2.00000         -10.057878         -273.68880
     67       2.00000         -10.057135         -273.66857
     68       2.00000         -10.057071         -273.66682
     69       2.00000         -10.056965         -273.66395
     70       2.00000         -10.056891         -273.66193
     71       2.00000         -10.056151         -273.64178
[...]
  | charge radius: extent of product basis function
  | field radius: extent of its Coulomb potential
  | Species   l  charge radius    field radius  multipol momen
  |    H      1     3.910002 A      3.910002 A       -2.487223E-16 a.u.
  |    H      1     3.958095 A      3.958095 A       -2.441841E-16 a.u.
  |    H      0     4.527807 A      4.527807 A        1.268855E-16 a.u.
  |    H      0     4.527807 A      4.583499 A       -4.900954E-17 a.u.
  |    H      0     4.527807 A      4.583499 A        4.713786E-16 a.u.
  |    H      2     3.678162 A  1.011968E+04 A            0.556529 a.u.
  |    H      1     3.958095 A  1.721251E+06 A            0.841931 a.u.
  |    H      0     4.527807 A  3.866455E+12 A            0.581436 a.u.
  |    C      0     2.562483 A      2.562483 A        6.563029E-17 a.u.
  |    C      0     2.967371 A      2.967371 A        1.352164E-16 a.u.
  |    C      0     3.003870 A      3.003870 A        2.312640E-17 a.u.
  |    C      1     3.272245 A      3.272245 A       -3.835259E-17 a.u.
  |    C      0     3.312494 A      3.312494 A       -2.710381E-16 a.u.
  |    C      3     4.077671 A      4.077671 A       -1.683752E-15 a.u.
  |    C      3     4.077671 A      4.077671 A        1.412852E-15 a.u.
  |    C      1     4.496620 A      4.496620 A       -3.011059E-16 a.u.
  |    C      0     4.496620 A      4.551928 A        2.873903E-17 a.u.
  |    C      2     4.551928 A      4.551928 A       -4.610785E-16 a.u.
  |    C      2     4.551928 A      4.551928 A        7.440584E-16 a.u.
  |    C      2     4.551928 A      4.551928 A       -7.110458E-16 a.u.
  |    C      2     4.551928 A      4.551928 A       -1.935424E-16 a.u.
  |    C      0     4.551928 A      4.607917 A        2.067142E-16 a.u.
  |    C      0     4.551928 A      4.607917 A       -1.109786E-16 a.u.
  |    C      1     4.551928 A      4.607917 A       -9.951742E-17 a.u.
  |    C      1     4.551928 A      4.607917 A        1.937809E-16 a.u.
  |    C      1     4.607917 A      4.607917 A       -2.813308E-16 a.u.
  |    C      1     4.607917 A      4.607917 A       -7.330363E-17 a.u.
  |    C      2     4.607917 A      4.607917 A        1.318462E-15 a.u.
  |    C      2     4.607917 A      4.607917 A       -1.318397E-15 a.u.
  |    C      0     4.607917 A      4.664595 A        3.157826E-16 a.u.
  |    C      1     4.607917 A      4.664595 A        7.356967E-16 a.u.
  |    C      4     3.835889 A  2.962973E+02 A            4.379483 a.u.
  |    C      3     4.127827 A  1.725964E+03 A            9.005588 a.u.
  |    C      2     4.607917 A  2.608475E+04 A            9.531178 a.u.
  |    C      1     4.607917 A  2.736013E+06 A            2.127278 a.u.
  |    C      0     4.607917 A  4.399765E+12 A            0.661635 a.u.

  | Shrink_full_auxil_basis : there are       36  radial auxiliary wave functions
                            accepted and       7 rejected.
  | Shrink_full_auxil_basis : there are totally                8992 partial auxiliary wave functions.
 
  | Maximal number of product basis functions per thread :   512   512
 
  | Minimal total memory requirement for three-center overlap :      72.476 Gbs
  | Number of local auxiliary basis functions on task:      0   512
  | Number of local auxiliary basis functions on task:      1   512
  | Number of local auxiliary basis functions on task:      2   512
  | Number of local auxiliary basis functions on task:      3   512
  | Number of local auxiliary basis functions on task:      4   496
  | Number of local auxiliary basis functions on task:      5   496
  | Number of local auxiliary basis functions on task:      6   496
  | Number of local auxiliary basis functions on task:      7   496
  | Number of local auxiliary basis functions on task:      8   496
  | Number of local auxiliary basis functions on task:      9   496
  | Number of local auxiliary basis functions on task:     10   496
  | Number of local auxiliary basis functions on task:     11   496
  | Number of local auxiliary basis functions on task:     12   496
  | Number of local auxiliary basis functions on task:     13   496
  | Number of local auxiliary basis functions on task:     14   496
  | Number of local auxiliary basis functions on task:     15   496
  | Number of local auxiliary basis functions on task:     16   496
  | Number of local auxiliary basis functions on task:     17   496
  | 2D aux task distribution:      3 X      6
  | 2D block size (nb_aux_2d):     64
 
  Basis pair condensation :   1037520  -->     540536
 
 --------------------------------------------
  Constructing auxiliary basis (full product) ...
 
  Product basis:
  | charge radius: extent of product basis function
  | field radius: extent of its Coulomb potential
  | Species   l  charge radius    field radius  multipol momen
  |    H      1     3.910002 A      3.910002 A       -2.487223E-16 a.u.
  |    H      1     3.958095 A      3.958095 A       -2.441841E-16 a.u.
  |    H      0     4.527807 A      4.527807 A        1.268855E-16 a.u.
  |    H      0     4.527807 A      4.583499 A       -4.900954E-17 a.u.
  |    H      0     4.527807 A      4.583499 A        4.713786E-16 a.u.
  |    H      2     3.678162 A  1.011968E+04 A            0.556529 a.u.
  |    H      1     3.958095 A  1.721251E+06 A            0.841931 a.u.
  |    H      0     4.527807 A  3.866455E+12 A            0.581436 a.u.
  |    C      0     2.562483 A      2.562483 A        6.563029E-17 a.u.
  |    C      0     2.967371 A      2.967371 A        1.352164E-16 a.u.
  |    C      0     3.003870 A      3.003870 A        2.312640E-17 a.u.
  |    C      1     3.272245 A      3.272245 A       -3.835259E-17 a.u.
  |    C      0     3.312494 A      3.312494 A       -2.710381E-16 a.u.
  |    C      3     4.077671 A      4.077671 A       -1.683752E-15 a.u.
  |    C      3     4.077671 A      4.077671 A        1.412852E-15 a.u.
  |    C      1     4.496620 A      4.496620 A       -3.011059E-16 a.u.
  |    C      0     4.496620 A      4.551928 A        2.873903E-17 a.u.
  |    C      2     4.551928 A      4.551928 A       -4.610785E-16 a.u.
  |    C      2     4.551928 A      4.551928 A        7.440584E-16 a.u.
  |    C      2     4.551928 A      4.551928 A       -7.110458E-16 a.u.
  |    C      2     4.551928 A      4.551928 A       -1.935424E-16 a.u.
  |    C      0     4.551928 A      4.607917 A        2.067142E-16 a.u.
  |    C      0     4.551928 A      4.607917 A       -1.109786E-16 a.u.
  |    C      1     4.551928 A      4.607917 A       -9.951742E-17 a.u.
  |    C      1     4.551928 A      4.607917 A        1.937809E-16 a.u.
  |    C      1     4.607917 A      4.607917 A       -2.813308E-16 a.u.
  |    C      1     4.607917 A      4.607917 A       -7.330363E-17 a.u.
  |    C      2     4.607917 A      4.607917 A        1.318462E-15 a.u.
  |    C      2     4.607917 A      4.607917 A       -1.318397E-15 a.u.
  |    C      0     4.607917 A      4.664595 A        3.157826E-16 a.u.
  |    C      1     4.607917 A      4.664595 A        7.356967E-16 a.u.
  |    C      4     3.835889 A  2.962973E+02 A            4.379483 a.u.
  |    C      3     4.127827 A  1.725964E+03 A            9.005588 a.u.
  |    C      2     4.607917 A  2.608475E+04 A            9.531178 a.u.
  |    C      1     4.607917 A  2.736013E+06 A            2.127278 a.u.
  |    C      0     4.607917 A  4.399765E+12 A            0.661635 a.u.

  | Shrink_full_auxil_basis : there are       36  radial auxiliary wave functions
                            accepted and       7 rejected.
  | Shrink_full_auxil_basis : there are totally                8992 partial auxiliary wave functions.
 
  | Maximal number of product basis functions per thread :   512   512
 
  | Minimal total memory requirement for three-center overlap :      72.476 Gbs
  | Number of local auxiliary basis functions on task:      0   512
  | Number of local auxiliary basis functions on task:      1   512
  | Number of local auxiliary basis functions on task:      2   512
  | Number of local auxiliary basis functions on task:      3   512
  | Number of local auxiliary basis functions on task:      4   496
  | Number of local auxiliary basis functions on task:      5   496
  | Number of local auxiliary basis functions on task:      6   496
  | Number of local auxiliary basis functions on task:      7   496
  | Number of local auxiliary basis functions on task:      8   496
  | Number of local auxiliary basis functions on task:      9   496
  | Number of local auxiliary basis functions on task:     10   496
  | Number of local auxiliary basis functions on task:     11   496
  | Number of local auxiliary basis functions on task:     12   496
  | Number of local auxiliary basis functions on task:     13   496
  | Number of local auxiliary basis functions on task:     14   496
  | Number of local auxiliary basis functions on task:     15   496
  | Number of local auxiliary basis functions on task:     16   496
  | Number of local auxiliary basis functions on task:     17   496
  | 2D aux task distribution:      3 X      6
  | 2D block size (nb_aux_2d):     64
 
  Basis pair condensation :   1037520  -->     540536
dP_dE (Bohr^3) at every cycle:--->
 (1034.20663061892,0.000000000000000E+000) (-6.71118174026605,0.000000000000000E+000) (-464.573924979014,0.000000000000000E+000)
 (-6.70501949836794,0.000000000000000E+000) (1369.04065133377,0.000000000000000E+000) (-8.27604962251792,0.000000000000000E+000)
 (-464.780701353171,0.000000000000000E+000) (-8.30433613252323,0.000000000000000E+000) (1654.80464611034,0.000000000000000E+000)
DFPT polarizability (Bohr^3)        xx        yy        zz        xy        xz        yz
  | Polarizability:--->                      1034.206630619                 1369.040651334                 1654.804646110                   -6.711181740                 -464.573924979                   -8.276049623

DFPT for dielectric_constant:--->  # PARSE DFPT_dielectric_tensor
               2.403396337673999            -0.009106930469124            -0.630416906633258
              -0.009098568438312             2.857758961629208            -0.011230422806030
              -0.630697497762359            -0.011268806996743             3.245534607071095

                                               :  max(cpu_time)    wall_clock(cpu1)
  | Time for  dielectric calculation            :        0.001 s           0.001 s
===========================================================================

------------------------------------------------------------------------------
  Final output of selected total energy values:

  The following output summarizes some interesting total energy values
  at the end of a run (AFTER all relaxation, molecular dynamics, etc.).

  | Total energy of the DFT / Hartree-Fock s.c.f. calculation      :         -83267.556871521 eV
  | Final zero-broadening corrected energy (caution - metals only) :         -83267.556871521 eV
  | For reference only, the value of 1 Hartree used in FHI-aims is :             27.211384500 eV
  | For reference only, the overall average (free atom contribution
  | + realspace contribution) of the electrostatic potential after
  | s.c.f. convergence is                                          :             -7.715788802 eV

  Before relying on these values, please be sure to understand exactly which
  total energy value is referred to by a given number. Different objects may
  all carry the same name 'total energy'. Definitions:

  Total energy of the DFT / Hartree-Fock s.c.f. calculation:
  | Note that this energy does not include ANY quantities calculated after the
  | s.c.f. cycle, in particular not ANY RPA, MP2, etc. many-body perturbation terms.

  Final zero-broadening corrected energy:
  | For metallic systems only, a broadening of the occupation numbers at the Fermi
  | level can be extrapolated back to zero broadening by an electron-gas inspired
  | formula. For all systems that are not real metals, this value can be
  | meaningless and should be avoided.

------------------------------------------------------------------------------
  Methods described in the following list of references were used in this FHI-aims run.
  If you publish the results, please make sure to cite these reference if they apply.
  FHI-aims is an academic code, and for our developers (often, Ph.D. students
  and postdocs), scientific credit in the community is essential.
  Thank you for helping us!

  For any use of FHI-aims, please cite:

    Volker Blum, Ralf Gehrke, Felix Hanke, Paula Havu, Ville Havu,
    Xinguo Ren, Karsten Reuter, and Matthias Scheffler
    'Ab initio molecular simulations with numeric atom-centered orbitals'
    Computer Physics Communications 180, 2175-2196 (2009)
    http://doi.org/10.1016/j.cpc.2009.06.022


  For Hartree-Fock, hybrid functionals, or many-body perturbation theory used in your run, please cite:

    Xinguo Ren, Patrick Rinke, Volker Blum, Juergen Wieferink, Alex Tkatchenko,
    Andrea Sanfilippo, Karsten Reuter, and Matthias Scheffler,
    'Resolution-of-identity approach to Hartree-Fock, hybrid density functionals,
    RPA, MP2, and GW with numeric atom-centered orbital basis functions'
    New Journal of Physics 14, 053020 (2012).
    http://doi.org/10.1088/1367-2630/14/5/053020


  The provided symmetry information was generated with SPGlib:

    Atsushi Togo, Yusuke Seto, Dimitar Pashov
    SPGlib 1.7.3 obtained from http://spglib.sourceforge.net
    Copyright (C) 2008 Atsushi Togo


  The DFPT (perturbation by an electric field) part of the code was used.
  Here is the corresponding reference:

    Honghui Shang, Nathaniel Raimbault, Mariana Rossi,
    Christian Carbogno, Patrick Rinke and Matthias Scheffler,
    'All-Electron, Real-Space Perturbation Theory for Homogeneous
    Electric Fields: Theory, Implementation, and Application within dft'
    New Journal of Physics, 20(7):073040, 2018


  The ELSI infrastructure was used in your run to solve the Kohn-Sham electronic structure.
  Please check out http://elsi-interchange.org to learn more.
  If scalability is important for your project, please acknowledge ELSI by citing:

    V. W-z. Yu, F. Corsetti, A. Garcia, W. P. Huhn, M. Jacquelin, W. Jia,
    B. Lange, L. Lin, J. Lu, W. Mi, A. Seifitokaldani, A. Vazquez-Mayagoitia,
    C. Yang, H. Yang, and V. Blum
    'ELSI: A unified software interface for Kohn-Sham electronic structure solvers'
    Computer Physics Communications 222, 267-285 (2018).
    http://doi.org/10.1016/j.cpc.2017.09.007


  For the real-space grid partitioning and parallelization used in this calculation, please cite:

    Ville Havu, Volker Blum, Paula Havu, and Matthias Scheffler,
    'Efficient O(N) integration for all-electron electronic structure calculation'
    'using numerically tabulated basis functions'
    Journal of Computational Physics 228, 8367-8379 (2009).
    http://doi.org/10.1016/j.jcp.2009.08.008


  The high-level electronic structure method used in your calculation
  employed our efficient localized resolution of identity for the Coulomb operator.
  Some calculations, especially large-scale hybrid density functional theory,
  are only possible thanks to this development. For this feature, please cite:

    Arvid Ihrig, Juergen Wieferink, Igor Ying Zhang, Matti Ropo, Xinguo Ren,
    Patrick Rinke, Matthias Scheffler, and Volker Blum,
    'Accurate localized resolution of identity approach for linear-scaling
    hybrid density functionals and for many-body perturbation theory'
    New Journal of Physics 117, 093020 (2015).
    http://doi.org/10.1088/1367-2630/17/9/093020

  Of course, there are many other important community references, e.g., those cited in the
  above references. Our list is limited to references that describe implementations in the
  FHI-aims code. The reason is purely practical (length of this list) - please credit others as well.

------------------------------------------------------------
          Leaving FHI-aims.
          Date     :  20230125, Time     :  180025.657

          Computational steps:
          | Number of self-consistency cycles          :           46
          | Number of SCF (re)initializations          :            1
          | Number of coupled perturbed self-consistency cycles          :            0
          | Number of CPSCF (re)initializations          :            0

          Detailed time accounting                     :  max(cpu_time)    wall_clock(cpu1)
          | Total time                                  :     1573.878 s        1608.590 s
          | GPU initialization                          :        4.803 s          36.111 s
          | Preparation time                            :        0.081 s           0.077 s
          | Boundary condition initalization            :        5.699 s           5.700 s
          | Grid partitioning                           :        1.176 s           1.176 s
          | Preloading free-atom quantities on grid     :        3.498 s           3.498 s
          | Free-atom superposition energy              :        0.574 s           0.574 s
          | Total time for integrations                 :       21.690 s          21.916 s
          | Product basis setup: Total time             :        0.000 s           0.000 s
          | Product basis: | 2-center integrations     :(       0.000 s)  (       0.000 s)
          | Product basis: | LVL 3-center & coefficient:(       0.000 s)  (       0.000 s)
          | Total time for solution of K.-S. equations  :        4.233 s           4.355 s
          | Total time for density update               :       19.381 s          19.723 s
          | Total time for mixing & preconditioning     :       11.643 s          11.648 s
          | Total time for Hartree multipole update     :        0.097 s           0.097 s
          | Total time for Hartree multipole sum        :       47.847 s          47.934 s
          | Total time for total energy evaluation      :        0.015 s           0.006 s
          | Total time for DFPT                         :     1452.140 s        1452.646 s
          | Total time first_order_DM                   :        1.792 s           1.790 s
          | Total time first_order_density              :      290.097 s         290.166 s
          | Total time first_order_potential            :      114.370 s         114.403 s
          | Total time first_order_H                    :      613.728 s         613.865 s
          | Total time solving of Sternheimer equations :        1.730 s           1.731 s
          | Total time for dielectric constant          :        0.001 s           0.001 s
          | Total time momentum matrix                  :        0.000 s           0.000 s

          GPU acceleration has been used for charge density update.
          GPU acceleration has been used for real-space Hamiltonian integration.
          Due to GPU usage, wall_clock(cpu1) will give a more reliable estimate for timings.

          Partial memory accounting:
          | Residual value for overall tracked memory usage across tasks:     0.000000 MB (should be 0.000000 MB)
          | Peak values for overall tracked memory usage:
          |   Minimum:      292.821 MB (on task  0 after allocating DFPT_pulay_mixing::pulay_mix::alphas)
          |   Maximum:      292.821 MB (on task  0 after allocating DFPT_pulay_mixing::pulay_mix::alphas)
          |   Average:      292.821 MB
          | Largest tracked array allocation:
          |   Minimum:      103.221 MB (DFPT_pulay_mixing::initialize_pulay_mixing::X_in_diffs on task  0)
          |   Maximum:      103.221 MB (DFPT_pulay_mixing::initialize_pulay_mixing::X_in_diffs on task  0)
          |   Average:      103.221 MB
          Note:  These values currently only include a subset of arrays which are explicitly tracked.
          The "true" memory usage will be greater.

          Have a nice day.
------------------------------------------------------------
