------------------------------------------------------------
          Invoking FHI-aims ...

          When using FHI-aims, please cite the following reference:

            Volker Blum, Ralf Gehrke, Felix Hanke, Paula Havu,
            Ville Havu, Xinguo Ren, Karsten Reuter, and Matthias Scheffler,
            'Ab Initio Molecular Simulations with Numeric Atom-Centered Orbitals',
            Computer Physics Communications 180, 2175-2196 (2009)

          In addition, many other developments in FHI-aims are likely important for
          your particular application. A partial list of references is given at the end of
          this file. Thank you for giving credit to the authors of these developments.

          For any questions about FHI-aims, please visit our slack channel at

            https://fhi-aims.slack.com

          and our main development and support site at

            https://aims-git.rz-berlin.mpg.de .

          The latter site, in particular, has a wiki to collect information, as well
          as an issue tracker to log discussions, suggest improvements, and report issues
          or bugs. https://aims-git.rz-berlin.mpg.de is also the main development site
          of the project and all new and updated code versions can be obtained there.
          Please send an email to aims-coordinators@fhi-berlin.mpg.de and we will add
          you to these sites. They are for you and everyone is welcome there.

------------------------------------------------------------



  Date     :  20230120, Time     :  132635.790
  Time zero on CPU 1             :   0.385199000000000E+00  s.
  Internal wall clock time zero  :           443453195.790  s.

  FHI-aims created a unique identifier for this run for later identification
  aims_uuid : F8A8FE8E-6A95-4FB9-AFD7-2620873E95B7

  Build configuration of the current instance of FHI-aims
  -------------------------------------------------------
  FHI-aims version      : 220829
  Commit number         : 9895fc21d
  CMake host system     : Linux-5.3.18-150300.59.68-default
  CMake version         : 3.17.0
  Fortran compiler      : /mpcdf/soft/SLE_15/packages/x86_64/intel_oneapi/2021.3/mpi/2021.3.0/bin/mpiifort (Intel) version 20.2.3.20210609
  Fortran compiler flags: -O3 -ip -fp-model precise
  C compiler            : /mpcdf/soft/SLE_15/packages/x86_64/intel/2021.3.0/bin/icc (Intel) version 20.2.3.20210609
  C compiler flags      : -O3 -ip -fp-model precise -std=gnu99
  CUDA compiler         : /mpcdf/soft/SLE_15/packages/x86_64/cuda/11.6.2/bin/nvcc
  CUDA compiler flags   : -O3 -DAdd_ -lcublas
  ELPA2 kernel          : AVX512
  Using MPI
  Using ScaLAPACK
  Using LibXC
  Using CUDA
  Using i-PI
  Using RLSY
  Linking against: /mpcdf/soft/SLE_15/packages/x86_64/cuda/11.6.2/lib64/libcublas.so
                   /mpcdf/soft/SLE_15/packages/x86_64/cuda/11.6.2/lib64/libcudart.so
                   /mpcdf/soft/SLE_15/packages/x86_64/intel_oneapi/2021.3/mkl/latest/lib/intel64/libmkl_intel_lp64.so
                   /mpcdf/soft/SLE_15/packages/x86_64/intel_oneapi/2021.3/mkl/latest/lib/intel64/libmkl_sequential.so
                   /mpcdf/soft/SLE_15/packages/x86_64/intel_oneapi/2021.3/mkl/latest/lib/intel64/libmkl_core.so
                   /mpcdf/soft/SLE_15/packages/x86_64/intel_oneapi/2021.3/mkl/latest/lib/intel64/libmkl_blacs_intelmpi_lp64.so
                   /mpcdf/soft/SLE_15/packages/x86_64/intel_oneapi/2021.3/mkl/latest/lib/intel64/libmkl_scalapack_lp64.so

  Using       18 parallel tasks.
  Task        0 on host adag005 reporting.
  Task        1 on host adag005 reporting.
  Task        2 on host adag005 reporting.
  Task        3 on host adag005 reporting.
  Task        4 on host adag005 reporting.
  Task        5 on host adag005 reporting.
  Task        6 on host adag005 reporting.
  Task        7 on host adag005 reporting.
  Task        8 on host adag005 reporting.
  Task        9 on host adag005 reporting.
  Task       10 on host adag005 reporting.
  Task       11 on host adag005 reporting.
  Task       12 on host adag005 reporting.
  Task       13 on host adag005 reporting.
  Task       14 on host adag005 reporting.
  Task       15 on host adag005 reporting.
  Task       16 on host adag005 reporting.
  Task       17 on host adag005 reporting.

  Performing system and environment tests:
  | Environment variable OMP_NUM_THREADS correctly set to 1.
  | Checking for ScaLAPACK...
  | Testing pdtran()...
  | All pdtran() tests passed.

  Obtaining array dimensions for all initial allocations:
  
  -----------------------------------------------------------------------
  Parsing control.in (first pass over file, find array dimensions only).
  The contents of control.in will be repeated verbatim below
  unless switched off by setting 'verbatim_writeout .false.' .
  in the first line of control.in .
  -----------------------------------------------------------------------
  
  #
  # Input for polarizability replays on generic oligoacene molecular crystals (light settings,  LDA+MBD).
  #
  #########################################################################################
  #
  #  Physical model
  #
    xc                 pw-lda
    spin               none
    relativistic       none
    charge             0.0
    k_grid 	     2 1 1
    DFPT dielectric
  #
  #  GPU acceleration
  #
  # Turns on GPU acceleration everywhere
    use_gpu
  
  # Turns OFF GPU acceleration of ELPA - may be necessary if GPU ELPA is slow
    elsi_elpa_gpu 0
  #
  #  Relaxation
  #
  #  relax_geometry trm 1E-3
  #  relax_unit_cell fixed_angles
  #
  #  SCF convergence        #
    charge_mix_param   0.75
    #sc_accuracy_rho 1E-4
  #
  # i-PI communication
  #
  compute_forces .false.
  # use_pimd_wrapper 130.183.223.27 26118
  #communicate_pimd_wrapper polarizability
  #output_level MD_light
  #
  # Output SALTED info
    ri_density_restart write
    ri_rho1 write
    ri_full_output .true.
  #  sc_accuracy_rho    1d-6
    default_prodbas_acc 1e-6
    default_max_l_prodbas 6
  #
  #
  ################################################################################
  #
  #  FHI-aims code project
  #  VB, Fritz-Haber Institut, 2009
  #
  #  Suggested "light" defaults for H atom (to be pasted into control.in file)
  #  Be sure to double-check any results obtained with these settings for post-processing,
  #  e.g., with the "tight" defaults and larger basis sets.
  #
  ################################################################################
    species        H
  #     global species definitions
      nucleus             1
      mass                1.00794
  #
      l_hartree           4
  #
      cut_pot             3.5  1.5  1.0
      basis_dep_cutoff    1e-4
  #
      radial_base         24 5.0
      radial_multiplier   1
      angular_grids       specified
        division   0.2421   50
        division   0.3822  110
        division   0.4799  194
        division   0.5341  302
  #      division   0.5626  434
  #      division   0.5922  590
  #      division   0.6542  770
  #      division   0.6868 1202
  #      outer_grid  770
        outer_grid  302
  ################################################################################
  #
  #  Definition of "minimal" basis
  #
  ################################################################################
  #     valence basis states
      valence      1  s   1.
  #     ion occupancy
      ion_occ      1  s   0.5
  ################################################################################
  #
  #  Suggested additional basis functions. For production calculations,
  #  uncomment them one after another (the most important basis functions are
  #  listed first).
  #
  #  Basis constructed for dimers: 0.5 A, 0.7 A, 1.0 A, 1.5 A, 2.5 A
  #
  ################################################################################
  #  "First tier" - improvements: -1014.90 meV to -62.69 meV
       hydro 2 s 2.1
       hydro 2 p 3.5
  #  "Second tier" - improvements: -12.89 meV to -1.83 meV
  #     hydro 1 s 0.85
  #     hydro 2 p 3.7
  #     hydro 2 s 1.2
  #     hydro 3 d 7
  #  "Third tier" - improvements: -0.25 meV to -0.12 meV
  #     hydro 4 f 11.2
  #     hydro 3 p 4.8
  #     hydro 4 d 9
  #     hydro 3 s 3.2
  ################################################################################
  ################################################################################
  #
  #  FHI-aims code project
  #  VB, Fritz-Haber Institut, 2009
  #
  #  Suggested "light" defaults for C atom (to be pasted into control.in file)
  #  Be sure to double-check any results obtained with these settings for post-processing,
  #  e.g., with the "tight" defaults and larger basis sets.
  #
  ################################################################################
    species        C
  #     global species definitions
      nucleus             6
      mass                12.0107
  #
      l_hartree           4
  #
      cut_pot             3.5  1.5  1.0
      basis_dep_cutoff    1e-4
  #
      radial_base         34 5.0
      radial_multiplier   1
      angular_grids specified
        division   0.3326   50
        division   0.5710  110
        division   0.7727  194
        division   0.8772  302
  #      division   0.9334  434
  #      division   0.9625  590
  #      division   0.9924  770
  #      division   1.0230  974
  #      division   1.4589 1202
  #     outer_grid  974
       outer_grid 302
  ################################################################################
  #
  #  Definition of "minimal" basis
  #
  ################################################################################
  #     valence basis states
      valence      2  s   2.
      valence      2  p   2.
  #     ion occupancy
      ion_occ      2  s   1.
      ion_occ      2  p   1.
  ################################################################################
  #
  #  Suggested additional basis functions. For production calculations,
  #  uncomment them one after another (the most important basis functions are
  #  listed first).
  #
  #  Constructed for dimers: 1.0 A, 1.25 A, 1.5 A, 2.0 A, 3.0 A
  #
  ################################################################################
  #  "First tier" - improvements: -1214.57 meV to -155.61 meV
       hydro 2 p 1.7
       hydro 3 d 6
       hydro 2 s 4.9
  #  "Second tier" - improvements: -67.75 meV to -5.23 meV
  #     hydro 4 f 9.8
  #     hydro 3 p 5.2
  #     hydro 3 s 4.3
  #     hydro 5 g 14.4
  #     hydro 3 d 6.2
  #  "Third tier" - improvements: -2.43 meV to -0.60 meV
  #     hydro 2 p 5.6
  #     hydro 2 s 1.4
  #     hydro 3 d 4.9
  #     hydro 4 f 11.2
  #  "Fourth tier" - improvements: -0.39 meV to -0.18 meV
  #     hydro 2 p 2.1
  #     hydro 5 g 16.4
  #     hydro 4 d 13.2
  #     hydro 3 s 13.6
  #     hydro 4 f 17.6
  #  Further basis functions - improvements: -0.08 meV and below
  #     hydro 3 s 2
  #     hydro 3 p 6
  #     hydro 4 d 20
  
  -----------------------------------------------------------------------
  Completed first pass over input file control.in .
  -----------------------------------------------------------------------
  
  
  -----------------------------------------------------------------------
  Parsing geometry.in (first pass over file, find array dimensions only).
  The contents of geometry.in will be repeated verbatim below
  unless switched off by setting 'verbatim_writeout .false.' .
  in the first line of geometry.in .
  -----------------------------------------------------------------------
  
  #=======================================================
  # FHI-aims file: /ada/ptmp/mpsd/alewis/naphthalene/qmdata/data/geoms/332.in
  # Created using the Atomic Simulation Environment (ASE)
  # Thu Jan 19 15:19:17 2023
  #=======================================================
  lattice_vector 8.1020000000000003 0.0000000000000000 0.0000000000000000
  lattice_vector 0.0000000000000000 11.8800000000000008 0.0000000000000000
  lattice_vector -9.7850918486534706 0.0000000000000000 14.2571119625755713
  atom -0.9619240000000000 0.0986834000000000 2.4140999999999999 C
  atom 0.2077080000000000 2.9014500000000001 4.8652899999999999 C
  atom 4.2549700000000001 6.0854699999999999 4.8525600000000004 C
  atom 3.2782800000000001 2.7972199999999998 2.4052300000000000 C
  atom -0.0976591000000000 0.9195340000000000 1.7452300000000001 C
  atom -0.5358940000000000 3.8413700000000000 5.5799599999999998 C
  atom 3.5219800000000001 5.1555299999999997 5.5202299999999997 C
  atom 3.9839799999999999 1.9138800000000000 1.6174200000000001 C
  atom 0.3318060000000000 0.5975460000000000 0.4147300000000000 C
  atom -0.8899899999999999 3.5897100000000002 6.9401200000000003 C
  atom 3.1185800000000001 5.3507400000000001 6.8762499999999998 C
  atom 4.3432800000000000 2.2753500000000000 0.2980240000000000 C
  atom -3.8165399999999998 1.4600599999999999 6.4502100000000002 C
  atom 3.2242700000000002 4.4678500000000003 0.6432860000000000 C
  atom 7.2085400000000002 4.4927599999999996 0.6850260000000000 C
  atom 0.3359380000000000 1.4225399999999999 6.7857700000000003 C
  atom -3.5089399999999999 1.0939700000000001 5.1772200000000002 C
  atom 2.8239500000000000 4.0544599999999997 1.9079100000000000 C
  atom 6.9497600000000004 4.8829500000000001 1.9822700000000000 C
  atom 0.6403340000000000 1.6972000000000000 5.4870700000000001 C
  atom -1.3069599999999999 0.3482730000000000 3.4088900000000000 H
  atom 0.4939670000000000 3.2004299999999999 3.8661300000000001 H
  atom 4.5921700000000003 5.9561999999999999 3.8308000000000000 H
  atom 2.9694400000000001 2.5375000000000001 3.4196700000000000 H
  atom 0.2665540000000000 1.8858900000000001 2.1290900000000001 H
  atom -0.8104220000000000 4.7855499999999997 5.1155099999999996 H
  atom 3.2780900000000002 4.2161400000000002 5.0462199999999999 H
  atom 4.2339700000000002 0.8742750000000000 1.9246500000000000 H
  atom -3.4380199999999999 2.4174099999999998 6.8809600000000000 H
  atom 2.9947400000000002 5.4714000000000000 0.2789870000000000 H
  atom 6.9484599999999999 3.5225700000000000 0.3240150000000000 H
  atom 0.6831590000000000 0.5165660000000000 7.3050199999999998 H
  atom -2.8967299999999998 1.7164699999999999 4.5191699999999999 H
  atom 2.1793600000000000 4.6646400000000003 2.5106099999999998 H
  atom 6.4601600000000001 4.2248799999999997 2.6720199999999998 H
  atom 1.2753900000000000 0.9768820000000000 4.9491899999999998 H
  atom -5.5791000000000004 0.1791770000000000 9.5093899999999998 C
  atom -4.6703200000000002 3.1116799999999998 11.9489999999999998 C
  atom -0.7212020000000000 5.6819400000000000 11.9524000000000008 C
  atom -1.6483099999999999 2.9164699999999999 9.6061800000000002 C
  atom -4.8524099999999999 1.0037000000000000 8.6499000000000006 C
  atom -5.4371200000000002 3.9494799999999999 12.7529000000000003 C
  atom -1.4490200000000000 4.8739100000000004 12.7787000000000006 C
  atom -0.8819910000000000 2.0486499999999999 8.8531800000000000 C
  atom -4.6097900000000003 0.6460550000000000 7.3199600000000000 C
  atom -5.8609799999999996 3.5654100000000000 14.0309000000000008 C
  atom -1.8132900000000001 5.3041299999999998 14.0794999999999995 C
  atom -0.4699230000000000 2.3308300000000002 7.5338000000000003 C
  atom -8.6871399999999994 1.4878199999999999 13.9007000000000005 C
  atom -1.5728700000000000 4.5135899999999998 7.7455699999999998 C
  atom 2.3401299999999998 4.3700700000000001 7.5479500000000002 C
  atom -4.7496400000000003 1.3911600000000000 13.6824999999999992 C
  atom -8.3516100000000009 1.1400300000000001 12.5900999999999996 C
  atom -2.0023599999999999 4.1564100000000002 9.0498399999999997 C
  atom 1.8883000000000001 4.6197800000000004 8.8219399999999997 C
  atom -4.3401699999999996 1.8271900000000001 12.4451000000000001 C
  atom -5.7583099999999998 0.4481400000000000 10.5714000000000006 H
  atom -4.3692200000000003 3.3894700000000002 10.9525000000000006 H
  atom -0.5048140000000000 5.3640200000000000 10.9374000000000002 H
  atom -2.0041699999999998 2.5774200000000000 10.5844000000000005 H
  atom -4.4050399999999996 1.9083699999999999 9.0436999999999994 H
  atom -5.7088000000000001 4.9344700000000001 12.3838000000000008 H
  atom -1.7658300000000000 3.9001299999999999 12.4204000000000008 H
  atom -0.5293620000000000 1.1179699999999999 9.3058499999999995 H
  atom -8.2986599999999999 2.4107300000000000 14.3750999999999998 H
  atom -1.8546499999999999 5.5064000000000002 7.3550700000000004 H
  atom 2.0127299999999999 3.4508999999999999 7.0623699999999996 H
  atom -4.4635800000000003 0.3888530000000000 14.0112000000000005 H
  atom -7.6494400000000002 1.7841400000000001 12.0251999999999999 H
  atom -2.5444499999999999 4.9096900000000003 9.6219000000000001 H
  atom 1.2439899999999999 3.8880599999999998 9.2943200000000008 H
  atom -3.7739600000000002 1.1507300000000000 11.7887000000000004 H
  atom -0.7851089999999999 6.1909400000000003 2.4458099999999998 C
  atom 0.0365949000000000 9.1089699999999993 4.7864300000000002 C
  atom 4.0925200000000004 11.7080000000000002 4.7085800000000004 C
  atom 3.3264399999999998 8.7876399999999997 2.4170300000000000 C
  atom -0.0492842000000000 7.0036699999999996 1.5734800000000000 C
  atom -0.7760620000000000 9.9164600000000007 5.5480299999999998 C
  atom 3.3308399999999998 10.8912999999999993 5.5092299999999996 C
  atom 4.0925700000000003 7.9469500000000002 1.6686600000000000 C
  atom 0.3035430000000000 6.5822200000000004 0.2715980000000000 C
  atom -1.0071099999999999 9.5785800000000005 6.8993399999999996 C
  atom 3.0166200000000001 11.2652000000000001 6.8489199999999997 C
  atom 4.4142299999999999 8.2546300000000006 0.3060540000000000 C
  atom -3.9198800000000000 7.5283600000000002 6.8193400000000004 C
  atom 3.2086600000000001 10.4024999999999999 0.6001280000000000 C
  atom 7.1531900000000004 10.3900000000000006 0.5984250000000000 C
  atom 0.2450920000000000 7.4949100000000000 6.6176300000000001 C
  atom -3.5021000000000000 7.3238300000000001 5.5059199999999997 C
  atom 2.8231799999999998 10.0052000000000003 1.8652800000000000 C
  atom 6.7208199999999998 10.7378000000000000 1.8561399999999999 C
  atom 0.4871160000000000 7.8412699999999997 5.3060400000000003 C
  atom -1.1163700000000001 6.4858799999999999 3.4384299999999999 H
  atom 0.2634250000000000 9.3710599999999999 3.7379199999999999 H
  atom 4.3435699999999997 11.3880999999999997 3.6807799999999999 H
  atom 2.9967000000000001 8.4806200000000000 3.4182500000000000 H
  atom 0.2036070000000000 8.0403500000000001 1.8942900000000000 H
  atom -1.1645399999999999 10.8743999999999996 5.1918600000000001 H
  atom 3.0563600000000002 9.8853100000000005 5.2149500000000000 H
  atom 4.4149200000000004 6.9617800000000001 2.0522800000000001 H
  atom -3.6223800000000002 8.4338499999999996 7.3631599999999997 H
  atom 2.8073399999999999 11.3293999999999997 0.1695580000000000 H
  atom 6.8754799999999996 9.3983600000000003 0.2285780000000000 H
  atom 0.5461960000000000 6.5233999999999996 7.0315700000000003 H
  atom -2.9112000000000000 8.0511499999999998 4.9567399999999999 H
  atom 2.1714699999999998 10.6410999999999998 2.4475300000000000 H
  atom 6.1737299999999999 10.0561000000000007 2.4828500000000000 H
  atom 1.1452599999999999 7.2277199999999997 4.6273299999999997 H
  atom -5.8792400000000002 5.8109400000000004 9.4863800000000005 C
  atom -4.7350500000000002 8.9991000000000003 11.9197000000000006 C
  atom -0.6438280000000000 11.7851999999999997 12.0321999999999996 C
  atom -1.5040199999999999 8.9150200000000002 9.5847099999999994 C
  atom -5.1307900000000002 6.7668900000000001 8.8534299999999995 C
  atom -5.3963400000000004 9.8866200000000006 12.7567000000000004 C
  atom -1.4216700000000000 10.9250000000000007 12.7629999999999999 C
  atom -0.7496950000000000 8.0675299999999996 8.8086900000000004 C
  atom -4.6358699999999997 6.5497199999999998 7.5419999999999998 C
  atom -5.7760699999999998 9.5501199999999997 14.0749999999999993 C
  atom -1.7967500000000001 11.2494999999999994 14.1072000000000006 C
  atom -0.4791410000000000 8.3848500000000001 7.4605199999999998 C
  atom -8.6738800000000005 7.3956400000000002 13.6654999999999998 C
  atom -1.7674900000000000 10.4549000000000003 7.7445300000000001 C
  atom 2.2900600000000000 10.4076000000000004 7.7046099999999997 C
  atom -4.6992300000000000 7.3788099999999996 13.7065999999999999 C
  atom -8.3623999999999992 6.9547800000000004 12.4059000000000008 C
  atom -2.0060400000000000 10.1632999999999996 9.0627999999999993 C
  atom 2.0678999999999998 10.7736999999999998 9.0249199999999998 C
  atom -4.3826000000000001 7.7072900000000004 12.4143000000000008 C
  atom -6.2798800000000004 6.0070199999999998 10.4983000000000004 H
  atom -4.4839000000000002 9.2334399999999999 10.8707999999999991 H
  atom -0.3473540000000000 11.4700000000000006 11.0534999999999997 H
  atom -1.6368199999999999 8.7173999999999996 10.6407000000000007 H
  atom -4.8996599999999999 7.7203999999999997 9.3195399999999999 H
  atom -5.6871200000000002 10.8597000000000001 12.4276000000000000 H
  atom -1.7898900000000000 9.9822799999999994 12.3581000000000003 H
  atom -0.3343610000000000 7.1283899999999996 9.2286400000000004 H
  atom -8.1927699999999994 8.2985799999999994 13.9914000000000005 H
  atom -2.1538800000000000 11.3795999999999999 7.3029900000000003 H
  atom 1.9432000000000000 9.4208499999999997 7.3759600000000001 H
  atom -4.3831499999999997 6.4159100000000002 14.1486000000000001 H
  atom -7.7265600000000001 7.5736499999999998 11.7517999999999994 H
  atom -2.5935999999999999 10.8523999999999994 9.6860800000000005 H
  atom 1.4956900000000000 10.1204000000000001 9.6900999999999993 H
  atom -3.8810300000000000 6.9664400000000004 11.7965000000000000 H
  
  -----------------------------------------------------------------------
  Completed first pass over input file geometry.in .
  -----------------------------------------------------------------------
  

  Basic array size parameters:
  | Number of species                 :        2
  | Number of atoms                   :      144
  | Number of lattice vectors         :        3
  | Max. basis fn. angular momentum   :        2
  | Max. atomic/ionic basis occupied n:        2
  | Max. number of basis fn. types    :        2
  | Max. radial fns per species/type  :        3
  | Max. logarithmic grid size        :     1277
  | Max. radial integration grid size :       34
  | Max. angular integration grid size:      302
  | Max. angular grid division number :        8
  | Radial grid for Hartree potential :     1277
  | Number of spin channels           :        1

------------------------------------------------------------
          Reading file control.in.
------------------------------------------------------------
  XC: Using Perdew-Wang parametrisation of Ceperley-Alder LDA.
  Spin treatment: No spin polarisation.
  Non-relativistic treatment of kinetic energy.
  Charge =   0.000000E+00: Neutral system requested explicitly.
  Found k-point grid:         2         1         1
  DFPT calculation will begin after the DFT/HF calculation.
  Charge density mixing - mixing parameter:     0.7500
  Forces will not be computed.
 
  Reading configuration options for species H                   .
  | Found nuclear charge :   1.0000
  | Found atomic mass :    1.00794000000000      amu
  | Found l_max for Hartree potential  :   4
  | Found cutoff potl. onset [A], width [A], scale factor :    3.50000    1.50000    1.00000
  | Threshold for basis-dependent cutoff potential is   0.100000E-03
  | Found data for basic radial integration grid :    24 points, outermost radius =    5.000 A
  | Found multiplier for basic radial grid :   1
  | Found angular grid specification: user-specified.
  | Specified grid contains     5 separate shells.
  | Check grid settings after all constraints further below.
  | Found free-atom valence shell :  1 s   1.000
  | No ionic wave fns used. Skipping ion_occ.
  | Found hydrogenic basis function :  2 s   2.100
  | Found hydrogenic basis function :  2 p   3.500
  Species H                   : Missing cutoff potential type.
  Defaulting to exp(1/x)/(1-x)^2 type cutoff potential.
  Species H : No 'logarithmic' tag. Using default grid for free atom:
  | Default logarithmic grid data [bohr] : 0.1000E-03 0.1000E+03 0.1012E+01
  Species H : On-site basis accuracy parameter (for Gram-Schmidt orthonormalisation) not specified.
  Using default value basis_acc =  0.1000000E-03.
  Species H                   : Using default innermost maximum threshold i_radial=  2 for radial functions.
  Species H                   : Default cutoff onset for free atom density etc. : 0.35000000E+01 AA.
  Species H                   : Basic radial grid will be enhanced according to radial_multiplier =   1, to contain    24 grid points.
 
  Reading configuration options for species C                   .
  | Found nuclear charge :   6.0000
  | Found atomic mass :    12.0107000000000      amu
  | Found l_max for Hartree potential  :   4
  | Found cutoff potl. onset [A], width [A], scale factor :    3.50000    1.50000    1.00000
  | Threshold for basis-dependent cutoff potential is   0.100000E-03
  | Found data for basic radial integration grid :    34 points, outermost radius =    5.000 A
  | Found multiplier for basic radial grid :   1
  | Found angular grid specification: user-specified.
  | Specified grid contains     5 separate shells.
  | Check grid settings after all constraints further below.
  | Found free-atom valence shell :  2 s   2.000
  | Found free-atom valence shell :  2 p   2.000
  | No ionic wave fns used. Skipping ion_occ.
  | No ionic wave fns used. Skipping ion_occ.
  | Found hydrogenic basis function :  2 p   1.700
  | Found hydrogenic basis function :  3 d   6.000
  | Found hydrogenic basis function :  2 s   4.900
  Species C                   : Missing cutoff potential type.
  Defaulting to exp(1/x)/(1-x)^2 type cutoff potential.
  Species C : No 'logarithmic' tag. Using default grid for free atom:
  | Default logarithmic grid data [bohr] : 0.1000E-03 0.1000E+03 0.1012E+01
  Species C : On-site basis accuracy parameter (for Gram-Schmidt orthonormalisation) not specified.
  Using default value basis_acc =  0.1000000E-03.
  Species C                   : Using default innermost maximum threshold i_radial=  2 for radial functions.
  Species C                   : Default cutoff onset for free atom density etc. : 0.35000000E+01 AA.
  Species C                   : Basic radial grid will be enhanced according to radial_multiplier =   1, to contain    34 grid points.
 
  Finished reading input file 'control.in'.
 
------------------------------------------------------------


------------------------------------------------------------
          Reading geometry description geometry.in.
------------------------------------------------------------
  | The smallest distance between any two atoms is         1.06735148 AA.
  | The first atom of this pair is atom number                     15 .
  | The second atom of this pair is atom number                    31 .
  | Wigner-Seitz cell of the first atom image           0     0     0 .
  | (The Wigner-Seitz cell of the second atom is 0 0 0  by definition.)

  Symmetry information by spglib:
  | Precision set to  0.1E-04
  | Number of Operations  : 1
  | Space group           : 1
  | International         : P1
  | Schoenflies           : C1^1
  Input structure read successfully.
  The structure contains      144 atoms,  and a total of        544.000 electrons.

  Input geometry:
  | Unit cell:
  |        8.10200000        0.00000000        0.00000000
  |        0.00000000       11.88000000        0.00000000
  |       -9.78509185        0.00000000       14.25711196
  | Atomic structure:
  |       Atom                x [A]            y [A]            z [A]
  |    1: Species C            -0.96192400        0.09868340        2.41410000
  |    2: Species C             0.20770800        2.90145000        4.86529000
  |    3: Species C             4.25497000        6.08547000        4.85256000
  |    4: Species C             3.27828000        2.79722000        2.40523000
  |    5: Species C            -0.09765910        0.91953400        1.74523000
  |    6: Species C            -0.53589400        3.84137000        5.57996000
  |    7: Species C             3.52198000        5.15553000        5.52023000
  |    8: Species C             3.98398000        1.91388000        1.61742000
  |    9: Species C             0.33180600        0.59754600        0.41473000
  |   10: Species C            -0.88999000        3.58971000        6.94012000
  |   11: Species C             3.11858000        5.35074000        6.87625000
  |   12: Species C             4.34328000        2.27535000        0.29802400
  |   13: Species C            -3.81654000        1.46006000        6.45021000
  |   14: Species C             3.22427000        4.46785000        0.64328600
  |   15: Species C             7.20854000        4.49276000        0.68502600
  |   16: Species C             0.33593800        1.42254000        6.78577000
  |   17: Species C            -3.50894000        1.09397000        5.17722000
  |   18: Species C             2.82395000        4.05446000        1.90791000
  |   19: Species C             6.94976000        4.88295000        1.98227000
  |   20: Species C             0.64033400        1.69720000        5.48707000
  |   21: Species H            -1.30696000        0.34827300        3.40889000
  |   22: Species H             0.49396700        3.20043000        3.86613000
  |   23: Species H             4.59217000        5.95620000        3.83080000
  |   24: Species H             2.96944000        2.53750000        3.41967000
  |   25: Species H             0.26655400        1.88589000        2.12909000
  |   26: Species H            -0.81042200        4.78555000        5.11551000
  |   27: Species H             3.27809000        4.21614000        5.04622000
  |   28: Species H             4.23397000        0.87427500        1.92465000
  |   29: Species H            -3.43802000        2.41741000        6.88096000
  |   30: Species H             2.99474000        5.47140000        0.27898700
  |   31: Species H             6.94846000        3.52257000        0.32401500
  |   32: Species H             0.68315900        0.51656600        7.30502000
  |   33: Species H            -2.89673000        1.71647000        4.51917000
  |   34: Species H             2.17936000        4.66464000        2.51061000
  |   35: Species H             6.46016000        4.22488000        2.67202000
  |   36: Species H             1.27539000        0.97688200        4.94919000
  |   37: Species C            -5.57910000        0.17917700        9.50939000
  |   38: Species C            -4.67032000        3.11168000       11.94900000
  |   39: Species C            -0.72120200        5.68194000       11.95240000
  |   40: Species C            -1.64831000        2.91647000        9.60618000
  |   41: Species C            -4.85241000        1.00370000        8.64990000
  |   42: Species C            -5.43712000        3.94948000       12.75290000
  |   43: Species C            -1.44902000        4.87391000       12.77870000
  |   44: Species C            -0.88199100        2.04865000        8.85318000
  |   45: Species C            -4.60979000        0.64605500        7.31996000
  |   46: Species C            -5.86098000        3.56541000       14.03090000
  |   47: Species C            -1.81329000        5.30413000       14.07950000
  |   48: Species C            -0.46992300        2.33083000        7.53380000
  |   49: Species C            -8.68714000        1.48782000       13.90070000
  |   50: Species C            -1.57287000        4.51359000        7.74557000
  |   51: Species C             2.34013000        4.37007000        7.54795000
  |   52: Species C            -4.74964000        1.39116000       13.68250000
  |   53: Species C            -8.35161000        1.14003000       12.59010000
  |   54: Species C            -2.00236000        4.15641000        9.04984000
  |   55: Species C             1.88830000        4.61978000        8.82194000
  |   56: Species C            -4.34017000        1.82719000       12.44510000
  |   57: Species H            -5.75831000        0.44814000       10.57140000
  |   58: Species H            -4.36922000        3.38947000       10.95250000
  |   59: Species H            -0.50481400        5.36402000       10.93740000
  |   60: Species H            -2.00417000        2.57742000       10.58440000
  |   61: Species H            -4.40504000        1.90837000        9.04370000
  |   62: Species H            -5.70880000        4.93447000       12.38380000
  |   63: Species H            -1.76583000        3.90013000       12.42040000
  |   64: Species H            -0.52936200        1.11797000        9.30585000
  |   65: Species H            -8.29866000        2.41073000       14.37510000
  |   66: Species H            -1.85465000        5.50640000        7.35507000
  |   67: Species H             2.01273000        3.45090000        7.06237000
  |   68: Species H            -4.46358000        0.38885300       14.01120000
  |   69: Species H            -7.64944000        1.78414000       12.02520000
  |   70: Species H            -2.54445000        4.90969000        9.62190000
  |   71: Species H             1.24399000        3.88806000        9.29432000
  |   72: Species H            -3.77396000        1.15073000       11.78870000
  |   73: Species C            -0.78510900        6.19094000        2.44581000
  |   74: Species C             0.03659490        9.10897000        4.78643000
  |   75: Species C             4.09252000       11.70800000        4.70858000
  |   76: Species C             3.32644000        8.78764000        2.41703000
  |   77: Species C            -0.04928420        7.00367000        1.57348000
  |   78: Species C            -0.77606200        9.91646000        5.54803000
  |   79: Species C             3.33084000       10.89130000        5.50923000
  |   80: Species C             4.09257000        7.94695000        1.66866000
  |   81: Species C             0.30354300        6.58222000        0.27159800
  |   82: Species C            -1.00711000        9.57858000        6.89934000
  |   83: Species C             3.01662000       11.26520000        6.84892000
  |   84: Species C             4.41423000        8.25463000        0.30605400
  |   85: Species C            -3.91988000        7.52836000        6.81934000
  |   86: Species C             3.20866000       10.40250000        0.60012800
  |   87: Species C             7.15319000       10.39000000        0.59842500
  |   88: Species C             0.24509200        7.49491000        6.61763000
  |   89: Species C            -3.50210000        7.32383000        5.50592000
  |   90: Species C             2.82318000       10.00520000        1.86528000
  |   91: Species C             6.72082000       10.73780000        1.85614000
  |   92: Species C             0.48711600        7.84127000        5.30604000
  |   93: Species H            -1.11637000        6.48588000        3.43843000
  |   94: Species H             0.26342500        9.37106000        3.73792000
  |   95: Species H             4.34357000       11.38810000        3.68078000
  |   96: Species H             2.99670000        8.48062000        3.41825000
  |   97: Species H             0.20360700        8.04035000        1.89429000
  |   98: Species H            -1.16454000       10.87440000        5.19186000
  |   99: Species H             3.05636000        9.88531000        5.21495000
  |  100: Species H             4.41492000        6.96178000        2.05228000
  |  101: Species H            -3.62238000        8.43385000        7.36316000
  |  102: Species H             2.80734000       11.32940000        0.16955800
  |  103: Species H             6.87548000        9.39836000        0.22857800
  |  104: Species H             0.54619600        6.52340000        7.03157000
  |  105: Species H            -2.91120000        8.05115000        4.95674000
  |  106: Species H             2.17147000       10.64110000        2.44753000
  |  107: Species H             6.17373000       10.05610000        2.48285000
  |  108: Species H             1.14526000        7.22772000        4.62733000
  |  109: Species C            -5.87924000        5.81094000        9.48638000
  |  110: Species C            -4.73505000        8.99910000       11.91970000
  |  111: Species C            -0.64382800       11.78520000       12.03220000
  |  112: Species C            -1.50402000        8.91502000        9.58471000
  |  113: Species C            -5.13079000        6.76689000        8.85343000
  |  114: Species C            -5.39634000        9.88662000       12.75670000
  |  115: Species C            -1.42167000       10.92500000       12.76300000
  |  116: Species C            -0.74969500        8.06753000        8.80869000
  |  117: Species C            -4.63587000        6.54972000        7.54200000
  |  118: Species C            -5.77607000        9.55012000       14.07500000
  |  119: Species C            -1.79675000       11.24950000       14.10720000
  |  120: Species C            -0.47914100        8.38485000        7.46052000
  |  121: Species C            -8.67388000        7.39564000       13.66550000
  |  122: Species C            -1.76749000       10.45490000        7.74453000
  |  123: Species C             2.29006000       10.40760000        7.70461000
  |  124: Species C            -4.69923000        7.37881000       13.70660000
  |  125: Species C            -8.36240000        6.95478000       12.40590000
  |  126: Species C            -2.00604000       10.16330000        9.06280000
  |  127: Species C             2.06790000       10.77370000        9.02492000
  |  128: Species C            -4.38260000        7.70729000       12.41430000
  |  129: Species H            -6.27988000        6.00702000       10.49830000
  |  130: Species H            -4.48390000        9.23344000       10.87080000
  |  131: Species H            -0.34735400       11.47000000       11.05350000
  |  132: Species H            -1.63682000        8.71740000       10.64070000
  |  133: Species H            -4.89966000        7.72040000        9.31954000
  |  134: Species H            -5.68712000       10.85970000       12.42760000
  |  135: Species H            -1.78989000        9.98228000       12.35810000
  |  136: Species H            -0.33436100        7.12839000        9.22864000
  |  137: Species H            -8.19277000        8.29858000       13.99140000
  |  138: Species H            -2.15388000       11.37960000        7.30299000
  |  139: Species H             1.94320000        9.42085000        7.37596000
  |  140: Species H            -4.38315000        6.41591000       14.14860000
  |  141: Species H            -7.72656000        7.57365000       11.75180000
  |  142: Species H            -2.59360000       10.85240000        9.68608000
  |  143: Species H             1.49569000       10.12040000        9.69010000
  |  144: Species H            -3.88103000        6.96644000       11.79650000

  Lattice parameters for 3D lattice (in Angstroms) :     8.102000   11.880000   17.292000
  Angle(s) between unit vectors (in degrees)       :    90.000000  124.463000   90.000000


  Quantities derived from the lattice vectors (in Angstrom^-1):
  | Reciprocal lattice vector 1:  0.775510  0.000000  0.532257
  | Reciprocal lattice vector 2:  0.000000  0.528888  0.000000
  | Reciprocal lattice vector 3: -0.000000  0.000000  0.440705
  | Unit cell volume                               :   0.137227E+04  Angstrom^3

  Fractional coordinates:
                         L1                L2                L3
       atom_frac         0.08577470        0.00830668        0.16932602  C
       atom_frac         0.43778145        0.24422980        0.34125355  C
       atom_frac         0.93624171        0.51224495        0.34036066  C
       atom_frac         0.60837607        0.23545623        0.16870387  C
       atom_frac         0.13578692        0.07740185        0.12241119  C
       atom_frac         0.40654198        0.32334764        0.39138081  C
       atom_frac         0.90233061        0.43396717        0.38719132  C
       atom_frac         0.62874164        0.16110101        0.11344654  C
       atom_frac         0.07608589        0.05029848        0.02908934  C
       atom_frac         0.47805808        0.30216414        0.48678302  C
       atom_frac         0.96741059        0.45039899        0.48230315  C
       atom_frac         0.56132103        0.19152778        0.02090353  C
       atom_frac         0.07534391        0.12290067        0.45242052  C
       atom_frac         0.45245333        0.37608165        0.04512036  C
       atom_frac         0.94775294        0.37817845        0.04804802  C
       atom_frac         0.61629467        0.11974242        0.47595684  C
       atom_frac         0.00547326        0.09208502        0.36313245  C
       atom_frac         0.51017119        0.34128451        0.13382163  C
       atom_frac         1.02570384        0.41102273        0.13903728  C
       atom_frac         0.54385064        0.14286195        0.38486546  C
       atom_frac         0.12745809        0.02931591        0.23910102  H
       atom_frac         0.38847324        0.26939646        0.27117203  H
       atom_frac         0.89130649        0.50136364        0.26869397  H
       atom_frac         0.65619157        0.21359428        0.23985713  H
       atom_frac         0.21325766        0.15874495        0.14933529  H
       atom_frac         0.33331386        0.40282407        0.35880408  H
       atom_frac         0.83207419        0.35489394        0.35394405  H
       atom_frac         0.68562283        0.07359217        0.13499578  H
       atom_frac         0.15855261        0.20348569        0.48263351  H
       atom_frac         0.39326306        0.46055556        0.01956827  H
       atom_frac         0.88507053        0.29651263        0.02272655  H
       atom_frac         0.70313720        0.04348199        0.51237726  H
       atom_frac         0.02529185        0.14448401        0.31697654  H
       atom_frac         0.48166729        0.39264646        0.17609527  H
       atom_frac         1.02370390        0.35562963        0.18741664  H
       atom_frac         0.57666878        0.08222912        0.34713833  H
       atom_frac         0.11694459        0.01508224        0.66699273  C
       atom_frac         0.43577438        0.26192593        0.83810803  C
       atom_frac         0.92348748        0.47827778        0.83834651  C
       atom_frac         0.61030672        0.24549411        0.67378162  C
       atom_frac         0.13382879        0.08448653        0.60670773  C
       atom_frac         0.40923046        0.33244781        0.89449392  C
       atom_frac         0.90365250        0.41026178        0.89630355  C
       atom_frac         0.64110308        0.17244529        0.62096587  C
       atom_frac         0.05111360        0.05438173        0.51342516  C
       atom_frac         0.46517596        0.30011869        0.98413340  C
       atom_frac         0.96888439        0.44647559        0.98754222  C
       atom_frac         0.58019678        0.19619781        0.52842399  C
       atom_frac         0.10532405        0.12523737        0.97500111  C
       atom_frac         0.46200340        0.37993182        0.54327763  C
       atom_frac         0.92822993        0.36785101        0.52941648  C
       atom_frac         0.57283116        0.11710101        0.95969647  C
       atom_frac         0.03571471        0.09596212        0.88307506  C
       atom_frac         0.51947937        0.34986616        0.63475969  C
       atom_frac         0.98038350        0.38887037        0.61877469  C
       atom_frac         0.51854883        0.15380387        0.87290470  C
       atom_frac         0.18478956        0.03772222        0.74148257  H
       atom_frac         0.38852328        0.28530892        0.76821309  H
       atom_frac         0.86421353        0.45151684        0.76715397  H
       atom_frac         0.64925047        0.21695455        0.74239439  H
       atom_frac         0.22240531        0.16063721        0.63432903  H
       atom_frac         0.34443108        0.41535943        0.86860509  H
       atom_frac         0.83419776        0.32829377        0.87117223  H
       atom_frac         0.72297302        0.09410522        0.65271634  H
       atom_frac         0.19345972        0.20292340        1.00827573  H
       atom_frac         0.39414458        0.46350168        0.51588779  H
       atom_frac         0.84668606        0.29047980        0.49535769  H
       atom_frac         0.63598308        0.03273173        0.98275163  H
       atom_frac         0.07452758        0.15018013        0.84345273  H
       atom_frac         0.50103112        0.41327357        0.67488423  H
       atom_frac         0.94087460        0.32727778        0.65190763  H
       atom_frac         0.53282958        0.09686279        0.82686452  H
       atom_frac         0.11028452        0.52112290        0.17155017  C
       atom_frac         0.40998126        0.76674832        0.33572227  C
       atom_frac         0.90399437        0.98552189        0.33026184  C
       atom_frac         0.61531987        0.73970034        0.16953153  C
       atom_frac         0.12720850        0.58953451        0.11036457  C
       atom_frac         0.37419410        0.83471886        0.38914122  C
       atom_frac         0.87780708        0.91677609        0.38641978  C
       atom_frac         0.64648511        0.66893519        0.11704053  C
       atom_frac         0.06047260        0.55405892        0.01905000  C
       atom_frac         0.46014786        0.80627778        0.48392269  C
       atom_frac         0.95251089        0.94824916        0.48038621  C
       atom_frac         0.57075836        0.69483418        0.02146676  C
       atom_frac         0.09385850        0.63370034        0.47831146  C
       atom_frac         0.44687067        0.87563131        0.04209324  C
       atom_frac         0.93358521        0.87457912        0.04197379  C
       atom_frac         0.59083853        0.63088468        0.46416343  C
       atom_frac         0.03416209        0.61648401        0.38618761  C
       atom_frac         0.50646491        0.84218855        0.13083155  C
       atom_frac         0.98676199        0.90385522        0.13019046  C
       atom_frac         0.50960423        0.66003956        0.37216794  C
       atom_frac         0.15348428        0.54594949        0.24117297  H
       atom_frac         0.34915747        0.78880976        0.26217933  H
       atom_frac         0.84791432        0.95859428        0.25817150  H
       atom_frac         0.65943588        0.71385690        0.23975753  H
       atom_frac         0.18559814        0.67679714        0.13286632  H
       atom_frac         0.29607409        0.91535354        0.36415931  H
       atom_frac         0.81900020        0.83209680        0.36577885  H
       atom_frac         0.71876852        0.58600842        0.14394781  H
       atom_frac         0.17664550        0.70992003        0.51645523  H
       atom_frac         0.36086310        0.95365320        0.01189287  H
       atom_frac         0.86797829        0.79110774        0.01603256  H
       atom_frac         0.66306807        0.54910774        0.49319736  H
       atom_frac         0.06057297        0.67770623        0.34766789  H
       atom_frac         0.47534987        0.89571549        0.17167081  H
       atom_frac         0.97232608        0.84647306        0.17414817  H
       atom_frac         0.53334215        0.60839394        0.32456293  H
       atom_frac         0.07795021        0.48913636        0.66537880  C
       atom_frac         0.42530296        0.75750000        0.83605291  C
       atom_frac         0.93979743        0.99202020        0.84394371  C
       atom_frac         0.62629715        0.75042256        0.67227571  C
       atom_frac         0.11671065        0.56960354        0.62098341  C
       atom_frac         0.41458569        0.83220707        0.89476046  C
       atom_frac         0.90569824        0.91961279        0.89520234  C
       atom_frac         0.65366308        0.67908502        0.61784533  C
       atom_frac         0.06670392        0.55132323        0.52899914  C
       atom_frac         0.47939186        0.80388215        0.98722659  C
       atom_frac         0.97327236        0.94692761        0.98948511  C
       atom_frac         0.57285139        0.70579545        0.52328410  C
       atom_frac         0.08703659        0.62252862        0.95850408  C
       atom_frac         0.43789407        0.88004209        0.54320468  C
       atom_frac         0.93532084        0.87606061        0.54040468  C
       atom_frac         0.58109463        0.62111195        0.96138685  C
       atom_frac         0.01877913        0.58541919        0.87015519  C
       atom_frac         0.52012302        0.85549663        0.63566871  C
       atom_frac         1.01974556        0.90687710        0.63301179  C
       atom_frac         0.51070275        0.64876178        0.87074437  C
       atom_frac         0.11422171        0.50564141        0.73635530  H
       atom_frac         0.36744784        0.77722559        0.76248261  H
       atom_frac         0.89348322        0.96548822        0.77529727  H
       atom_frac         0.69936037        0.73378788        0.74634330  H
       atom_frac         0.18472294        0.64986532        0.65367657  H
       atom_frac         0.35081731        0.91411616        0.87167724  H
       atom_frac         0.82595061        0.84025926        0.86680248  H
       atom_frac         0.74050072        0.60003283        0.64730080  H
       atom_frac         0.17402562        0.69853367        0.98136285  H
       atom_frac         0.35279997        0.95787879        0.51223488  H
       atom_frac         0.86466883        0.79300084        0.51735302  H
       atom_frac         0.65754959        0.54005976        0.99238892  H
       atom_frac         0.04184888        0.63751263        0.82427634  H
       atom_frac         0.50040149        0.91350168        0.67938584  H
       atom_frac         1.00546802        0.85188552        0.67966781  H
       atom_frac         0.52027507        0.58640067        0.82741161  H

 
  Finished reading input file 'geometry.in'.
 

 
  Consistency checks for stacksize environment parameter are next.
 
  | Maximum stacksize for task 0: unlimited
  | Maximum stacksize for task 1: unlimited
  | Maximum stacksize for task 2: unlimited
  | Maximum stacksize for task 3: unlimited
  | Maximum stacksize for task 4: unlimited
  | Maximum stacksize for task 5: unlimited
  | Maximum stacksize for task 6: unlimited
  | Maximum stacksize for task 7: unlimited
  | Maximum stacksize for task 8: unlimited
  | Maximum stacksize for task 9: unlimited
  | Maximum stacksize for task 10: unlimited
  | Maximum stacksize for task 11: unlimited
  | Maximum stacksize for task 12: unlimited
  | Maximum stacksize for task 13: unlimited
  | Maximum stacksize for task 14: unlimited
  | Maximum stacksize for task 15: unlimited
  | Maximum stacksize for task 16: unlimited
  | Maximum stacksize for task 17: unlimited
  | Current stacksize for task 0: unlimited
  | Current stacksize for task 1: unlimited
  | Current stacksize for task 2: unlimited
  | Current stacksize for task 3: unlimited
  | Current stacksize for task 4: unlimited
  | Current stacksize for task 5: unlimited
  | Current stacksize for task 6: unlimited
  | Current stacksize for task 7: unlimited
  | Current stacksize for task 8: unlimited
  | Current stacksize for task 9: unlimited
  | Current stacksize for task 10: unlimited
  | Current stacksize for task 11: unlimited
  | Current stacksize for task 12: unlimited
  | Current stacksize for task 13: unlimited
  | Current stacksize for task 14: unlimited
  | Current stacksize for task 15: unlimited
  | Current stacksize for task 16: unlimited
  | Current stacksize for task 17: unlimited
 
  Consistency checks for the contents of control.in are next.
 
  MPI_IN_PLACE appears to work with this MPI implementation.
  | Keeping use_mpi_in_place .true. (see manual).
  Explicit treatment of the Coulomb operator is needed, but the RI method is not specified.
  Coulomb operator: Defaulting to 'LVL fast' resolution of identity - RI_type = LVL_fast
  Species H: Using default value for prodbas_acc =   1.000000E-06.
  Species H: Using default value max_l_prodbas =     6.
  Species C: Using default value for prodbas_acc =   1.000000E-06.
  Species C: Using default value max_l_prodbas =     6.
  Target number of points in a grid batch is not set.  Since GPU acceleration is enabled, defaulting to  200
  Method for grid partitioning is not set. Defaulting to parallel hash+maxmin partitioning.
  Batch size limit is not set. Defaulting to    200
  By default, will store active basis functions for each batch.
  If in need of memory, prune_basis_once .false. can be used to disable this option.
  communication_type for Hartree potential was not specified.
  Defaulting to calc_hartree .
  Defaulting to Pulay charge density mixer.
  Pulay mixer: Number of relevant iterations not set.
  Defaulting to    8 iterations.
  Pulay mixer: Number of initial linear mixing iterations not set.
  Defaulting to    0 iterations.
  Work space size for distributed Hartree potential not set.
  Defaulting to   0.200000E+03 MB.
  Algorithm-dependent basis array size parameters:
  | n_max_pulay                         :        8
  Maximum number of self-consistency iterations not provided.
  Presetting  1000 iterations.
  Presetting      1001 iterations before the initial mixing cycle
  is restarted anyway using the sc_init_iter criterion / keyword.
  Presetting a factor      1.000 between actual scf density residual
  and density convergence criterion sc_accuracy_rho below which sc_init_iter
  takes no effect.
 * No s.c.f. convergence criteria (sc_accuracy_*) were provided in control.in.
 * The run will proceed with a reasonable default guess, but please check whether.
 * the s.c.f. cycles seem to take too much or too little time.
  Geometry relaxation not requested: no relaxation will be performed.
 * Notice: The s.c.f. convergence criterion sc_accuracy_rho was not provided.
 * We used to stop in this case, and ask the user to provide reasonable
 * scf convergence criteria. However, this led some users to employ criteria
 * that led to extremely long run times, e.g., for simple relaxation.
 * We now preset a default value for sc_accuracy_rho if it is not set.
 * You may still wish to check if this setting is too tight or too loose for your needs.
 * Based on n_atoms and forces and force-correction status, FHI-aims chose sc_accuracy_rho =  0.391918E-04 .
  No accuracy limit for integral partition fn. given. Defaulting to  0.1000E-14.
  No threshold value for u(r) in integrations given. Defaulting to  0.1000E-05.
  No occupation type (smearing scheme) given. Defaulting to Gaussian broadening, width =  0.1000E-01 eV.
  The width will be adjusted in iteration number     2 of the first full s.c.f. cycle only.
  S.C.F. convergence parameters will be adjusted in iteration number     2 of the first full s.c.f. cycle only.
  No accuracy for occupation numbers given. Defaulting to  0.1000E-12.
  No threshold value for occupation numbers given. Defaulting to  0.0000E+00.
  No accuracy for fermi level given. Defaulting to  0.1000E-19.
  Maximum # of iterations to find E_F not set. Defaulting to  200.
  Preferred method for the eigenvalue solver ('KS_method') not specified in 'control.in'.
  Calling BLACS routine to test compilation state
  Since ScaLAPACK support is enabled, defaulting to ELPA (via ELSI).
  Will not use alltoall communication since running on < 1024 CPUs.
  Threshold for basis singularities not set.
  Default threshold for basis singularities:  0.1000E-04
  partition_type (choice of integration weights) for integrals was not specified.
  | Using a version of the partition function of Stratmann and coworkers ('stratmann_sparse').
  | At each grid point, the set of atoms used to build the partition table is smoothly restricted to
  | only those atoms whose free-atom density would be non-zero at that grid point.
  Partitioning for Hartree potential was not defined. Using partition_type for integrals.
  | Adjusted default value of keyword multip_moments_threshold to:       0.10000000E-11
  | This value may affect high angular momentum components of the Hartree potential in periodic systems.
  Angular momentum expansion for Kerker preconditioner not set explicitly.
  | Using default value of   0
  No explicit requirement for turning off preconditioner.
  | By default, it will be turned off when the charge convergence reaches
  | sc_accuracy_rho  =   0.391918E-04
  No special mixing parameter while Kerker preconditioner is on.
  Using default: charge_mix_param =     0.7500.
  Threshold for auxiliary basis singularities not set.
  Default threshold for auxiliary basis singularities:  0.1000E-04
  No q(lm)/r^(l+1) cutoff set for long-range Hartree potential.
  | Using default value of  0.100000E-09 .
  | Verify using the multipole_threshold keyword.
  Defaulting to new monopole extrapolation.
  Density update method: automatic selection selected.
  Using density matrix based charge density update.
  Using density matrix based charge density update.
  Using packed matrix style: index .
  Defaulting to use time-reversal symmetry for k-point grid.
  Charge integration errors on the 3D integration grid will be compensated
  by explicit normalization and distribution of residual charges.
  Use the "compensate_multipole_errors" flag to change this behaviour.
  Default to 1D ("use_logsbt") integrations for auxiliary 2-center integrals.
  Default onset of logarithmic r-grid for SBT is -38.000000000000
  Default onset of logarithmic k-grid for SBT is -25.000000000000
  Default range of logarithmic r- and k-grid for SBT is  45.000000000000
  Default number of logarithmic r- and k-grid for SBT is   4096
  Default of use_2d_corr is to use the efficient 2D distribution where possible
 
  Consistency checks for the contents of geometry.in are next.
 

  Range separation radius for Ewald summation (hartree_convergence_parameter):      2.91768261 bohr.
  Number of empty states per atom not set in control.in .
  | Since you are using a method that relies on the unoccupied spectrum
  | (MP2,GW,RPA et al.), will use the full Hamiltonian size (see below)
  | as the max. possible number of states (occupied plus empty).

  Structure-dependent array size parameters: 
  | Maximum number of distinct radial functions  :        9
  | Maximum number of basis functions            :     1440
  | Number of Kohn-Sham states (occupied + empty):     1440
------------------------------------------------------------
CUDA runtime version: 11060
CUDA driver version: 11060
  Initializing GPUs...

  Number of GPUs available to MPI task         0 :   1
  Number of GPUs available to MPI task         1 :   1
  Number of GPUs available to MPI task         2 :   1
  Number of GPUs available to MPI task         3 :   1
  Number of GPUs available to MPI task         4 :   1
  Number of GPUs available to MPI task         5 :   1
  Number of GPUs available to MPI task         6 :   1
  Number of GPUs available to MPI task         7 :   1
  Number of GPUs available to MPI task         8 :   1
  Number of GPUs available to MPI task         9 :   1
  Number of GPUs available to MPI task        10 :   1
  Number of GPUs available to MPI task        11 :   1
  Number of GPUs available to MPI task        12 :   1
  Number of GPUs available to MPI task        13 :   1
  Number of GPUs available to MPI task        14 :   1
  Number of GPUs available to MPI task        15 :   1
  Number of GPUs available to MPI task        16 :   1
  Number of GPUs available to MPI task        17 :   1

  | MPI task         0, GPU activated = T, Device Name = NVIDIA A100-SXM4-80GB
  | MPI task         1, GPU activated = T, Device Name = NVIDIA A100-SXM4-80GB
  | MPI task         2, GPU activated = T, Device Name = NVIDIA A100-SXM4-80GB
  | MPI task         3, GPU activated = T, Device Name = NVIDIA A100-SXM4-80GB
  | MPI task         4, GPU activated = T, Device Name = NVIDIA A100-SXM4-80GB
  | MPI task         5, GPU activated = T, Device Name = NVIDIA A100-SXM4-80GB
  | MPI task         6, GPU activated = T, Device Name = NVIDIA A100-SXM4-80GB
  | MPI task         7, GPU activated = T, Device Name = NVIDIA A100-SXM4-80GB
  | MPI task         8, GPU activated = T, Device Name = NVIDIA A100-SXM4-80GB
  | MPI task         9, GPU activated = T, Device Name = NVIDIA A100-SXM4-80GB
  | MPI task        10, GPU activated = T, Device Name = NVIDIA A100-SXM4-80GB
  | MPI task        11, GPU activated = T, Device Name = NVIDIA A100-SXM4-80GB
  | MPI task        12, GPU activated = T, Device Name = NVIDIA A100-SXM4-80GB
  | MPI task        13, GPU activated = T, Device Name = NVIDIA A100-SXM4-80GB
  | MPI task        14, GPU activated = T, Device Name = NVIDIA A100-SXM4-80GB
  | MPI task        15, GPU activated = T, Device Name = NVIDIA A100-SXM4-80GB
  | MPI task        16, GPU activated = T, Device Name = NVIDIA A100-SXM4-80GB
  | MPI task        17, GPU activated = T, Device Name = NVIDIA A100-SXM4-80GB

------------------------------------------------------------
          Preparing all fixed parts of the calculation.
------------------------------------------------------------
  Determining machine precision:
    2.225073858507201E-308
  Setting up grids for atomic and cluster calculations.

  Creating wave function, potential, and density for free atoms.
  Runtime choices for atomic solver:
  | atomic solver xc        : PW-LDA
  | compute density gradient: 0
  | compute kinetic density : F

  Species: H

  List of occupied orbitals and eigenvalues:
    n    l              occ      energy [Ha]    energy [eV]
    1    0           1.0000        -0.232375        -6.3233


  Species: C

  List of occupied orbitals and eigenvalues:
    n    l              occ      energy [Ha]    energy [eV]
    1    0           2.0000        -9.944615      -270.6068
    2    0           2.0000        -0.498807       -13.5732
    2    1           2.0000        -0.196968        -5.3598


  Adding cutoff potential to free-atom effective potential.
  Creating fixed part of basis set: Ionic, confined, hydrogenic.
 
  H                    hydrogenic:
 
  List of hydrogenic basis orbitals: 
    n    l      effective z      eigenvalue [eV]  inner max. [A]     outer max. [A]     outer radius [A]   
    2    0         2.100000       -14.9728           0.193243           1.317208           4.583499
    2    1         3.500000       -41.6669           0.602369           0.602369           3.723403
 
 
  C                    hydrogenic:
 
  List of hydrogenic basis orbitals: 
    n    l      effective z      eigenvalue [eV]  inner max. [A]     outer max. [A]     outer radius [A]   
    2    1         1.700000        -9.7616           1.230570           1.230570           4.607917
    3    2         6.000000       -54.4224           0.792453           0.792453           3.883070
    2    0         4.900000       -81.6679           0.082559           0.562749           3.078220
 
  Creating atomic-like basis functions for current effective potential.

  Species H                   :

  List of atomic basis orbitals and eigenvalues:
    n    l      energy [Ha]    energy [eV]    outer radius [A]
    1    0        -0.232375        -6.3233       4.527807


  Species C                   :

  List of atomic basis orbitals and eigenvalues:
    n    l      energy [Ha]    energy [eV]    outer radius [A]
    1    0        -9.944615      -270.6068       1.934409
    2    0        -0.498807       -13.5732       4.496620
    2    1        -0.196968        -5.3598       4.551928

  Assembling full basis from fixed parts.
  | Species H :   atomic orbital   1 s accepted.
  | Species H :    hydro orbital   2 s accepted.
  | Species H :    hydro orbital   2 p accepted.
  | Species C :   atomic orbital   1 s accepted.
  | Species C :    hydro orbital   2 s accepted.
  | Species C :   atomic orbital   2 s accepted.
  | Species C :   atomic orbital   2 p accepted.
  | Species C :    hydro orbital   2 p accepted.
  | Species C :    hydro orbital   3 d accepted.
 
  Basis size parameters after reduction:
  | Total number of radial functions:        9
  | Total number of basis functions :     1440
 
  Per-task memory consumption for arrays in subroutine allocate_ext:
  |           2.242384MB.
  Testing on-site integration grid accuracy.
  |  Species  Function  <phi|h_atom|phi> (log., in eV)  <phi|h_atom|phi> (rad., in eV)
           1        1                 -6.3245358373                 -6.3232436907
           1        2                 14.1326137532                 14.1384481100
           1        3                 25.3627025200                 25.3628451197
           2        4               -270.6067544938               -270.6067222788
           2        5                -10.5634280949                -10.5635685736
           2        6                 16.2089822398                 16.2052121796
           2        7                 -5.3613872565                 -5.3627872378
           2        8                  8.5292058327                  8.5051734780
           2        9                 27.4884461005                 27.4884542459

  Preparing densities etc. for the partition functions (integrals / Hartree potential).

  Preparations completed.
  max(cpu_time)          :      0.074 s.
  Wall clock time (cpu1) :      0.070 s.
------------------------------------------------------------

  Initializing index lists of integration centers etc. from given atomic structure:
  Mapping all atomic coordinates to central unit cell.

  Initializing the k-points
  Using symmetry for reducing the k-points
  | k-points reduced from:        2 to        2
  | Number of k-points                             :         2
  | Consuming          0 KiB for k_phase_exx.
  The eigenvectors in the calculations are REAL.
  | Number of basis functions in the Hamiltonian integrals :      8032
  | Number of basis functions in a single unit cell        :      1440
  | Number of centers in hartree potential         :      3349
  | Number of centers in hartree multipole         :      2571
  | Number of centers in electron density summation:      2002
  | Number of centers in basis integrals           :      2132
  | Number of centers in integrals                 :       962
  | Number of centers in hamiltonian               :      2010
  | Consuming          1 KiB for k_phase.
  | Number of super-cells (origin) [n_cells]                     :         175
  | Number of super-cells (after PM_index) [n_cells]             :          40
  | Number of super-cells in hamiltonian [n_cells_in_hamiltonian]:          40
  | Size of matrix packed + index [n_hamiltonian_matrix_size] :     1931613
  | Size of matrix packed + index (no_symmetry):     3860409

------------------------------------------------------------
          Begin self-consistency loop: Initialization.

          Date     :  20230120, Time     :  132702.144
------------------------------------------------------------
  | Estimated reciprocal-space cutoff momentum G_max:         3.24344278 bohr^-1 .
  | Reciprocal lattice points for long-range Hartree potential:    5310
  Using simple linear distribution as default method for k-point parallelism.
  * Using 18 tasks for Scalapack Eigenvalue solver.
  Detailed listing of tasks and assigned k-points:
   Task     0 k-point     1 on adag005
   Task     1 k-point     1 on adag005
   Task     2 k-point     1 on adag005
   Task     3 k-point     1 on adag005
   Task     4 k-point     1 on adag005
   Task     5 k-point     1 on adag005
   Task     6 k-point     1 on adag005
   Task     7 k-point     1 on adag005
   Task     8 k-point     1 on adag005
   Task     9 k-point     2 on adag005
   Task    10 k-point     2 on adag005
   Task    11 k-point     2 on adag005
   Task    12 k-point     2 on adag005
   Task    13 k-point     2 on adag005
   Task    14 k-point     2 on adag005
   Task    15 k-point     2 on adag005
   Task    16 k-point     2 on adag005
   Task    17 k-point     2 on adag005
  K-point:     1 Tasks:     9 split into      3 X      3 BLACS grid
  Calculating block size based on n_basis =         1440  max_nprow =            3  max_npcol =            3
  ScaLAPACK block size set to:           16
  Allocating        1.758 MB for ovlp
  Allocating        1.758 MB for ham
  Allocating        1.758 MB for eigenvec
  Required Scalapack workspace - INTEGER:            1  REAL:             1
  Partitioning the integration grid into batches with parallel hashing+maxmin method.
  | Number of batches:     5562
  | Maximal batch size:     200
  | Minimal batch size:      99
  | Average batch size:     137.332
  | Standard deviation of batch sizes:      29.892

  Integration load balanced across    18 MPI tasks.
  Work distribution over tasks is as follows:
  Task     0 has      42409 integration points.
  Task     1 has      42421 integration points.
  Task     2 has      42431 integration points.
  Task     3 has      42356 integration points.
  Task     4 has      42440 integration points.
  Task     5 has      42445 integration points.
  Task     6 has      42443 integration points.
  Task     7 has      42450 integration points.
  Task     8 has      42437 integration points.
  Task     9 has      42422 integration points.
  Task    10 has      42382 integration points.
  Task    11 has      42457 integration points.
  Task    12 has      42534 integration points.
  Task    13 has      42431 integration points.
  Task    14 has      42451 integration points.
  Task    15 has      42412 integration points.
  Task    16 has      42440 integration points.
  Task    17 has      42479 integration points.
  Initializing partition tables, free-atom densities, potentials, etc. across the integration grid (initialize_grid_storage).
  | initialize_grid_storage: Actual outermost partition radius vs. multipole_radius_free
  | (-- VB: in principle, multipole_radius_free should be larger, hence this output)
  | Species        1: Confinement radius =              4.999999999999999 AA, multipole_radius_free =              5.054417573612229 AA.
  | Species        1: outer_partition_radius set to              5.054417573612229 AA .
  | Species        2: Confinement radius =              4.999999999999999 AA, multipole_radius_free =              5.019602836301480 AA.
  | Species        2: outer_partition_radius set to              5.019602836301480 AA .
  | The sparse table of interatomic distances needs       7672.07 kbyte instead of     36363.39 kbyte of memory.
  | Net number of integration points:   763840
  | of which are non-zero points    :   605193
  | Numerical average free-atom electrostatic potential    :     -8.61455979 eV
  Renormalizing the initial density to the exact electron count on the 3D integration grid.
  | Initial density: Formal number of electrons (from input files) :     544.0000000000
  | Integrated number of electrons on 3D grid     :     543.9877134226
  | Charge integration error                      :      -0.0122865774
  | Normalization factor for density and gradient :       1.0000225861
  Renormalizing the free-atom superposition density to the exact electron count on the 3D integration grid.
  | Formal number of electrons (from input files) :     544.0000000000
  | Integrated number of electrons on 3D grid     :     543.9877134226
  | Charge integration error                      :      -0.0122865774
  | Normalization factor for density and gradient :       1.0000225861
  Obtaining max. number of non-zero basis functions in each batch (get_n_compute_maxes).
  | Maximal number of non-zero basis functions:      551 in task     0
  | Maximal number of non-zero basis functions:      537 in task     1
  | Maximal number of non-zero basis functions:      538 in task     2
  | Maximal number of non-zero basis functions:      527 in task     3
  | Maximal number of non-zero basis functions:      540 in task     4
  | Maximal number of non-zero basis functions:      544 in task     5
  | Maximal number of non-zero basis functions:      532 in task     6
  | Maximal number of non-zero basis functions:      535 in task     7
  | Maximal number of non-zero basis functions:      533 in task     8
  | Maximal number of non-zero basis functions:      539 in task     9
  | Maximal number of non-zero basis functions:      536 in task    10
  | Maximal number of non-zero basis functions:      544 in task    11
  | Maximal number of non-zero basis functions:      545 in task    12
  | Maximal number of non-zero basis functions:      537 in task    13
  | Maximal number of non-zero basis functions:      535 in task    14
  | Maximal number of non-zero basis functions:      544 in task    15
  | Maximal number of non-zero basis functions:      529 in task    16
  | Maximal number of non-zero basis functions:      543 in task    17
  Integrating Hamiltonian matrix: batch-based integration.
  GPU acceleration will be used when integrating the Hamiltonian matrix.
  Reporting GPU memory usage by myid 0.  Note that it is likely not the only MPI task binding to its GPU!
  Allocating        2.429 MB on GPU for hamiltonian_shell
  Allocating        0.882 MB on GPU for wave
  Allocating        0.002 MB on GPU for partition
  Allocating        0.882 MB on GPU for h_times_psi
  Time summed over all CPUs for integration: real work       26.295 s, elapsed       27.510 s
  Deallocating memory used on GPU for Hamiltonian integration.
  Integrating overlap matrix.
  Time summed over all CPUs for integration: real work       24.191 s, elapsed       24.810 s
  Deallocating overlap matrix.

  Updating Kohn-Sham eigenvalues and eigenvectors using ELSI and the ELPA eigensolver.
  Singularity check in k-point 1 (analysis for other k-points may follow below):
  Overlap matrix is not singular
  | Lowest and highest eigenvalues :  0.8089E-03,  0.8262E+01
  Finished singularity check of overlap matrix
  | Time :     0.107 s
  Starting ELPA eigensolver
  Finished Cholesky decomposition
  | Time :     0.017 s
  Finished transformation to standard eigenproblem
  | Time :     0.023 s
  Finished solving standard eigenproblem
  | Time :     0.231 s
  Finished back-transformation of eigenvectors
  | Time :     0.016 s

  Obtaining occupation numbers and electronic chemical potential using ELSI.
  | Note that, for insulating systems, the printed 'chemical potential' value is not uniquely defined.
  | It can be anywhere in the energy gap, as long as it correctly separates occupied and unoccupied states.
  | In systems with a gap, the physically relevant chemical potential is the VBM or HOMO.

  | Chemical potential (Fermi level):    -7.72502724 eV
  Writing Kohn-Sham eigenvalues.
  K-point:       1 at    0.000000    0.000000    0.000000 (in units of recip. lattice)

  State    Occupation    Eigenvalue [Ha]    Eigenvalue [eV]
      1       2.00000         -10.069422         -274.00292
      2       2.00000         -10.068907         -273.98890
      3       2.00000         -10.068290         -273.97211
      4       2.00000         -10.067659         -273.95494
      5       2.00000         -10.067488         -273.95028
      6       2.00000         -10.067027         -273.93774
      7       2.00000         -10.066963         -273.93601
      8       2.00000         -10.066917         -273.93476
      9       2.00000         -10.066703         -273.92892
     10       2.00000         -10.066561         -273.92507
     11       2.00000         -10.066014         -273.91017
     12       2.00000         -10.065950         -273.90843
     13       2.00000         -10.065783         -273.90390
     14       2.00000         -10.065520         -273.89672
     15       2.00000         -10.065498         -273.89613
     16       2.00000         -10.065430         -273.89428
     17       2.00000         -10.065413         -273.89382
     18       2.00000         -10.065373         -273.89273
     19       2.00000         -10.065330         -273.89157
     20       2.00000         -10.065265         -273.88979
     21       2.00000         -10.064971         -273.88179
     22       2.00000         -10.064964         -273.88160
     23       2.00000         -10.064931         -273.88072
     24       2.00000         -10.064858         -273.87871
     25       2.00000         -10.064828         -273.87791
     26       2.00000         -10.064746         -273.87567
     27       2.00000         -10.064735         -273.87537
     28       2.00000         -10.064711         -273.87473
     29       2.00000         -10.064706         -273.87458
     30       2.00000         -10.064364         -273.86528
     31       2.00000         -10.064224         -273.86147
     32       2.00000         -10.064025         -273.85604
     33       2.00000         -10.064018         -273.85587
     34       2.00000         -10.064017         -273.85584
     35       2.00000         -10.063976         -273.85471
     36       2.00000         -10.063623         -273.84512
     37       2.00000         -10.063246         -273.83485
     38       2.00000         -10.063216         -273.83405
     39       2.00000         -10.063199         -273.83359
     40       2.00000         -10.062928         -273.82620
     41       2.00000         -10.062889         -273.82514
     42       2.00000         -10.062742         -273.82114
     43       2.00000         -10.062641         -273.81838
     44       2.00000         -10.062638         -273.81832
     45       2.00000         -10.062632         -273.81813
     46       2.00000         -10.062356         -273.81062
     47       2.00000         -10.062132         -273.80455
     48       2.00000         -10.061901         -273.79825
     49       2.00000         -10.061225         -273.77985
     50       2.00000         -10.061192         -273.77896
     51       2.00000         -10.061052         -273.77516
     52       2.00000         -10.060804         -273.76840
     53       2.00000         -10.060802         -273.76836
     54       2.00000         -10.060452         -273.75884
     55       2.00000         -10.060427         -273.75815
     56       2.00000         -10.060300         -273.75469
     57       2.00000         -10.060139         -273.75032
     58       2.00000         -10.059904         -273.74391
     59       2.00000         -10.059853         -273.74254
     60       2.00000         -10.059781         -273.74057
     61       2.00000         -10.059761         -273.74003
     62       2.00000         -10.059505         -273.73307
     63       2.00000         -10.059329         -273.72827
     64       2.00000         -10.059023         -273.71995
     65       2.00000         -10.058903         -273.71667
     66       2.00000         -10.058727         -273.71188
     67       2.00000         -10.058696         -273.71104
     68       2.00000         -10.058691         -273.71090
     69       2.00000         -10.058412         -273.70332
     70       2.00000         -10.058370         -273.70218
     71       2.00000         -10.058172         -273.69679
     72       2.00000         -10.057940         -273.69047
     73       2.00000         -10.057784         -273.68624
[...]
  |    H      0     4.527807 A      4.583499 A        4.713786E-16 a.u.
  |    H      2     3.678162 A  1.011968E+04 A            0.556529 a.u.
  |    H      1     3.958095 A  1.721251E+06 A            0.841931 a.u.
  |    H      0     4.527807 A  3.866455E+12 A            0.581436 a.u.
  |    C      0     2.562483 A      2.562483 A        6.563029E-17 a.u.
  |    C      0     2.967371 A      2.967371 A        1.352164E-16 a.u.
  |    C      0     3.003870 A      3.003870 A        2.312640E-17 a.u.
  |    C      1     3.272245 A      3.272245 A       -3.835259E-17 a.u.
  |    C      0     3.312494 A      3.312494 A       -2.710381E-16 a.u.
  |    C      3     4.077671 A      4.077671 A       -1.683752E-15 a.u.
  |    C      3     4.077671 A      4.077671 A        1.412852E-15 a.u.
  |    C      1     4.496620 A      4.496620 A       -3.011059E-16 a.u.
  |    C      0     4.496620 A      4.551928 A        2.873903E-17 a.u.
  |    C      2     4.551928 A      4.551928 A       -4.610785E-16 a.u.
  |    C      2     4.551928 A      4.551928 A        7.440584E-16 a.u.
  |    C      2     4.551928 A      4.551928 A       -7.110458E-16 a.u.
  |    C      2     4.551928 A      4.551928 A       -1.935424E-16 a.u.
  |    C      0     4.551928 A      4.607917 A        2.067142E-16 a.u.
  |    C      0     4.551928 A      4.607917 A       -1.109786E-16 a.u.
  |    C      1     4.551928 A      4.607917 A       -9.951742E-17 a.u.
  |    C      1     4.551928 A      4.607917 A        1.937809E-16 a.u.
  |    C      1     4.607917 A      4.607917 A       -2.813308E-16 a.u.
  |    C      1     4.607917 A      4.607917 A       -7.330363E-17 a.u.
  |    C      2     4.607917 A      4.607917 A        1.318462E-15 a.u.
  |    C      2     4.607917 A      4.607917 A       -1.318397E-15 a.u.
  |    C      0     4.607917 A      4.664595 A        3.157826E-16 a.u.
  |    C      1     4.607917 A      4.664595 A        7.356967E-16 a.u.
  |    C      4     3.835889 A  2.962973E+02 A            4.379483 a.u.
  |    C      3     4.127827 A  1.725964E+03 A            9.005588 a.u.
  |    C      2     4.607917 A  2.608475E+04 A            9.531178 a.u.
  |    C      1     4.607917 A  2.736013E+06 A            2.127278 a.u.
  |    C      0     4.607917 A  4.399765E+12 A            0.661635 a.u.

  | Shrink_full_auxil_basis : there are       36  radial auxiliary wave functions
                            accepted and       7 rejected.
  | Shrink_full_auxil_basis : there are totally                8992 partial auxiliary wave functions.
 
  | Maximal number of product basis functions per thread :   512   512
 
  | Minimal total memory requirement for three-center overlap :      72.476 Gbs
  | Number of local auxiliary basis functions on task:      0   512
  | Number of local auxiliary basis functions on task:      1   512
  | Number of local auxiliary basis functions on task:      2   512
  | Number of local auxiliary basis functions on task:      3   512
  | Number of local auxiliary basis functions on task:      4   496
  | Number of local auxiliary basis functions on task:      5   496
  | Number of local auxiliary basis functions on task:      6   496
  | Number of local auxiliary basis functions on task:      7   496
  | Number of local auxiliary basis functions on task:      8   496
  | Number of local auxiliary basis functions on task:      9   496
  | Number of local auxiliary basis functions on task:     10   496
  | Number of local auxiliary basis functions on task:     11   496
  | Number of local auxiliary basis functions on task:     12   496
  | Number of local auxiliary basis functions on task:     13   496
  | Number of local auxiliary basis functions on task:     14   496
  | Number of local auxiliary basis functions on task:     15   496
  | Number of local auxiliary basis functions on task:     16   496
  | Number of local auxiliary basis functions on task:     17   496
  | 2D aux task distribution:      3 X      6
  | 2D block size (nb_aux_2d):     64
 
  Basis pair condensation :   1037520  -->     552950
 
 --------------------------------------------
  Constructing auxiliary basis (full product) ...
 
  Product basis:
  | charge radius: extent of product basis function
  | field radius: extent of its Coulomb potential
  | Species   l  charge radius    field radius  multipol momen
  |    H      1     3.910002 A      3.910002 A       -2.487223E-16 a.u.
  |    H      1     3.958095 A      3.958095 A       -2.441841E-16 a.u.
  |    H      0     4.527807 A      4.527807 A        1.268855E-16 a.u.
  |    H      0     4.527807 A      4.583499 A       -4.900954E-17 a.u.
  |    H      0     4.527807 A      4.583499 A        4.713786E-16 a.u.
  |    H      2     3.678162 A  1.011968E+04 A            0.556529 a.u.
  |    H      1     3.958095 A  1.721251E+06 A            0.841931 a.u.
  |    H      0     4.527807 A  3.866455E+12 A            0.581436 a.u.
  |    C      0     2.562483 A      2.562483 A        6.563029E-17 a.u.
  |    C      0     2.967371 A      2.967371 A        1.352164E-16 a.u.
  |    C      0     3.003870 A      3.003870 A        2.312640E-17 a.u.
  |    C      1     3.272245 A      3.272245 A       -3.835259E-17 a.u.
  |    C      0     3.312494 A      3.312494 A       -2.710381E-16 a.u.
  |    C      3     4.077671 A      4.077671 A       -1.683752E-15 a.u.
  |    C      3     4.077671 A      4.077671 A        1.412852E-15 a.u.
  |    C      1     4.496620 A      4.496620 A       -3.011059E-16 a.u.
  |    C      0     4.496620 A      4.551928 A        2.873903E-17 a.u.
  |    C      2     4.551928 A      4.551928 A       -4.610785E-16 a.u.
  |    C      2     4.551928 A      4.551928 A        7.440584E-16 a.u.
  |    C      2     4.551928 A      4.551928 A       -7.110458E-16 a.u.
  |    C      2     4.551928 A      4.551928 A       -1.935424E-16 a.u.
  |    C      0     4.551928 A      4.607917 A        2.067142E-16 a.u.
  |    C      0     4.551928 A      4.607917 A       -1.109786E-16 a.u.
  |    C      1     4.551928 A      4.607917 A       -9.951742E-17 a.u.
  |    C      1     4.551928 A      4.607917 A        1.937809E-16 a.u.
  |    C      1     4.607917 A      4.607917 A       -2.813308E-16 a.u.
  |    C      1     4.607917 A      4.607917 A       -7.330363E-17 a.u.
  |    C      2     4.607917 A      4.607917 A        1.318462E-15 a.u.
  |    C      2     4.607917 A      4.607917 A       -1.318397E-15 a.u.
  |    C      0     4.607917 A      4.664595 A        3.157826E-16 a.u.
  |    C      1     4.607917 A      4.664595 A        7.356967E-16 a.u.
  |    C      4     3.835889 A  2.962973E+02 A            4.379483 a.u.
  |    C      3     4.127827 A  1.725964E+03 A            9.005588 a.u.
  |    C      2     4.607917 A  2.608475E+04 A            9.531178 a.u.
  |    C      1     4.607917 A  2.736013E+06 A            2.127278 a.u.
  |    C      0     4.607917 A  4.399765E+12 A            0.661635 a.u.

  | Shrink_full_auxil_basis : there are       36  radial auxiliary wave functions
                            accepted and       7 rejected.
  | Shrink_full_auxil_basis : there are totally                8992 partial auxiliary wave functions.
 
  | Maximal number of product basis functions per thread :   512   512
 
  | Minimal total memory requirement for three-center overlap :      72.476 Gbs
  | Number of local auxiliary basis functions on task:      0   512
  | Number of local auxiliary basis functions on task:      1   512
  | Number of local auxiliary basis functions on task:      2   512
  | Number of local auxiliary basis functions on task:      3   512
  | Number of local auxiliary basis functions on task:      4   496
  | Number of local auxiliary basis functions on task:      5   496
  | Number of local auxiliary basis functions on task:      6   496
  | Number of local auxiliary basis functions on task:      7   496
  | Number of local auxiliary basis functions on task:      8   496
  | Number of local auxiliary basis functions on task:      9   496
  | Number of local auxiliary basis functions on task:     10   496
  | Number of local auxiliary basis functions on task:     11   496
  | Number of local auxiliary basis functions on task:     12   496
  | Number of local auxiliary basis functions on task:     13   496
  | Number of local auxiliary basis functions on task:     14   496
  | Number of local auxiliary basis functions on task:     15   496
  | Number of local auxiliary basis functions on task:     16   496
  | Number of local auxiliary basis functions on task:     17   496
  | 2D aux task distribution:      3 X      6
  | 2D block size (nb_aux_2d):     64
 
  Basis pair condensation :   1037520  -->     552950
  Allocating        0.069 MB for t_coeff
  Allocating        0.034 MB for basbas_idx
  Allocating        0.069 MB for wave
  Allocating        0.069 MB for total_wave
  Allocating        0.206 MB for wave_gradient
  Allocating        0.206 MB for total_wave_grad
 HERE1
 HERE2
  Deallocating        0.069 MB for t_coeff
  Deallocating        0.034 MB for basbas_idx
  Deallocating        0.069 MB for wave
  Deallocating        0.206 MB for wave_gradient
  Deallocating        0.206 MB for total_wave_grad
dP_dE (Bohr^3) at every cycle:--->
 (977.883231783138,0.000000000000000E+000) (1.39882544033479,0.000000000000000E+000) (-444.960585179760,0.000000000000000E+000)
 (1.38787296819008,0.000000000000000E+000) (1362.33962989051,0.000000000000000E+000) (8.34845482524891,0.000000000000000E+000)
 (-445.109600360349,0.000000000000000E+000) (8.39379739873469,0.000000000000000E+000) (1711.15532905889,0.000000000000000E+000)
DFPT polarizability (Bohr^3)        xx        yy        zz        xy        xz        yz
  | Polarizability:--->                       977.883231783                 1362.339629891                 1711.155329059                    1.398825440                 -444.960585180                    8.348454825

DFPT for dielectric_constant:--->  # PARSE DFPT_dielectric_tensor
               2.326966686856365             0.001898176284981            -0.603802022886714
               0.001883314013902             2.848665818466396             0.011328675121701
              -0.604004233308214             0.011390204026745             3.322001281847778

                                               :  max(cpu_time)    wall_clock(cpu1)
  | Time for  dielectric calculation            :        0.000 s           0.000 s
===========================================================================

------------------------------------------------------------------------------
  Final output of selected total energy values:

  The following output summarizes some interesting total energy values
  at the end of a run (AFTER all relaxation, molecular dynamics, etc.).

  | Total energy of the DFT / Hartree-Fock s.c.f. calculation      :         -83267.597505299 eV
  | Final zero-broadening corrected energy (caution - metals only) :         -83267.597505299 eV
  | For reference only, the value of 1 Hartree used in FHI-aims is :             27.211384500 eV
  | For reference only, the overall average (free atom contribution
  | + realspace contribution) of the electrostatic potential after
  | s.c.f. convergence is                                          :             -7.694859373 eV

  Before relying on these values, please be sure to understand exactly which
  total energy value is referred to by a given number. Different objects may
  all carry the same name 'total energy'. Definitions:

  Total energy of the DFT / Hartree-Fock s.c.f. calculation:
  | Note that this energy does not include ANY quantities calculated after the
  | s.c.f. cycle, in particular not ANY RPA, MP2, etc. many-body perturbation terms.

  Final zero-broadening corrected energy:
  | For metallic systems only, a broadening of the occupation numbers at the Fermi
  | level can be extrapolated back to zero broadening by an electron-gas inspired
  | formula. For all systems that are not real metals, this value can be
  | meaningless and should be avoided.

------------------------------------------------------------------------------
  Methods described in the following list of references were used in this FHI-aims run.
  If you publish the results, please make sure to cite these reference if they apply.
  FHI-aims is an academic code, and for our developers (often, Ph.D. students
  and postdocs), scientific credit in the community is essential.
  Thank you for helping us!

  For any use of FHI-aims, please cite:

    Volker Blum, Ralf Gehrke, Felix Hanke, Paula Havu, Ville Havu,
    Xinguo Ren, Karsten Reuter, and Matthias Scheffler
    'Ab initio molecular simulations with numeric atom-centered orbitals'
    Computer Physics Communications 180, 2175-2196 (2009)
    http://doi.org/10.1016/j.cpc.2009.06.022


  For Hartree-Fock, hybrid functionals, or many-body perturbation theory used in your run, please cite:

    Xinguo Ren, Patrick Rinke, Volker Blum, Juergen Wieferink, Alex Tkatchenko,
    Andrea Sanfilippo, Karsten Reuter, and Matthias Scheffler,
    'Resolution-of-identity approach to Hartree-Fock, hybrid density functionals,
    RPA, MP2, and GW with numeric atom-centered orbital basis functions'
    New Journal of Physics 14, 053020 (2012).
    http://doi.org/10.1088/1367-2630/14/5/053020


  The provided symmetry information was generated with SPGlib:

    Atsushi Togo, Yusuke Seto, Dimitar Pashov
    SPGlib 1.7.3 obtained from http://spglib.sourceforge.net
    Copyright (C) 2008 Atsushi Togo


  The DFPT (perturbation by an electric field) part of the code was used.
  Here is the corresponding reference:

    Honghui Shang, Nathaniel Raimbault, Mariana Rossi,
    Christian Carbogno, Patrick Rinke and Matthias Scheffler,
    'All-Electron, Real-Space Perturbation Theory for Homogeneous
    Electric Fields: Theory, Implementation, and Application within dft'
    New Journal of Physics, 20(7):073040, 2018


  The ELSI infrastructure was used in your run to solve the Kohn-Sham electronic structure.
  Please check out http://elsi-interchange.org to learn more.
  If scalability is important for your project, please acknowledge ELSI by citing:

    V. W-z. Yu, F. Corsetti, A. Garcia, W. P. Huhn, M. Jacquelin, W. Jia,
    B. Lange, L. Lin, J. Lu, W. Mi, A. Seifitokaldani, A. Vazquez-Mayagoitia,
    C. Yang, H. Yang, and V. Blum
    'ELSI: A unified software interface for Kohn-Sham electronic structure solvers'
    Computer Physics Communications 222, 267-285 (2018).
    http://doi.org/10.1016/j.cpc.2017.09.007


  For the real-space grid partitioning and parallelization used in this calculation, please cite:

    Ville Havu, Volker Blum, Paula Havu, and Matthias Scheffler,
    'Efficient O(N) integration for all-electron electronic structure calculation'
    'using numerically tabulated basis functions'
    Journal of Computational Physics 228, 8367-8379 (2009).
    http://doi.org/10.1016/j.jcp.2009.08.008


  The high-level electronic structure method used in your calculation
  employed our efficient localized resolution of identity for the Coulomb operator.
  Some calculations, especially large-scale hybrid density functional theory,
  are only possible thanks to this development. For this feature, please cite:

    Arvid Ihrig, Juergen Wieferink, Igor Ying Zhang, Matti Ropo, Xinguo Ren,
    Patrick Rinke, Matthias Scheffler, and Volker Blum,
    'Accurate localized resolution of identity approach for linear-scaling
    hybrid density functionals and for many-body perturbation theory'
    New Journal of Physics 117, 093020 (2015).
    http://doi.org/10.1088/1367-2630/17/9/093020

  Of course, there are many other important community references, e.g., those cited in the
  above references. Our list is limited to references that describe implementations in the
  FHI-aims code. The reason is purely practical (length of this list) - please credit others as well.

------------------------------------------------------------
          Leaving FHI-aims.
          Date     :  20230120, Time     :  135334.846

          Computational steps:
          | Number of self-consistency cycles          :           47
          | Number of SCF (re)initializations          :            1
          | Number of coupled perturbed self-consistency cycles          :            0
          | Number of CPSCF (re)initializations          :            0

          Detailed time accounting                     :  max(cpu_time)    wall_clock(cpu1)
          | Total time                                  :     1596.523 s        1619.056 s
          | GPU initialization                          :        2.403 s          25.162 s
          | Preparation time                            :        0.074 s           0.070 s
          | Boundary condition initalization            :        0.999 s           0.999 s
          | Grid partitioning                           :        1.247 s           1.248 s
          | Preloading free-atom quantities on grid     :        4.146 s           4.145 s
          | Free-atom superposition energy              :        0.520 s           0.520 s
          | Total time for integrations                 :       21.237 s          21.352 s
          | Product basis setup: Total time             :        0.000 s           0.000 s
          | Product basis: | 2-center integrations     :(       0.000 s)  (       0.000 s)
          | Product basis: | LVL 3-center & coefficient:(       0.000 s)  (       0.000 s)
          | Total time for solution of K.-S. equations  :        3.879 s           3.880 s
          | Total time for density update               :       14.392 s          14.577 s
          | Total time for mixing & preconditioning     :       12.862 s          12.865 s
          | Total time for Hartree multipole update     :        0.092 s           0.091 s
          | Total time for Hartree multipole sum        :       46.734 s          46.749 s
          | Total time for total energy evaluation      :        0.007 s           0.005 s
          | Total time first_order_DM                   :        1.952 s           1.956 s
          | Total time first_order_density              :      326.424 s         326.440 s
          | Total time first_order_potential            :      125.580 s         125.614 s
          | Total time first_order_H                    :      628.280 s         628.442 s
          | Total time solving of Sternheimer equations :        1.932 s           1.932 s
          | Total time for dielectric constant          :        0.000 s           0.000 s
          | Total time momentum matrix                  :        0.000 s           0.000 s

          GPU acceleration has been used for charge density update.
          GPU acceleration has been used for real-space Hamiltonian integration.
          Due to GPU usage, wall_clock(cpu1) will give a more reliable estimate for timings.

          Partial memory accounting:
          | Residual value for overall tracked memory usage across tasks:     1.234863 MB (should be 0.000000 MB)
          |
          | Largest tracked array allocation:
          |   Minimum:      103.159 MB (DFPT_pulay_mixing::initialize_pulay_mixing::X_in_diffs on task  0)
          |   Maximum:      103.159 MB (DFPT_pulay_mixing::initialize_pulay_mixing::X_in_diffs on task  0)
          |   Average:      103.159 MB
          |
          | Because the residual tracked memory usage was not zero, the peak value for overall
          | tracked memory usage was not output, as it is probably incorrect.  This is likely due
          | to a missing aims_deallocate statement in the source code, which should be otherwise
          | harmless.
          |
          Note:  These values currently only include a subset of arrays which are explicitly tracked.
          The "true" memory usage will be greater.

          Have a nice day.
------------------------------------------------------------
