------------------------------------------------------------
          Invoking FHI-aims ...

          When using FHI-aims, please cite the following reference:

            Volker Blum, Ralf Gehrke, Felix Hanke, Paula Havu,
            Ville Havu, Xinguo Ren, Karsten Reuter, and Matthias Scheffler,
            'Ab Initio Molecular Simulations with Numeric Atom-Centered Orbitals',
            Computer Physics Communications 180, 2175-2196 (2009)

          In addition, many other developments in FHI-aims are likely important for
          your particular application. A partial list of references is given at the end of
          this file. Thank you for giving credit to the authors of these developments.

          For any questions about FHI-aims, please visit our slack channel at

            https://fhi-aims.slack.com

          and our main development and support site at

            https://aims-git.rz-berlin.mpg.de .

          The latter site, in particular, has a wiki to collect information, as well
          as an issue tracker to log discussions, suggest improvements, and report issues
          or bugs. https://aims-git.rz-berlin.mpg.de is also the main development site
          of the project and all new and updated code versions can be obtained there.
          Please send an email to aims-coordinators@fhi-berlin.mpg.de and we will add
          you to these sites. They are for you and everyone is welcome there.

------------------------------------------------------------



  Date     :  20230120, Time     :  164502.053
  Time zero on CPU 1             :   0.371198000000000E+00  s.
  Internal wall clock time zero  :           443465102.053  s.

  FHI-aims created a unique identifier for this run for later identification
  aims_uuid : A321295E-1EE9-42D0-A2FE-5A33DE6B734F

  Build configuration of the current instance of FHI-aims
  -------------------------------------------------------
  FHI-aims version      : 220829
  Commit number         : 9895fc21d
  CMake host system     : Linux-5.3.18-150300.59.68-default
  CMake version         : 3.17.0
  Fortran compiler      : /mpcdf/soft/SLE_15/packages/x86_64/intel_oneapi/2021.3/mpi/2021.3.0/bin/mpiifort (Intel) version 20.2.3.20210609
  Fortran compiler flags: -O3 -ip -fp-model precise
  C compiler            : /mpcdf/soft/SLE_15/packages/x86_64/intel/2021.3.0/bin/icc (Intel) version 20.2.3.20210609
  C compiler flags      : -O3 -ip -fp-model precise -std=gnu99
  CUDA compiler         : /mpcdf/soft/SLE_15/packages/x86_64/cuda/11.6.2/bin/nvcc
  CUDA compiler flags   : -O3 -DAdd_ -lcublas
  ELPA2 kernel          : AVX512
  Using MPI
  Using ScaLAPACK
  Using LibXC
  Using CUDA
  Using i-PI
  Using RLSY
  Linking against: /mpcdf/soft/SLE_15/packages/x86_64/cuda/11.6.2/lib64/libcublas.so
                   /mpcdf/soft/SLE_15/packages/x86_64/cuda/11.6.2/lib64/libcudart.so
                   /mpcdf/soft/SLE_15/packages/x86_64/intel_oneapi/2021.3/mkl/latest/lib/intel64/libmkl_intel_lp64.so
                   /mpcdf/soft/SLE_15/packages/x86_64/intel_oneapi/2021.3/mkl/latest/lib/intel64/libmkl_sequential.so
                   /mpcdf/soft/SLE_15/packages/x86_64/intel_oneapi/2021.3/mkl/latest/lib/intel64/libmkl_core.so
                   /mpcdf/soft/SLE_15/packages/x86_64/intel_oneapi/2021.3/mkl/latest/lib/intel64/libmkl_blacs_intelmpi_lp64.so
                   /mpcdf/soft/SLE_15/packages/x86_64/intel_oneapi/2021.3/mkl/latest/lib/intel64/libmkl_scalapack_lp64.so

  Using       18 parallel tasks.
  Task        0 on host adag006 reporting.
  Task        1 on host adag006 reporting.
  Task        2 on host adag006 reporting.
  Task        3 on host adag006 reporting.
  Task        4 on host adag006 reporting.
  Task        5 on host adag006 reporting.
  Task        6 on host adag006 reporting.
  Task        7 on host adag006 reporting.
  Task        8 on host adag006 reporting.
  Task        9 on host adag006 reporting.
  Task       10 on host adag006 reporting.
  Task       11 on host adag006 reporting.
  Task       12 on host adag006 reporting.
  Task       13 on host adag006 reporting.
  Task       14 on host adag006 reporting.
  Task       15 on host adag006 reporting.
  Task       16 on host adag006 reporting.
  Task       17 on host adag006 reporting.

  Performing system and environment tests:
  | Environment variable OMP_NUM_THREADS correctly set to 1.
  | Checking for ScaLAPACK...
  | Testing pdtran()...
  | All pdtran() tests passed.

  Obtaining array dimensions for all initial allocations:
  
  -----------------------------------------------------------------------
  Parsing control.in (first pass over file, find array dimensions only).
  The contents of control.in will be repeated verbatim below
  unless switched off by setting 'verbatim_writeout .false.' .
  in the first line of control.in .
  -----------------------------------------------------------------------
  
  #
  # Input for polarizability replays on generic oligoacene molecular crystals (light settings,  LDA+MBD).
  #
  #########################################################################################
  #
  #  Physical model
  #
    xc                 pw-lda
    spin               none
    relativistic       none
    charge             0.0
    k_grid 	     2 1 1
    DFPT dielectric
  #
  #  GPU acceleration
  #
  # Turns on GPU acceleration everywhere
    use_gpu
  
  # Turns OFF GPU acceleration of ELPA - may be necessary if GPU ELPA is slow
    elsi_elpa_gpu 0
  #
  #  Relaxation
  #
  #  relax_geometry trm 1E-3
  #  relax_unit_cell fixed_angles
  #
  #  SCF convergence        #
    charge_mix_param   0.75
    #sc_accuracy_rho 1E-4
  #
  # i-PI communication
  #
  compute_forces .false.
  # use_pimd_wrapper 130.183.223.27 26118
  #communicate_pimd_wrapper polarizability
  #output_level MD_light
  #
  # Output SALTED info
    ri_density_restart write
    ri_rho1 write
    ri_full_output .true.
  #  sc_accuracy_rho    1d-6
    default_prodbas_acc 1e-6
    default_max_l_prodbas 6
  #
  #
  ################################################################################
  #
  #  FHI-aims code project
  #  VB, Fritz-Haber Institut, 2009
  #
  #  Suggested "light" defaults for H atom (to be pasted into control.in file)
  #  Be sure to double-check any results obtained with these settings for post-processing,
  #  e.g., with the "tight" defaults and larger basis sets.
  #
  ################################################################################
    species        H
  #     global species definitions
      nucleus             1
      mass                1.00794
  #
      l_hartree           4
  #
      cut_pot             3.5  1.5  1.0
      basis_dep_cutoff    1e-4
  #
      radial_base         24 5.0
      radial_multiplier   1
      angular_grids       specified
        division   0.2421   50
        division   0.3822  110
        division   0.4799  194
        division   0.5341  302
  #      division   0.5626  434
  #      division   0.5922  590
  #      division   0.6542  770
  #      division   0.6868 1202
  #      outer_grid  770
        outer_grid  302
  ################################################################################
  #
  #  Definition of "minimal" basis
  #
  ################################################################################
  #     valence basis states
      valence      1  s   1.
  #     ion occupancy
      ion_occ      1  s   0.5
  ################################################################################
  #
  #  Suggested additional basis functions. For production calculations,
  #  uncomment them one after another (the most important basis functions are
  #  listed first).
  #
  #  Basis constructed for dimers: 0.5 A, 0.7 A, 1.0 A, 1.5 A, 2.5 A
  #
  ################################################################################
  #  "First tier" - improvements: -1014.90 meV to -62.69 meV
       hydro 2 s 2.1
       hydro 2 p 3.5
  #  "Second tier" - improvements: -12.89 meV to -1.83 meV
  #     hydro 1 s 0.85
  #     hydro 2 p 3.7
  #     hydro 2 s 1.2
  #     hydro 3 d 7
  #  "Third tier" - improvements: -0.25 meV to -0.12 meV
  #     hydro 4 f 11.2
  #     hydro 3 p 4.8
  #     hydro 4 d 9
  #     hydro 3 s 3.2
  ################################################################################
  ################################################################################
  #
  #  FHI-aims code project
  #  VB, Fritz-Haber Institut, 2009
  #
  #  Suggested "light" defaults for C atom (to be pasted into control.in file)
  #  Be sure to double-check any results obtained with these settings for post-processing,
  #  e.g., with the "tight" defaults and larger basis sets.
  #
  ################################################################################
    species        C
  #     global species definitions
      nucleus             6
      mass                12.0107
  #
      l_hartree           4
  #
      cut_pot             3.5  1.5  1.0
      basis_dep_cutoff    1e-4
  #
      radial_base         34 5.0
      radial_multiplier   1
      angular_grids specified
        division   0.3326   50
        division   0.5710  110
        division   0.7727  194
        division   0.8772  302
  #      division   0.9334  434
  #      division   0.9625  590
  #      division   0.9924  770
  #      division   1.0230  974
  #      division   1.4589 1202
  #     outer_grid  974
       outer_grid 302
  ################################################################################
  #
  #  Definition of "minimal" basis
  #
  ################################################################################
  #     valence basis states
      valence      2  s   2.
      valence      2  p   2.
  #     ion occupancy
      ion_occ      2  s   1.
      ion_occ      2  p   1.
  ################################################################################
  #
  #  Suggested additional basis functions. For production calculations,
  #  uncomment them one after another (the most important basis functions are
  #  listed first).
  #
  #  Constructed for dimers: 1.0 A, 1.25 A, 1.5 A, 2.0 A, 3.0 A
  #
  ################################################################################
  #  "First tier" - improvements: -1214.57 meV to -155.61 meV
       hydro 2 p 1.7
       hydro 3 d 6
       hydro 2 s 4.9
  #  "Second tier" - improvements: -67.75 meV to -5.23 meV
  #     hydro 4 f 9.8
  #     hydro 3 p 5.2
  #     hydro 3 s 4.3
  #     hydro 5 g 14.4
  #     hydro 3 d 6.2
  #  "Third tier" - improvements: -2.43 meV to -0.60 meV
  #     hydro 2 p 5.6
  #     hydro 2 s 1.4
  #     hydro 3 d 4.9
  #     hydro 4 f 11.2
  #  "Fourth tier" - improvements: -0.39 meV to -0.18 meV
  #     hydro 2 p 2.1
  #     hydro 5 g 16.4
  #     hydro 4 d 13.2
  #     hydro 3 s 13.6
  #     hydro 4 f 17.6
  #  Further basis functions - improvements: -0.08 meV and below
  #     hydro 3 s 2
  #     hydro 3 p 6
  #     hydro 4 d 20
  
  -----------------------------------------------------------------------
  Completed first pass over input file control.in .
  -----------------------------------------------------------------------
  
  
  -----------------------------------------------------------------------
  Parsing geometry.in (first pass over file, find array dimensions only).
  The contents of geometry.in will be repeated verbatim below
  unless switched off by setting 'verbatim_writeout .false.' .
  in the first line of geometry.in .
  -----------------------------------------------------------------------
  
  #=======================================================
  # FHI-aims file: /ada/ptmp/mpsd/alewis/naphthalene/qmdata/data/geoms/356.in
  # Created using the Atomic Simulation Environment (ASE)
  # Thu Jan 19 15:19:17 2023
  #=======================================================
  lattice_vector 8.1020000000000003 0.0000000000000000 0.0000000000000000
  lattice_vector 0.0000000000000000 11.8800000000000008 0.0000000000000000
  lattice_vector -9.7850918486534706 0.0000000000000000 14.2571119625755713
  atom -0.9865880000000000 0.2341750000000000 2.3879899999999998 C
  atom 0.1591540000000000 3.0716800000000002 4.7712500000000002 C
  atom 4.0642500000000004 6.0442799999999997 4.8054500000000004 C
  atom 3.1766999999999999 2.7786200000000001 2.3571499999999999 C
  atom -0.1545580000000000 1.0677500000000000 1.6860599999999999 C
  atom -0.5904210000000000 3.9405899999999998 5.5353100000000000 C
  atom 3.3780899999999998 5.0923200000000000 5.5105500000000003 C
  atom 3.9857000000000000 1.9663800000000000 1.5878099999999999 C
  atom 0.3108200000000000 0.6653510000000000 0.3945870000000000 C
  atom -0.9709820000000000 3.5754999999999999 6.8566099999999999 C
  atom 3.1478700000000002 5.3107100000000003 6.9037699999999997 C
  atom 4.3680899999999996 2.2997000000000001 0.2851580000000000 C
  atom -3.8183400000000001 1.4458800000000001 6.5238899999999997 C
  atom 3.1428199999999999 4.4032799999999996 0.5590970000000000 C
  atom 7.1805700000000003 4.4211799999999997 0.7344370000000000 C
  atom 0.3081010000000000 1.4898300000000000 6.5835800000000004 C
  atom -3.5646100000000001 1.0108200000000001 5.2473400000000003 C
  atom 2.7470200000000000 4.0494000000000003 1.8168700000000000 C
  atom 6.8969699999999996 4.8832000000000004 1.9946200000000001 C
  atom 0.6340900000000000 1.8719600000000001 5.2871300000000003 C
  atom -1.3338699999999999 0.5581720000000000 3.3719500000000000 H
  atom 0.4669220000000000 3.3977200000000001 3.7846000000000002 H
  atom 4.2581300000000004 5.8360599999999998 3.7681800000000001 H
  atom 2.9198499999999998 2.4800499999999999 3.3687000000000000 H
  atom 0.2009260000000000 2.0139800000000001 2.0866300000000000 H
  atom -0.9143890000000000 4.8911400000000000 5.1151799999999996 H
  atom 3.0492599999999999 4.1376799999999996 5.0605500000000001 H
  atom 4.2935800000000004 1.0130100000000000 2.0044200000000001 H
  atom -3.4284699999999999 2.3963700000000001 6.9165400000000004 H
  atom 2.7757100000000001 5.3255800000000004 0.1042930000000000 H
  atom 6.8643799999999997 3.3972199999999999 0.4549110000000000 H
  atom 0.6061900000000000 0.5404630000000000 7.0112199999999998 H
  atom -3.0266000000000002 1.6305499999999999 4.5585399999999998 H
  atom 2.0550700000000002 4.6703299999999999 2.3703900000000000 H
  atom 6.3261799999999999 4.2404400000000004 2.6893500000000001 H
  atom 1.1122399999999999 1.1631499999999999 4.6136600000000003 H
  atom -5.5433800000000000 0.2484730000000000 9.6104000000000003 C
  atom -4.6996500000000001 3.0605400000000000 11.9693000000000005 C
  atom -0.7265500000000000 5.5589300000000001 11.9580000000000002 C
  atom -1.5934800000000000 2.8419500000000002 9.4812799999999999 C
  atom -4.8151799999999998 1.0521300000000000 8.7506000000000004 C
  atom -5.5341399999999998 3.8833400000000000 12.6997999999999998 C
  atom -1.5537399999999999 4.7942000000000000 12.7674000000000003 C
  atom -0.7447170000000000 2.0095299999999998 8.7547999999999995 C
  atom -4.5830500000000001 0.6386250000000000 7.4116999999999997 C
  atom -5.8604200000000004 3.5512500000000000 14.0162999999999993 C
  atom -1.8792100000000000 5.2212500000000004 14.0899000000000001 C
  atom -0.4600520000000000 2.3358300000000001 7.3883599999999996 C
  atom -8.7007200000000005 1.5025800000000000 13.7811000000000003 C
  atom -1.7653099999999999 4.4196200000000001 7.6698199999999996 C
  atom 2.3818899999999998 4.4167399999999999 7.7056399999999998 C
  atom -4.5793499999999998 1.4854400000000001 13.7403999999999993 C
  atom -8.2957300000000007 1.0330100000000000 12.5478000000000005 C
  atom -2.1043500000000002 4.0471399999999997 8.9610400000000006 C
  atom 2.0800500000000000 4.7153600000000004 9.0209799999999998 C
  atom -4.2015599999999997 1.8650100000000001 12.4715000000000007 C
  atom -5.7642400000000000 0.6312690000000000 10.6135000000000002 H
  atom -4.3977700000000004 3.3226499999999999 10.9377999999999993 H
  atom -0.4740870000000000 5.2329200000000000 10.9731000000000005 H
  atom -1.7997000000000001 2.6261899999999998 10.5221000000000000 H
  atom -4.4399699999999998 2.0152999999999999 9.0833200000000005 H
  atom -5.8362600000000002 4.8664899999999998 12.3053000000000008 H
  atom -1.9864400000000000 3.8486300000000000 12.3945000000000007 H
  atom -0.3592670000000000 1.0381899999999999 9.1375600000000006 H
  atom -8.4524100000000004 2.5205700000000002 14.0571999999999999 H
  atom -2.1943400000000000 5.2882199999999999 7.1613499999999997 H
  atom 1.9905100000000000 3.4793799999999999 7.2653100000000004 H
  atom -4.1629899999999997 0.6023269999999999 14.2058000000000000 H
  atom -7.6775399999999996 1.7383200000000001 11.9238000000000000 H
  atom -2.7194099999999999 4.6858800000000000 9.6150400000000005 H
  atom 1.4690399999999999 4.0444800000000001 9.5947099999999992 H
  atom -3.4697300000000002 1.2643400000000000 11.9435000000000002 H
  atom -0.7326540000000000 6.1399999999999997 2.4664199999999998 C
  atom -0.0246300000000000 9.1795299999999997 4.7807800000000000 C
  atom 4.0261500000000003 11.6310000000000002 4.7817900000000000 C
  atom 3.2007699999999999 8.7455900000000000 2.3512700000000000 C
  atom -0.0534003000000000 6.9834199999999997 1.6033400000000000 C
  atom -0.7025790000000000 10.0155999999999992 5.6297400000000000 C
  atom 3.2836200000000000 10.8359000000000005 5.6281900000000000 C
  atom 4.0199100000000003 7.8974200000000003 1.6282700000000001 C
  atom 0.2871590000000000 6.4792899999999998 0.2977140000000000 C
  atom -0.9993260000000000 9.6428600000000007 6.9746300000000003 C
  atom 3.0016799999999999 11.2582000000000004 6.9365500000000004 C
  atom 4.4494600000000002 8.2969100000000005 0.3313440000000000 C
  atom -3.8735400000000002 7.5530999999999997 6.6870700000000003 C
  atom 3.1531899999999999 10.3954000000000004 0.5688220000000000 C
  atom 7.1948200000000000 10.4138000000000002 0.7017760000000000 C
  atom 0.1230490000000000 7.5106900000000003 6.4836700000000000 C
  atom -3.5965300000000000 7.2439600000000004 5.3720200000000000 C
  atom 2.7497799999999999 9.9925599999999992 1.8250700000000000 C
  atom 6.6803999999999997 10.8797999999999995 1.8948199999999999 C
  atom 0.4395170000000000 7.9065300000000001 5.2064199999999996 C
  atom -0.9540120000000000 6.4360499999999998 3.4825300000000001 H
  atom 0.1701680000000000 9.4885300000000008 3.7787099999999998 H
  atom 4.1797599999999999 11.3549000000000007 3.7064100000000000 H
  atom 2.8806400000000001 8.4301399999999997 3.3684200000000000 H
  atom 0.3525220000000000 7.9375099999999996 1.8787100000000001 H
  atom -0.9573870000000000 11.0287000000000006 5.2944199999999997 H
  atom 2.8811599999999999 9.9013200000000001 5.2623300000000004 H
  atom 4.4393099999999999 7.0015700000000001 2.0522200000000002 H
  atom -3.6292599999999999 8.5406999999999993 7.1039700000000003 H
  atom 2.7734100000000002 11.3232999999999997 0.1071720000000000 H
  atom 6.9367900000000002 9.4424100000000006 0.3033790000000000 H
  atom 0.4012570000000000 6.4772999999999996 6.7760100000000003 H
  atom -3.0701000000000001 7.9721200000000003 4.7460100000000001 H
  atom 2.1053999999999999 10.6214999999999993 2.4150800000000001 H
  atom 5.9932900000000000 10.2775999999999996 2.4971399999999999 H
  atom 0.9657040000000000 7.2050000000000001 4.5516600000000000 H
  atom -5.6386799999999999 5.9904700000000002 9.5368200000000005 C
  atom -4.5842299999999998 9.0371699999999997 11.9995999999999992 C
  atom -0.5611640000000000 11.6237999999999992 12.0645000000000007 C
  atom -1.4488000000000001 8.8313000000000006 9.6405200000000004 C
  atom -4.9213800000000001 6.8852000000000002 8.8255199999999991 C
  atom -5.3702800000000002 9.8721200000000007 12.7146000000000008 C
  atom -1.3502700000000001 10.8130000000000006 12.8138000000000005 C
  atom -0.8043580000000000 8.0073699999999999 8.7703299999999995 C
  atom -4.5659999999999998 6.5763699999999998 7.4577999999999998 C
  atom -5.7945900000000004 9.5737500000000004 14.0520999999999994 C
  atom -1.7697300000000000 11.2362000000000002 14.1557999999999993 C
  atom -0.5511440000000000 8.3546800000000001 7.4294200000000004 C
  atom -8.6661999999999999 7.2464000000000004 13.6754999999999995 C
  atom -1.7279000000000000 10.4868000000000006 7.8820100000000002 C
  atom 2.3086099999999998 10.4263999999999992 7.8731099999999996 C
  atom -4.5093899999999998 7.4303400000000002 13.8032000000000004 C
  atom -8.3704699999999992 6.8242200000000004 12.4122000000000003 C
  atom -1.9068799999999999 10.0978999999999992 9.1857299999999995 C
  atom 2.0737700000000001 10.8589000000000002 9.1589700000000001 C
  atom -4.1421900000000003 7.7751500000000000 12.5251999999999999 C
  atom -6.0225799999999996 6.3119699999999996 10.5183000000000000 H
  atom -4.3163099999999996 9.2794799999999995 10.9427000000000003 H
  atom -0.2776580000000000 11.2832000000000008 11.0505999999999993 H
  atom -1.6016699999999999 8.5606000000000009 10.6885999999999992 H
  atom -4.5985899999999997 7.8296099999999997 9.2509899999999998 H
  atom -5.7958299999999996 10.7944999999999993 12.2833000000000006 H
  atom -1.6829400000000001 9.8310200000000005 12.4649000000000001 H
  atom -0.5238340000000000 7.0214999999999996 9.0878300000000003 H
  atom -8.2804400000000005 8.1631000000000000 14.0832999999999995 H
  atom -2.1341600000000001 11.4573999999999998 7.5601900000000004 H
  atom 1.9557599999999999 9.4464900000000007 7.5289599999999997 H
  atom -4.2331399999999997 6.5053700000000001 14.3324999999999996 H
  atom -7.7148099999999999 7.4318299999999997 11.7908000000000008 H
  atom -2.5125400000000000 10.7210000000000001 9.8699999999999992 H
  atom 1.5556600000000000 10.2276000000000007 9.8835499999999996 H
  atom -3.5057100000000001 7.1134399999999998 11.9260999999999999 H
  
  -----------------------------------------------------------------------
  Completed first pass over input file geometry.in .
  -----------------------------------------------------------------------
  

  Basic array size parameters:
  | Number of species                 :        2
  | Number of atoms                   :      144
  | Number of lattice vectors         :        3
  | Max. basis fn. angular momentum   :        2
  | Max. atomic/ionic basis occupied n:        2
  | Max. number of basis fn. types    :        2
  | Max. radial fns per species/type  :        3
  | Max. logarithmic grid size        :     1277
  | Max. radial integration grid size :       34
  | Max. angular integration grid size:      302
  | Max. angular grid division number :        8
  | Radial grid for Hartree potential :     1277
  | Number of spin channels           :        1

------------------------------------------------------------
          Reading file control.in.
------------------------------------------------------------
  XC: Using Perdew-Wang parametrisation of Ceperley-Alder LDA.
  Spin treatment: No spin polarisation.
  Non-relativistic treatment of kinetic energy.
  Charge =   0.000000E+00: Neutral system requested explicitly.
  Found k-point grid:         2         1         1
  DFPT calculation will begin after the DFT/HF calculation.
  Charge density mixing - mixing parameter:     0.7500
  Forces will not be computed.
 
  Reading configuration options for species H                   .
  | Found nuclear charge :   1.0000
  | Found atomic mass :    1.00794000000000      amu
  | Found l_max for Hartree potential  :   4
  | Found cutoff potl. onset [A], width [A], scale factor :    3.50000    1.50000    1.00000
  | Threshold for basis-dependent cutoff potential is   0.100000E-03
  | Found data for basic radial integration grid :    24 points, outermost radius =    5.000 A
  | Found multiplier for basic radial grid :   1
  | Found angular grid specification: user-specified.
  | Specified grid contains     5 separate shells.
  | Check grid settings after all constraints further below.
  | Found free-atom valence shell :  1 s   1.000
  | No ionic wave fns used. Skipping ion_occ.
  | Found hydrogenic basis function :  2 s   2.100
  | Found hydrogenic basis function :  2 p   3.500
  Species H                   : Missing cutoff potential type.
  Defaulting to exp(1/x)/(1-x)^2 type cutoff potential.
  Species H : No 'logarithmic' tag. Using default grid for free atom:
  | Default logarithmic grid data [bohr] : 0.1000E-03 0.1000E+03 0.1012E+01
  Species H : On-site basis accuracy parameter (for Gram-Schmidt orthonormalisation) not specified.
  Using default value basis_acc =  0.1000000E-03.
  Species H                   : Using default innermost maximum threshold i_radial=  2 for radial functions.
  Species H                   : Default cutoff onset for free atom density etc. : 0.35000000E+01 AA.
  Species H                   : Basic radial grid will be enhanced according to radial_multiplier =   1, to contain    24 grid points.
 
  Reading configuration options for species C                   .
  | Found nuclear charge :   6.0000
  | Found atomic mass :    12.0107000000000      amu
  | Found l_max for Hartree potential  :   4
  | Found cutoff potl. onset [A], width [A], scale factor :    3.50000    1.50000    1.00000
  | Threshold for basis-dependent cutoff potential is   0.100000E-03
  | Found data for basic radial integration grid :    34 points, outermost radius =    5.000 A
  | Found multiplier for basic radial grid :   1
  | Found angular grid specification: user-specified.
  | Specified grid contains     5 separate shells.
  | Check grid settings after all constraints further below.
  | Found free-atom valence shell :  2 s   2.000
  | Found free-atom valence shell :  2 p   2.000
  | No ionic wave fns used. Skipping ion_occ.
  | No ionic wave fns used. Skipping ion_occ.
  | Found hydrogenic basis function :  2 p   1.700
  | Found hydrogenic basis function :  3 d   6.000
  | Found hydrogenic basis function :  2 s   4.900
  Species C                   : Missing cutoff potential type.
  Defaulting to exp(1/x)/(1-x)^2 type cutoff potential.
  Species C : No 'logarithmic' tag. Using default grid for free atom:
  | Default logarithmic grid data [bohr] : 0.1000E-03 0.1000E+03 0.1012E+01
  Species C : On-site basis accuracy parameter (for Gram-Schmidt orthonormalisation) not specified.
  Using default value basis_acc =  0.1000000E-03.
  Species C                   : Using default innermost maximum threshold i_radial=  2 for radial functions.
  Species C                   : Default cutoff onset for free atom density etc. : 0.35000000E+01 AA.
  Species C                   : Basic radial grid will be enhanced according to radial_multiplier =   1, to contain    34 grid points.
 
  Finished reading input file 'control.in'.
 
------------------------------------------------------------


------------------------------------------------------------
          Reading geometry description geometry.in.
------------------------------------------------------------
  | The smallest distance between any two atoms is         1.06656999 AA.
  | The first atom of this pair is atom number                     74 .
  | The second atom of this pair is atom number                    94 .
  | Wigner-Seitz cell of the first atom image           0     0     0 .
  | (The Wigner-Seitz cell of the second atom is 0 0 0  by definition.)

  Symmetry information by spglib:
  | Precision set to  0.1E-04
  | Number of Operations  : 1
  | Space group           : 1
  | International         : P1
  | Schoenflies           : C1^1
  Input structure read successfully.
  The structure contains      144 atoms,  and a total of        544.000 electrons.

  Input geometry:
  | Unit cell:
  |        8.10200000        0.00000000        0.00000000
  |        0.00000000       11.88000000        0.00000000
  |       -9.78509185        0.00000000       14.25711196
  | Atomic structure:
  |       Atom                x [A]            y [A]            z [A]
  |    1: Species C            -0.98658800        0.23417500        2.38799000
  |    2: Species C             0.15915400        3.07168000        4.77125000
  |    3: Species C             4.06425000        6.04428000        4.80545000
  |    4: Species C             3.17670000        2.77862000        2.35715000
  |    5: Species C            -0.15455800        1.06775000        1.68606000
  |    6: Species C            -0.59042100        3.94059000        5.53531000
  |    7: Species C             3.37809000        5.09232000        5.51055000
  |    8: Species C             3.98570000        1.96638000        1.58781000
  |    9: Species C             0.31082000        0.66535100        0.39458700
  |   10: Species C            -0.97098200        3.57550000        6.85661000
  |   11: Species C             3.14787000        5.31071000        6.90377000
  |   12: Species C             4.36809000        2.29970000        0.28515800
  |   13: Species C            -3.81834000        1.44588000        6.52389000
  |   14: Species C             3.14282000        4.40328000        0.55909700
  |   15: Species C             7.18057000        4.42118000        0.73443700
  |   16: Species C             0.30810100        1.48983000        6.58358000
  |   17: Species C            -3.56461000        1.01082000        5.24734000
  |   18: Species C             2.74702000        4.04940000        1.81687000
  |   19: Species C             6.89697000        4.88320000        1.99462000
  |   20: Species C             0.63409000        1.87196000        5.28713000
  |   21: Species H            -1.33387000        0.55817200        3.37195000
  |   22: Species H             0.46692200        3.39772000        3.78460000
  |   23: Species H             4.25813000        5.83606000        3.76818000
  |   24: Species H             2.91985000        2.48005000        3.36870000
  |   25: Species H             0.20092600        2.01398000        2.08663000
  |   26: Species H            -0.91438900        4.89114000        5.11518000
  |   27: Species H             3.04926000        4.13768000        5.06055000
  |   28: Species H             4.29358000        1.01301000        2.00442000
  |   29: Species H            -3.42847000        2.39637000        6.91654000
  |   30: Species H             2.77571000        5.32558000        0.10429300
  |   31: Species H             6.86438000        3.39722000        0.45491100
  |   32: Species H             0.60619000        0.54046300        7.01122000
  |   33: Species H            -3.02660000        1.63055000        4.55854000
  |   34: Species H             2.05507000        4.67033000        2.37039000
  |   35: Species H             6.32618000        4.24044000        2.68935000
  |   36: Species H             1.11224000        1.16315000        4.61366000
  |   37: Species C            -5.54338000        0.24847300        9.61040000
  |   38: Species C            -4.69965000        3.06054000       11.96930000
  |   39: Species C            -0.72655000        5.55893000       11.95800000
  |   40: Species C            -1.59348000        2.84195000        9.48128000
  |   41: Species C            -4.81518000        1.05213000        8.75060000
  |   42: Species C            -5.53414000        3.88334000       12.69980000
  |   43: Species C            -1.55374000        4.79420000       12.76740000
  |   44: Species C            -0.74471700        2.00953000        8.75480000
  |   45: Species C            -4.58305000        0.63862500        7.41170000
  |   46: Species C            -5.86042000        3.55125000       14.01630000
  |   47: Species C            -1.87921000        5.22125000       14.08990000
  |   48: Species C            -0.46005200        2.33583000        7.38836000
  |   49: Species C            -8.70072000        1.50258000       13.78110000
  |   50: Species C            -1.76531000        4.41962000        7.66982000
  |   51: Species C             2.38189000        4.41674000        7.70564000
  |   52: Species C            -4.57935000        1.48544000       13.74040000
  |   53: Species C            -8.29573000        1.03301000       12.54780000
  |   54: Species C            -2.10435000        4.04714000        8.96104000
  |   55: Species C             2.08005000        4.71536000        9.02098000
  |   56: Species C            -4.20156000        1.86501000       12.47150000
  |   57: Species H            -5.76424000        0.63126900       10.61350000
  |   58: Species H            -4.39777000        3.32265000       10.93780000
  |   59: Species H            -0.47408700        5.23292000       10.97310000
  |   60: Species H            -1.79970000        2.62619000       10.52210000
  |   61: Species H            -4.43997000        2.01530000        9.08332000
  |   62: Species H            -5.83626000        4.86649000       12.30530000
  |   63: Species H            -1.98644000        3.84863000       12.39450000
  |   64: Species H            -0.35926700        1.03819000        9.13756000
  |   65: Species H            -8.45241000        2.52057000       14.05720000
  |   66: Species H            -2.19434000        5.28822000        7.16135000
  |   67: Species H             1.99051000        3.47938000        7.26531000
  |   68: Species H            -4.16299000        0.60232700       14.20580000
  |   69: Species H            -7.67754000        1.73832000       11.92380000
  |   70: Species H            -2.71941000        4.68588000        9.61504000
  |   71: Species H             1.46904000        4.04448000        9.59471000
  |   72: Species H            -3.46973000        1.26434000       11.94350000
  |   73: Species C            -0.73265400        6.14000000        2.46642000
  |   74: Species C            -0.02463000        9.17953000        4.78078000
  |   75: Species C             4.02615000       11.63100000        4.78179000
  |   76: Species C             3.20077000        8.74559000        2.35127000
  |   77: Species C            -0.05340030        6.98342000        1.60334000
  |   78: Species C            -0.70257900       10.01560000        5.62974000
  |   79: Species C             3.28362000       10.83590000        5.62819000
  |   80: Species C             4.01991000        7.89742000        1.62827000
  |   81: Species C             0.28715900        6.47929000        0.29771400
  |   82: Species C            -0.99932600        9.64286000        6.97463000
  |   83: Species C             3.00168000       11.25820000        6.93655000
  |   84: Species C             4.44946000        8.29691000        0.33134400
  |   85: Species C            -3.87354000        7.55310000        6.68707000
  |   86: Species C             3.15319000       10.39540000        0.56882200
  |   87: Species C             7.19482000       10.41380000        0.70177600
  |   88: Species C             0.12304900        7.51069000        6.48367000
  |   89: Species C            -3.59653000        7.24396000        5.37202000
  |   90: Species C             2.74978000        9.99256000        1.82507000
  |   91: Species C             6.68040000       10.87980000        1.89482000
  |   92: Species C             0.43951700        7.90653000        5.20642000
  |   93: Species H            -0.95401200        6.43605000        3.48253000
  |   94: Species H             0.17016800        9.48853000        3.77871000
  |   95: Species H             4.17976000       11.35490000        3.70641000
  |   96: Species H             2.88064000        8.43014000        3.36842000
  |   97: Species H             0.35252200        7.93751000        1.87871000
  |   98: Species H            -0.95738700       11.02870000        5.29442000
  |   99: Species H             2.88116000        9.90132000        5.26233000
  |  100: Species H             4.43931000        7.00157000        2.05222000
  |  101: Species H            -3.62926000        8.54070000        7.10397000
  |  102: Species H             2.77341000       11.32330000        0.10717200
  |  103: Species H             6.93679000        9.44241000        0.30337900
  |  104: Species H             0.40125700        6.47730000        6.77601000
  |  105: Species H            -3.07010000        7.97212000        4.74601000
  |  106: Species H             2.10540000       10.62150000        2.41508000
  |  107: Species H             5.99329000       10.27760000        2.49714000
  |  108: Species H             0.96570400        7.20500000        4.55166000
  |  109: Species C            -5.63868000        5.99047000        9.53682000
  |  110: Species C            -4.58423000        9.03717000       11.99960000
  |  111: Species C            -0.56116400       11.62380000       12.06450000
  |  112: Species C            -1.44880000        8.83130000        9.64052000
  |  113: Species C            -4.92138000        6.88520000        8.82552000
  |  114: Species C            -5.37028000        9.87212000       12.71460000
  |  115: Species C            -1.35027000       10.81300000       12.81380000
  |  116: Species C            -0.80435800        8.00737000        8.77033000
  |  117: Species C            -4.56600000        6.57637000        7.45780000
  |  118: Species C            -5.79459000        9.57375000       14.05210000
  |  119: Species C            -1.76973000       11.23620000       14.15580000
  |  120: Species C            -0.55114400        8.35468000        7.42942000
  |  121: Species C            -8.66620000        7.24640000       13.67550000
  |  122: Species C            -1.72790000       10.48680000        7.88201000
  |  123: Species C             2.30861000       10.42640000        7.87311000
  |  124: Species C            -4.50939000        7.43034000       13.80320000
  |  125: Species C            -8.37047000        6.82422000       12.41220000
  |  126: Species C            -1.90688000       10.09790000        9.18573000
  |  127: Species C             2.07377000       10.85890000        9.15897000
  |  128: Species C            -4.14219000        7.77515000       12.52520000
  |  129: Species H            -6.02258000        6.31197000       10.51830000
  |  130: Species H            -4.31631000        9.27948000       10.94270000
  |  131: Species H            -0.27765800       11.28320000       11.05060000
  |  132: Species H            -1.60167000        8.56060000       10.68860000
  |  133: Species H            -4.59859000        7.82961000        9.25099000
  |  134: Species H            -5.79583000       10.79450000       12.28330000
  |  135: Species H            -1.68294000        9.83102000       12.46490000
  |  136: Species H            -0.52383400        7.02150000        9.08783000
  |  137: Species H            -8.28044000        8.16310000       14.08330000
  |  138: Species H            -2.13416000       11.45740000        7.56019000
  |  139: Species H             1.95576000        9.44649000        7.52896000
  |  140: Species H            -4.23314000        6.50537000       14.33250000
  |  141: Species H            -7.71481000        7.43183000       11.79080000
  |  142: Species H            -2.51254000       10.72100000        9.87000000
  |  143: Species H             1.55566000       10.22760000        9.88355000
  |  144: Species H            -3.50571000        7.11344000       11.92610000

  Lattice parameters for 3D lattice (in Angstroms) :     8.102000   11.880000   17.292000
  Angle(s) between unit vectors (in degrees)       :    90.000000  124.463000   90.000000


  Quantities derived from the lattice vectors (in Angstrom^-1):
  | Reciprocal lattice vector 1:  0.775510  0.000000  0.532257
  | Reciprocal lattice vector 2:  0.000000  0.528888  0.000000
  | Reciprocal lattice vector 3: -0.000000  0.000000  0.440705
  | Unit cell volume                               :   0.137227E+04  Angstrom^3

  Fractional coordinates:
                         L1                L2                L3
       atom_frac         0.08051871        0.01971170        0.16749465  C
       atom_frac         0.42382236        0.25855892        0.33465754  C
       atom_frac         0.90871109        0.50877778        0.33705634  C
       atom_frac         0.59176550        0.23389057        0.16533152  C
       atom_frac         0.12375173        0.08987795        0.11826098  C
       atom_frac         0.39602956        0.33169949        0.38824904  C
       atom_frac         0.88375080        0.42864646        0.38651236  C
       atom_frac         0.62644564        0.16552020        0.11136968  C
       atom_frac         0.07178933        0.05600598        0.02767650  C
       atom_frac         0.46098730        0.30096801        0.48092559  C
       atom_frac         0.97335700        0.44702946        0.48423341  C
       atom_frac         0.56329334        0.19357744        0.02000111  C
       atom_frac         0.08136327        0.12170707        0.45758847  C
       atom_frac         0.43526850        0.37064646        0.03921531  C
       atom_frac         0.94848637        0.37215320        0.05151373  C
       atom_frac         0.59573108        0.12540657        0.46177515  C
       atom_frac         0.00454207        0.08508586        0.36805070  C
       atom_frac         0.49296389        0.34085859        0.12743605  C
       atom_frac         1.02023435        0.41104377        0.13990351  C
       atom_frac         0.52614280        0.15757239        0.37084159  C
       atom_frac         0.12100745        0.04698418        0.23651003  H
       atom_frac         0.37822867        0.28600337        0.26545348  H
       atom_frac         0.84477254        0.49125084        0.26430178  H
       atom_frac         0.64575312        0.20875842        0.23628208  H
       atom_frac         0.20156060        0.16952694        0.14635713  H
       atom_frac         0.32045364        0.41171212        0.35878094  H
       atom_frac         0.80504446        0.34828956        0.35494917  H
       atom_frac         0.69973769        0.08527020        0.14059089  H
       atom_frac         0.16274536        0.20171465        0.48512911  H
       atom_frac         0.35143045        0.44828114        0.00731516  H
       atom_frac         0.88578121        0.28596128        0.03190765  H
       atom_frac         0.66874903        0.04549352        0.49177000  H
       atom_frac         0.01259755        0.13725168        0.31973797  H
       atom_frac         0.45444842        0.39312542        0.16626018  H
       atom_frac         1.00863529        0.35693939        0.18863217  H
       atom_frac         0.52810861        0.09790825        0.32360411  H
       atom_frac         0.12991007        0.02091524        0.67407761  C
       atom_frac         0.43387393        0.25762121        0.83953188  C
       atom_frac         0.92330178        0.46792340        0.83873929  C
       atom_frac         0.60649375        0.23922138        0.66502108  C
       atom_frac         0.14695437        0.08856313        0.61377087  C
       atom_frac         0.39275747        0.32688047        0.89076947  C
       atom_frac         0.88977005        0.40355219        0.89551096  C
       atom_frac         0.64971241        0.16915236        0.61406546  C
       atom_frac         0.06218543        0.05375631        0.51985984  C
       atom_frac         0.46400830        0.29892677        0.98310934  C
       atom_frac         0.96162912        0.43949916        0.98827168  C
       atom_frac         0.56909471        0.19661869        0.51822277  C
       atom_frac         0.09351645        0.12647980        0.96661232  C
       atom_frac         0.43183436        0.37202189        0.53796449  C
       atom_frac         0.94674233        0.37177946        0.54047692  C
       atom_frac         0.59875421        0.12503704        0.96375760  C
       atom_frac         0.03902849        0.08695370        0.88010812  C
       atom_frac         0.49936877        0.34066835        0.62853122  C
       atom_frac         1.02091143        0.39691582        0.63273544  C
       atom_frac         0.53789333        0.15698737        0.87475640  C
       atom_frac         0.18762399        0.05313712        0.74443548  H
       atom_frac         0.38375420        0.27968434        0.76718202  H
       atom_frac         0.87103024        0.44048148        0.76965798  H
       atom_frac         0.66920994        0.22105976        0.73802465  H
       atom_frac         0.22145029        0.16963805        0.63710799  H
       atom_frac         0.32204932        0.40963721        0.86309906  H
       atom_frac         0.80477466        0.32395875        0.86935559  H
       atom_frac         0.72971116        0.08738973        0.64091241  H
       atom_frac         0.14755322        0.21216919        0.98597809  H
       atom_frac         0.33580764        0.44513636        0.50230019  H
       atom_frac         0.86113483        0.29287710        0.50959199  H
       atom_frac         0.68956861        0.05070093        0.99640096  H
       atom_frac         0.06246958        0.14632323        0.83634049  H
       atom_frac         0.47885534        0.39443434        0.67440306  H
       atom_frac         0.99409810        0.34044444        0.67297711  H
       atom_frac         0.58349287        0.10642593        0.83772226  H
       atom_frac         0.11850475        0.51683502        0.17299577  C
       atom_frac         0.40194588        0.77268771        0.33532598  C
       atom_frac         0.90200428        0.97904040        0.33539682  C
       atom_frac         0.59423827        0.73616077        0.16491909  C
       atom_frac         0.12922994        0.58782997        0.11245896  C
       atom_frac         0.39018559        0.84306397        0.39487240  C
       atom_frac         0.88205614        0.91211279        0.39476368  C
       atom_frac         0.63409547        0.66476599        0.11420756  C
       atom_frac         0.06066270        0.54539478        0.02088179  C
       atom_frac         0.46748652        0.81168855        0.48920357  C
       atom_frac         0.95809014        0.94765993        0.48653262  C
       atom_frac         0.57724901        0.69839310        0.02324061  C
       atom_frac         0.08837331        0.63578283        0.46903398  C
       atom_frac         0.43737225        0.87503367        0.03989742  C
       atom_frac         0.94747844        0.87658249        0.04922287  C
       atom_frac         0.56442730        0.63221296        0.45476742  C
       atom_frac         0.01116410        0.60976094        0.37679581  C
       atom_frac         0.49399918        0.84112458        0.12801120  C
       atom_frac         0.98504973        0.91580808        0.13290349  C
       atom_frac         0.49529033        0.66553283        0.36518055  C
       atom_frac         0.17725930        0.54175505        0.24426616  H
       atom_frac         0.34110247        0.79869781        0.26504035  H
       atom_frac         0.82986701        0.95579966        0.25996920  H
       atom_frac         0.64088986        0.70960774        0.23626244  H
       atom_frac         0.20265837        0.66814057        0.13177353  H
       atom_frac         0.33033021        0.92834175        0.37135291  H
       atom_frac         0.80138953        0.83344444        0.36910210  H
       atom_frac         0.72177380        0.58935774        0.14394360  H
       atom_frac         0.15384002        0.71891414        0.49827553  H
       atom_frac         0.35139045        0.95313973        0.00751709  H
       atom_frac         0.88188204        0.79481566        0.02127913  H
       atom_frac         0.62352997        0.54522727        0.47527227  H
       atom_frac         0.02310933        0.67105387        0.33288719  H
       atom_frac         0.46444622        0.89406566        0.16939476  H
       atom_frac         0.95126556        0.86511785        0.17515048  H
       atom_frac         0.50477011        0.60648148        0.31925540  H
       atom_frac         0.11191448        0.50424832        0.66891668  C
       atom_frac         0.45068654        0.76070455        0.84165713  C
       atom_frac         0.95273651        0.97843434        0.84620925  C
       atom_frac         0.63784049        0.74337542        0.67619024  C
       atom_frac         0.14019307        0.57956229        0.61902579  C
       atom_frac         0.41423583        0.83098653        0.89180754  C
       atom_frac         0.91881421        0.91018519        0.89876547  C
       atom_frac         0.64366670        0.67402104        0.61515474  C
       atom_frac         0.06819503        0.55356650        0.52309332  C
       atom_frac         0.47516612        0.80587121        0.98562037  C
       atom_frac         0.98072431        0.94580808        0.99289394  C
       atom_frac         0.56132981        0.70325589        0.52110273  C
       atom_frac         0.08883162        0.60996633        0.95920549  C
       atom_frac         0.45442662        0.88272727        0.55284759  C
       atom_frac         0.95188424        0.87764310        0.55222334  C
       atom_frac         0.61270898        0.62544949        0.96816242  C
       atom_frac         0.01831676        0.57442929        0.87059708  C
       atom_frac         0.54277553        0.84999158        0.64429108  C
       atom_frac         1.03182562        0.91404882        0.64241412  C
       atom_frac         0.54977015        0.65447391        0.87852295  C
       atom_frac         0.14767352        0.53131061        0.73775811  H
       atom_frac         0.39422360        0.78110101        0.76752571  H
       atom_frac         0.90183987        0.94976431        0.77509386  H
       atom_frac         0.70775648        0.72058923        0.74970303  H
       atom_frac         0.21607594        0.65905808        0.64886844  H
       atom_frac         0.32517580        0.90862795        0.86155598  H
       atom_frac         0.84819822        0.82752694        0.87429348  H
       atom_frac         0.70518657        0.59103535        0.63742433  H
       atom_frac         0.17098980        0.68712963        0.98780875  H
       atom_frac         0.37702167        0.96442761        0.53027500  H
       atom_frac         0.87917989        0.79515909        0.52808451  H
       atom_frac         0.69164317        0.54759007        1.00528775  H
       atom_frac         0.04660288        0.62557492        0.82701181  H
       atom_frac         0.52598652        0.90244108        0.69228607  H
       atom_frac         1.02925729        0.86090909        0.69323647  H
       atom_frac         0.57757801        0.59877441        0.83650181  H

 
  Finished reading input file 'geometry.in'.
 

 
  Consistency checks for stacksize environment parameter are next.
 
  | Maximum stacksize for task 0: unlimited
  | Maximum stacksize for task 1: unlimited
  | Maximum stacksize for task 2: unlimited
  | Maximum stacksize for task 3: unlimited
  | Maximum stacksize for task 4: unlimited
  | Maximum stacksize for task 5: unlimited
  | Maximum stacksize for task 6: unlimited
  | Maximum stacksize for task 7: unlimited
  | Maximum stacksize for task 8: unlimited
  | Maximum stacksize for task 9: unlimited
  | Maximum stacksize for task 10: unlimited
  | Maximum stacksize for task 11: unlimited
  | Maximum stacksize for task 12: unlimited
  | Maximum stacksize for task 13: unlimited
  | Maximum stacksize for task 14: unlimited
  | Maximum stacksize for task 15: unlimited
  | Maximum stacksize for task 16: unlimited
  | Maximum stacksize for task 17: unlimited
  | Current stacksize for task 0: unlimited
  | Current stacksize for task 1: unlimited
  | Current stacksize for task 2: unlimited
  | Current stacksize for task 3: unlimited
  | Current stacksize for task 4: unlimited
  | Current stacksize for task 5: unlimited
  | Current stacksize for task 6: unlimited
  | Current stacksize for task 7: unlimited
  | Current stacksize for task 8: unlimited
  | Current stacksize for task 9: unlimited
  | Current stacksize for task 10: unlimited
  | Current stacksize for task 11: unlimited
  | Current stacksize for task 12: unlimited
  | Current stacksize for task 13: unlimited
  | Current stacksize for task 14: unlimited
  | Current stacksize for task 15: unlimited
  | Current stacksize for task 16: unlimited
  | Current stacksize for task 17: unlimited
 
  Consistency checks for the contents of control.in are next.
 
  MPI_IN_PLACE appears to work with this MPI implementation.
  | Keeping use_mpi_in_place .true. (see manual).
  Explicit treatment of the Coulomb operator is needed, but the RI method is not specified.
  Coulomb operator: Defaulting to 'LVL fast' resolution of identity - RI_type = LVL_fast
  Species H: Using default value for prodbas_acc =   1.000000E-06.
  Species H: Using default value max_l_prodbas =     6.
  Species C: Using default value for prodbas_acc =   1.000000E-06.
  Species C: Using default value max_l_prodbas =     6.
  Target number of points in a grid batch is not set.  Since GPU acceleration is enabled, defaulting to  200
  Method for grid partitioning is not set. Defaulting to parallel hash+maxmin partitioning.
  Batch size limit is not set. Defaulting to    200
  By default, will store active basis functions for each batch.
  If in need of memory, prune_basis_once .false. can be used to disable this option.
  communication_type for Hartree potential was not specified.
  Defaulting to calc_hartree .
  Defaulting to Pulay charge density mixer.
  Pulay mixer: Number of relevant iterations not set.
  Defaulting to    8 iterations.
  Pulay mixer: Number of initial linear mixing iterations not set.
  Defaulting to    0 iterations.
  Work space size for distributed Hartree potential not set.
  Defaulting to   0.200000E+03 MB.
  Algorithm-dependent basis array size parameters:
  | n_max_pulay                         :        8
  Maximum number of self-consistency iterations not provided.
  Presetting  1000 iterations.
  Presetting      1001 iterations before the initial mixing cycle
  is restarted anyway using the sc_init_iter criterion / keyword.
  Presetting a factor      1.000 between actual scf density residual
  and density convergence criterion sc_accuracy_rho below which sc_init_iter
  takes no effect.
 * No s.c.f. convergence criteria (sc_accuracy_*) were provided in control.in.
 * The run will proceed with a reasonable default guess, but please check whether.
 * the s.c.f. cycles seem to take too much or too little time.
  Geometry relaxation not requested: no relaxation will be performed.
 * Notice: The s.c.f. convergence criterion sc_accuracy_rho was not provided.
 * We used to stop in this case, and ask the user to provide reasonable
 * scf convergence criteria. However, this led some users to employ criteria
 * that led to extremely long run times, e.g., for simple relaxation.
 * We now preset a default value for sc_accuracy_rho if it is not set.
 * You may still wish to check if this setting is too tight or too loose for your needs.
 * Based on n_atoms and forces and force-correction status, FHI-aims chose sc_accuracy_rho =  0.391918E-04 .
  No accuracy limit for integral partition fn. given. Defaulting to  0.1000E-14.
  No threshold value for u(r) in integrations given. Defaulting to  0.1000E-05.
  No occupation type (smearing scheme) given. Defaulting to Gaussian broadening, width =  0.1000E-01 eV.
  The width will be adjusted in iteration number     2 of the first full s.c.f. cycle only.
  S.C.F. convergence parameters will be adjusted in iteration number     2 of the first full s.c.f. cycle only.
  No accuracy for occupation numbers given. Defaulting to  0.1000E-12.
  No threshold value for occupation numbers given. Defaulting to  0.0000E+00.
  No accuracy for fermi level given. Defaulting to  0.1000E-19.
  Maximum # of iterations to find E_F not set. Defaulting to  200.
  Preferred method for the eigenvalue solver ('KS_method') not specified in 'control.in'.
  Calling BLACS routine to test compilation state
  Since ScaLAPACK support is enabled, defaulting to ELPA (via ELSI).
  Will not use alltoall communication since running on < 1024 CPUs.
  Threshold for basis singularities not set.
  Default threshold for basis singularities:  0.1000E-04
  partition_type (choice of integration weights) for integrals was not specified.
  | Using a version of the partition function of Stratmann and coworkers ('stratmann_sparse').
  | At each grid point, the set of atoms used to build the partition table is smoothly restricted to
  | only those atoms whose free-atom density would be non-zero at that grid point.
  Partitioning for Hartree potential was not defined. Using partition_type for integrals.
  | Adjusted default value of keyword multip_moments_threshold to:       0.10000000E-11
  | This value may affect high angular momentum components of the Hartree potential in periodic systems.
  Angular momentum expansion for Kerker preconditioner not set explicitly.
  | Using default value of   0
  No explicit requirement for turning off preconditioner.
  | By default, it will be turned off when the charge convergence reaches
  | sc_accuracy_rho  =   0.391918E-04
  No special mixing parameter while Kerker preconditioner is on.
  Using default: charge_mix_param =     0.7500.
  Threshold for auxiliary basis singularities not set.
  Default threshold for auxiliary basis singularities:  0.1000E-04
  No q(lm)/r^(l+1) cutoff set for long-range Hartree potential.
  | Using default value of  0.100000E-09 .
  | Verify using the multipole_threshold keyword.
  Defaulting to new monopole extrapolation.
  Density update method: automatic selection selected.
  Using density matrix based charge density update.
  Using density matrix based charge density update.
  Using packed matrix style: index .
  Defaulting to use time-reversal symmetry for k-point grid.
  Charge integration errors on the 3D integration grid will be compensated
  by explicit normalization and distribution of residual charges.
  Use the "compensate_multipole_errors" flag to change this behaviour.
  Default to 1D ("use_logsbt") integrations for auxiliary 2-center integrals.
  Default onset of logarithmic r-grid for SBT is -38.000000000000
  Default onset of logarithmic k-grid for SBT is -25.000000000000
  Default range of logarithmic r- and k-grid for SBT is  45.000000000000
  Default number of logarithmic r- and k-grid for SBT is   4096
  Default of use_2d_corr is to use the efficient 2D distribution where possible
 
  Consistency checks for the contents of geometry.in are next.
 

  Range separation radius for Ewald summation (hartree_convergence_parameter):      2.91768261 bohr.
  Number of empty states per atom not set in control.in .
  | Since you are using a method that relies on the unoccupied spectrum
  | (MP2,GW,RPA et al.), will use the full Hamiltonian size (see below)
  | as the max. possible number of states (occupied plus empty).

  Structure-dependent array size parameters: 
  | Maximum number of distinct radial functions  :        9
  | Maximum number of basis functions            :     1440
  | Number of Kohn-Sham states (occupied + empty):     1440
------------------------------------------------------------
CUDA runtime version: 11060
CUDA driver version: 11060
  Initializing GPUs...

  Number of GPUs available to MPI task         0 :   1
  Number of GPUs available to MPI task         1 :   1
  Number of GPUs available to MPI task         2 :   1
  Number of GPUs available to MPI task         3 :   1
  Number of GPUs available to MPI task         4 :   1
  Number of GPUs available to MPI task         5 :   1
  Number of GPUs available to MPI task         6 :   1
  Number of GPUs available to MPI task         7 :   1
  Number of GPUs available to MPI task         8 :   1
  Number of GPUs available to MPI task         9 :   1
  Number of GPUs available to MPI task        10 :   1
  Number of GPUs available to MPI task        11 :   1
  Number of GPUs available to MPI task        12 :   1
  Number of GPUs available to MPI task        13 :   1
  Number of GPUs available to MPI task        14 :   1
  Number of GPUs available to MPI task        15 :   1
  Number of GPUs available to MPI task        16 :   1
  Number of GPUs available to MPI task        17 :   1

  | MPI task         0, GPU activated = T, Device Name = NVIDIA A100-SXM4-80GB
  | MPI task         1, GPU activated = T, Device Name = NVIDIA A100-SXM4-80GB
  | MPI task         2, GPU activated = T, Device Name = NVIDIA A100-SXM4-80GB
  | MPI task         3, GPU activated = T, Device Name = NVIDIA A100-SXM4-80GB
  | MPI task         4, GPU activated = T, Device Name = NVIDIA A100-SXM4-80GB
  | MPI task         5, GPU activated = T, Device Name = NVIDIA A100-SXM4-80GB
  | MPI task         6, GPU activated = T, Device Name = NVIDIA A100-SXM4-80GB
  | MPI task         7, GPU activated = T, Device Name = NVIDIA A100-SXM4-80GB
  | MPI task         8, GPU activated = T, Device Name = NVIDIA A100-SXM4-80GB
  | MPI task         9, GPU activated = T, Device Name = NVIDIA A100-SXM4-80GB
  | MPI task        10, GPU activated = T, Device Name = NVIDIA A100-SXM4-80GB
  | MPI task        11, GPU activated = T, Device Name = NVIDIA A100-SXM4-80GB
  | MPI task        12, GPU activated = T, Device Name = NVIDIA A100-SXM4-80GB
  | MPI task        13, GPU activated = T, Device Name = NVIDIA A100-SXM4-80GB
  | MPI task        14, GPU activated = T, Device Name = NVIDIA A100-SXM4-80GB
  | MPI task        15, GPU activated = T, Device Name = NVIDIA A100-SXM4-80GB
  | MPI task        16, GPU activated = T, Device Name = NVIDIA A100-SXM4-80GB
  | MPI task        17, GPU activated = T, Device Name = NVIDIA A100-SXM4-80GB

------------------------------------------------------------
          Preparing all fixed parts of the calculation.
------------------------------------------------------------
  Determining machine precision:
    2.225073858507201E-308
  Setting up grids for atomic and cluster calculations.

  Creating wave function, potential, and density for free atoms.
  Runtime choices for atomic solver:
  | atomic solver xc        : PW-LDA
  | compute density gradient: 0
  | compute kinetic density : F

  Species: H

  List of occupied orbitals and eigenvalues:
    n    l              occ      energy [Ha]    energy [eV]
    1    0           1.0000        -0.232375        -6.3233


  Species: C

  List of occupied orbitals and eigenvalues:
    n    l              occ      energy [Ha]    energy [eV]
    1    0           2.0000        -9.944615      -270.6068
    2    0           2.0000        -0.498807       -13.5732
    2    1           2.0000        -0.196968        -5.3598


  Adding cutoff potential to free-atom effective potential.
  Creating fixed part of basis set: Ionic, confined, hydrogenic.
 
  H                    hydrogenic:
 
  List of hydrogenic basis orbitals: 
    n    l      effective z      eigenvalue [eV]  inner max. [A]     outer max. [A]     outer radius [A]   
    2    0         2.100000       -14.9728           0.193243           1.317208           4.583499
    2    1         3.500000       -41.6669           0.602369           0.602369           3.723403
 
 
  C                    hydrogenic:
 
  List of hydrogenic basis orbitals: 
    n    l      effective z      eigenvalue [eV]  inner max. [A]     outer max. [A]     outer radius [A]   
    2    1         1.700000        -9.7616           1.230570           1.230570           4.607917
    3    2         6.000000       -54.4224           0.792453           0.792453           3.883070
    2    0         4.900000       -81.6679           0.082559           0.562749           3.078220
 
  Creating atomic-like basis functions for current effective potential.

  Species H                   :

  List of atomic basis orbitals and eigenvalues:
    n    l      energy [Ha]    energy [eV]    outer radius [A]
    1    0        -0.232375        -6.3233       4.527807


  Species C                   :

  List of atomic basis orbitals and eigenvalues:
    n    l      energy [Ha]    energy [eV]    outer radius [A]
    1    0        -9.944615      -270.6068       1.934409
    2    0        -0.498807       -13.5732       4.496620
    2    1        -0.196968        -5.3598       4.551928

  Assembling full basis from fixed parts.
  | Species H :   atomic orbital   1 s accepted.
  | Species H :    hydro orbital   2 s accepted.
  | Species H :    hydro orbital   2 p accepted.
  | Species C :   atomic orbital   1 s accepted.
  | Species C :    hydro orbital   2 s accepted.
  | Species C :   atomic orbital   2 s accepted.
  | Species C :   atomic orbital   2 p accepted.
  | Species C :    hydro orbital   2 p accepted.
  | Species C :    hydro orbital   3 d accepted.
 
  Basis size parameters after reduction:
  | Total number of radial functions:        9
  | Total number of basis functions :     1440
 
  Per-task memory consumption for arrays in subroutine allocate_ext:
  |           2.242384MB.
  Testing on-site integration grid accuracy.
  |  Species  Function  <phi|h_atom|phi> (log., in eV)  <phi|h_atom|phi> (rad., in eV)
           1        1                 -6.3245358373                 -6.3232436907
           1        2                 14.1326137532                 14.1384481100
           1        3                 25.3627025200                 25.3628451197
           2        4               -270.6067544938               -270.6067222788
           2        5                -10.5634280949                -10.5635685736
           2        6                 16.2089822398                 16.2052121796
           2        7                 -5.3613872565                 -5.3627872378
           2        8                  8.5292058327                  8.5051734780
           2        9                 27.4884461005                 27.4884542459

  Preparing densities etc. for the partition functions (integrals / Hartree potential).

  Preparations completed.
  max(cpu_time)          :      0.077 s.
  Wall clock time (cpu1) :      0.070 s.
------------------------------------------------------------

  Initializing index lists of integration centers etc. from given atomic structure:
  Mapping all atomic coordinates to central unit cell.

  Initializing the k-points
  Using symmetry for reducing the k-points
  | k-points reduced from:        2 to        2
  | Number of k-points                             :         2
  | Consuming          0 KiB for k_phase_exx.
  The eigenvectors in the calculations are REAL.
  | Number of basis functions in the Hamiltonian integrals :      7971
  | Number of basis functions in a single unit cell        :      1440
  | Number of centers in hartree potential         :      3319
  | Number of centers in hartree multipole         :      2542
  | Number of centers in electron density summation:      1983
  | Number of centers in basis integrals           :      2108
  | Number of centers in integrals                 :       965
  | Number of centers in hamiltonian               :      1992
  | Consuming          1 KiB for k_phase.
  | Number of super-cells (origin) [n_cells]                     :         175
  | Number of super-cells (after PM_index) [n_cells]             :          38
  | Number of super-cells in hamiltonian [n_cells_in_hamiltonian]:          38
  | Size of matrix packed + index [n_hamiltonian_matrix_size] :     1930857
  | Size of matrix packed + index (no_symmetry):     3858897

------------------------------------------------------------
          Begin self-consistency loop: Initialization.

          Date     :  20230120, Time     :  164515.479
------------------------------------------------------------
  | Estimated reciprocal-space cutoff momentum G_max:         3.24344278 bohr^-1 .
  | Reciprocal lattice points for long-range Hartree potential:    5310
  Using simple linear distribution as default method for k-point parallelism.
  * Using 18 tasks for Scalapack Eigenvalue solver.
  Detailed listing of tasks and assigned k-points:
   Task     0 k-point     1 on adag006
   Task     1 k-point     1 on adag006
   Task     2 k-point     1 on adag006
   Task     3 k-point     1 on adag006
   Task     4 k-point     1 on adag006
   Task     5 k-point     1 on adag006
   Task     6 k-point     1 on adag006
   Task     7 k-point     1 on adag006
   Task     8 k-point     1 on adag006
   Task     9 k-point     2 on adag006
   Task    10 k-point     2 on adag006
   Task    11 k-point     2 on adag006
   Task    12 k-point     2 on adag006
   Task    13 k-point     2 on adag006
   Task    14 k-point     2 on adag006
   Task    15 k-point     2 on adag006
   Task    16 k-point     2 on adag006
   Task    17 k-point     2 on adag006
  K-point:     1 Tasks:     9 split into      3 X      3 BLACS grid
  Calculating block size based on n_basis =         1440  max_nprow =            3  max_npcol =            3
  ScaLAPACK block size set to:           16
  Allocating        1.758 MB for ovlp
  Allocating        1.758 MB for ham
  Allocating        1.758 MB for eigenvec
  Required Scalapack workspace - INTEGER:            1  REAL:             1
  Partitioning the integration grid into batches with parallel hashing+maxmin method.
  | Number of batches:     5524
  | Maximal batch size:     200
  | Minimal batch size:      99
  | Average batch size:     138.277
  | Standard deviation of batch sizes:      32.489

  Integration load balanced across    18 MPI tasks.
  Work distribution over tasks is as follows:
  Task     0 has      42445 integration points.
  Task     1 has      42435 integration points.
  Task     2 has      42428 integration points.
  Task     3 has      42389 integration points.
  Task     4 has      42448 integration points.
  Task     5 has      42458 integration points.
  Task     6 has      42457 integration points.
  Task     7 has      42420 integration points.
  Task     8 has      42443 integration points.
  Task     9 has      42438 integration points.
  Task    10 has      42409 integration points.
  Task    11 has      42434 integration points.
  Task    12 has      42427 integration points.
  Task    13 has      42446 integration points.
  Task    14 has      42494 integration points.
  Task    15 has      42406 integration points.
  Task    16 has      42441 integration points.
  Task    17 has      42422 integration points.
  Initializing partition tables, free-atom densities, potentials, etc. across the integration grid (initialize_grid_storage).
  | initialize_grid_storage: Actual outermost partition radius vs. multipole_radius_free
  | (-- VB: in principle, multipole_radius_free should be larger, hence this output)
  | Species        1: Confinement radius =              4.999999999999999 AA, multipole_radius_free =              5.054417573612229 AA.
  | Species        1: outer_partition_radius set to              5.054417573612229 AA .
  | Species        2: Confinement radius =              4.999999999999999 AA, multipole_radius_free =              5.019602836301480 AA.
  | Species        2: outer_partition_radius set to              5.019602836301480 AA .
  | The sparse table of interatomic distances needs       7563.08 kbyte instead of     35549.31 kbyte of memory.
  | Net number of integration points:   763840
  | of which are non-zero points    :   605498
  | Numerical average free-atom electrostatic potential    :     -8.61468138 eV
  Renormalizing the initial density to the exact electron count on the 3D integration grid.
  | Initial density: Formal number of electrons (from input files) :     544.0000000000
  | Integrated number of electrons on 3D grid     :     543.9965450819
  | Charge integration error                      :      -0.0034549181
  | Normalization factor for density and gradient :       1.0000063510
  Renormalizing the free-atom superposition density to the exact electron count on the 3D integration grid.
  | Formal number of electrons (from input files) :     544.0000000000
  | Integrated number of electrons on 3D grid     :     543.9965450819
  | Charge integration error                      :      -0.0034549181
  | Normalization factor for density and gradient :       1.0000063510
  Obtaining max. number of non-zero basis functions in each batch (get_n_compute_maxes).
  | Maximal number of non-zero basis functions:      548 in task     0
  | Maximal number of non-zero basis functions:      552 in task     1
  | Maximal number of non-zero basis functions:      545 in task     2
  | Maximal number of non-zero basis functions:      550 in task     3
  | Maximal number of non-zero basis functions:      538 in task     4
  | Maximal number of non-zero basis functions:      535 in task     5
  | Maximal number of non-zero basis functions:      539 in task     6
  | Maximal number of non-zero basis functions:      555 in task     7
  | Maximal number of non-zero basis functions:      531 in task     8
  | Maximal number of non-zero basis functions:      543 in task     9
  | Maximal number of non-zero basis functions:      541 in task    10
  | Maximal number of non-zero basis functions:      538 in task    11
  | Maximal number of non-zero basis functions:      538 in task    12
  | Maximal number of non-zero basis functions:      544 in task    13
  | Maximal number of non-zero basis functions:      539 in task    14
  | Maximal number of non-zero basis functions:      543 in task    15
  | Maximal number of non-zero basis functions:      549 in task    16
  | Maximal number of non-zero basis functions:      548 in task    17
  Integrating Hamiltonian matrix: batch-based integration.
  GPU acceleration will be used when integrating the Hamiltonian matrix.
  Reporting GPU memory usage by myid 0.  Note that it is likely not the only MPI task binding to its GPU!
  Allocating        2.402 MB on GPU for hamiltonian_shell
  Allocating        0.877 MB on GPU for wave
  Allocating        0.002 MB on GPU for partition
  Allocating        0.877 MB on GPU for h_times_psi
  Time summed over all CPUs for integration: real work       25.609 s, elapsed       26.306 s
  Deallocating memory used on GPU for Hamiltonian integration.
  Integrating overlap matrix.
  Time summed over all CPUs for integration: real work       20.402 s, elapsed       20.983 s
  Deallocating overlap matrix.

  Updating Kohn-Sham eigenvalues and eigenvectors using ELSI and the ELPA eigensolver.
  Singularity check in k-point 1 (analysis for other k-points may follow below):
  Overlap matrix is not singular
  | Lowest and highest eigenvalues :  0.7649E-03,  0.8252E+01
  Finished singularity check of overlap matrix
  | Time :     0.103 s
  Starting ELPA eigensolver
  Finished Cholesky decomposition
  | Time :     0.016 s
  Finished transformation to standard eigenproblem
  | Time :     0.023 s
  Finished solving standard eigenproblem
  | Time :     0.227 s
  Finished back-transformation of eigenvectors
  | Time :     0.022 s

  Obtaining occupation numbers and electronic chemical potential using ELSI.
  | Note that, for insulating systems, the printed 'chemical potential' value is not uniquely defined.
  | It can be anywhere in the energy gap, as long as it correctly separates occupied and unoccupied states.
  | In systems with a gap, the physically relevant chemical potential is the VBM or HOMO.

  | Chemical potential (Fermi level):    -8.54589124 eV
  Writing Kohn-Sham eigenvalues.
  K-point:       1 at    0.000000    0.000000    0.000000 (in units of recip. lattice)

  State    Occupation    Eigenvalue [Ha]    Eigenvalue [eV]
      1       2.00000         -10.071170         -274.05048
      2       2.00000         -10.071092         -274.04834
      3       2.00000         -10.070009         -274.01889
      4       2.00000         -10.069815         -274.01361
      5       2.00000         -10.068760         -273.98491
      6       2.00000         -10.068479         -273.97724
      7       2.00000         -10.068400         -273.97510
      8       2.00000         -10.067827         -273.95952
      9       2.00000         -10.067545         -273.95184
     10       2.00000         -10.067319         -273.94568
     11       2.00000         -10.067215         -273.94286
     12       2.00000         -10.066921         -273.93485
     13       2.00000         -10.066793         -273.93139
     14       2.00000         -10.066711         -273.92914
     15       2.00000         -10.066683         -273.92837
     16       2.00000         -10.066680         -273.92831
     17       2.00000         -10.066649         -273.92745
     18       2.00000         -10.066554         -273.92488
     19       2.00000         -10.066346         -273.91920
     20       2.00000         -10.066196         -273.91513
     21       2.00000         -10.066066         -273.91159
     22       2.00000         -10.065843         -273.90553
     23       2.00000         -10.065734         -273.90257
     24       2.00000         -10.065510         -273.89648
     25       2.00000         -10.065006         -273.88275
     26       2.00000         -10.065004         -273.88270
     27       2.00000         -10.064990         -273.88232
     28       2.00000         -10.064789         -273.87684
     29       2.00000         -10.064772         -273.87637
     30       2.00000         -10.064740         -273.87551
     31       2.00000         -10.064510         -273.86925
     32       2.00000         -10.064436         -273.86723
     33       2.00000         -10.064248         -273.86212
     34       2.00000         -10.064156         -273.85962
     35       2.00000         -10.064096         -273.85800
     36       2.00000         -10.064067         -273.85721
     37       2.00000         -10.064023         -273.85601
     38       2.00000         -10.063786         -273.84954
     39       2.00000         -10.063687         -273.84685
     40       2.00000         -10.063531         -273.84261
     41       2.00000         -10.063521         -273.84235
     42       2.00000         -10.063229         -273.83439
     43       2.00000         -10.063226         -273.83432
     44       2.00000         -10.063120         -273.83144
     45       2.00000         -10.063096         -273.83078
     46       2.00000         -10.062761         -273.82167
     47       2.00000         -10.062697         -273.81991
     48       2.00000         -10.062672         -273.81923
     49       2.00000         -10.062619         -273.81778
     50       2.00000         -10.062583         -273.81682
     51       2.00000         -10.062291         -273.80886
     52       2.00000         -10.062074         -273.80296
     53       2.00000         -10.061859         -273.79711
     54       2.00000         -10.061774         -273.79480
     55       2.00000         -10.061485         -273.78693
     56       2.00000         -10.061362         -273.78360
     57       2.00000         -10.061145         -273.77768
     58       2.00000         -10.061123         -273.77709
     59       2.00000         -10.060879         -273.77045
     60       2.00000         -10.060773         -273.76756
     61       2.00000         -10.060427         -273.75815
     62       2.00000         -10.059946         -273.74506
     63       2.00000         -10.059838         -273.74212
     64       2.00000         -10.059004         -273.71942
     65       2.00000         -10.058755         -273.71265
     66       2.00000         -10.058195         -273.69742
     67       2.00000         -10.057751         -273.68532
     68       2.00000         -10.057003         -273.66498
     69       2.00000         -10.056858         -273.66103
     70       2.00000         -10.056404         -273.64869
     71       2.00000         -10.056145         -273.64162
     72       2.00000         -10.055701         -273.62955
[...]
  |    H      0     4.527807 A      4.583499 A        4.713786E-16 a.u.
  |    H      2     3.678162 A  1.011968E+04 A            0.556529 a.u.
  |    H      1     3.958095 A  1.721251E+06 A            0.841931 a.u.
  |    H      0     4.527807 A  3.866455E+12 A            0.581436 a.u.
  |    C      0     2.562483 A      2.562483 A        6.563029E-17 a.u.
  |    C      0     2.967371 A      2.967371 A        1.352164E-16 a.u.
  |    C      0     3.003870 A      3.003870 A        2.312640E-17 a.u.
  |    C      1     3.272245 A      3.272245 A       -3.835259E-17 a.u.
  |    C      0     3.312494 A      3.312494 A       -2.710381E-16 a.u.
  |    C      3     4.077671 A      4.077671 A       -1.683752E-15 a.u.
  |    C      3     4.077671 A      4.077671 A        1.412852E-15 a.u.
  |    C      1     4.496620 A      4.496620 A       -3.011059E-16 a.u.
  |    C      0     4.496620 A      4.551928 A        2.873903E-17 a.u.
  |    C      2     4.551928 A      4.551928 A       -4.610785E-16 a.u.
  |    C      2     4.551928 A      4.551928 A        7.440584E-16 a.u.
  |    C      2     4.551928 A      4.551928 A       -7.110458E-16 a.u.
  |    C      2     4.551928 A      4.551928 A       -1.935424E-16 a.u.
  |    C      0     4.551928 A      4.607917 A        2.067142E-16 a.u.
  |    C      0     4.551928 A      4.607917 A       -1.109786E-16 a.u.
  |    C      1     4.551928 A      4.607917 A       -9.951742E-17 a.u.
  |    C      1     4.551928 A      4.607917 A        1.937809E-16 a.u.
  |    C      1     4.607917 A      4.607917 A       -2.813308E-16 a.u.
  |    C      1     4.607917 A      4.607917 A       -7.330363E-17 a.u.
  |    C      2     4.607917 A      4.607917 A        1.318462E-15 a.u.
  |    C      2     4.607917 A      4.607917 A       -1.318397E-15 a.u.
  |    C      0     4.607917 A      4.664595 A        3.157826E-16 a.u.
  |    C      1     4.607917 A      4.664595 A        7.356967E-16 a.u.
  |    C      4     3.835889 A  2.962973E+02 A            4.379483 a.u.
  |    C      3     4.127827 A  1.725964E+03 A            9.005588 a.u.
  |    C      2     4.607917 A  2.608475E+04 A            9.531178 a.u.
  |    C      1     4.607917 A  2.736013E+06 A            2.127278 a.u.
  |    C      0     4.607917 A  4.399765E+12 A            0.661635 a.u.

  | Shrink_full_auxil_basis : there are       36  radial auxiliary wave functions
                            accepted and       7 rejected.
  | Shrink_full_auxil_basis : there are totally                8992 partial auxiliary wave functions.
 
  | Maximal number of product basis functions per thread :   512   512
 
  | Minimal total memory requirement for three-center overlap :      72.476 Gbs
  | Number of local auxiliary basis functions on task:      0   512
  | Number of local auxiliary basis functions on task:      1   512
  | Number of local auxiliary basis functions on task:      2   512
  | Number of local auxiliary basis functions on task:      3   512
  | Number of local auxiliary basis functions on task:      4   496
  | Number of local auxiliary basis functions on task:      5   496
  | Number of local auxiliary basis functions on task:      6   496
  | Number of local auxiliary basis functions on task:      7   496
  | Number of local auxiliary basis functions on task:      8   496
  | Number of local auxiliary basis functions on task:      9   496
  | Number of local auxiliary basis functions on task:     10   496
  | Number of local auxiliary basis functions on task:     11   496
  | Number of local auxiliary basis functions on task:     12   496
  | Number of local auxiliary basis functions on task:     13   496
  | Number of local auxiliary basis functions on task:     14   496
  | Number of local auxiliary basis functions on task:     15   496
  | Number of local auxiliary basis functions on task:     16   496
  | Number of local auxiliary basis functions on task:     17   496
  | 2D aux task distribution:      3 X      6
  | 2D block size (nb_aux_2d):     64
 
  Basis pair condensation :   1037520  -->     556364
 
 --------------------------------------------
  Constructing auxiliary basis (full product) ...
 
  Product basis:
  | charge radius: extent of product basis function
  | field radius: extent of its Coulomb potential
  | Species   l  charge radius    field radius  multipol momen
  |    H      1     3.910002 A      3.910002 A       -2.487223E-16 a.u.
  |    H      1     3.958095 A      3.958095 A       -2.441841E-16 a.u.
  |    H      0     4.527807 A      4.527807 A        1.268855E-16 a.u.
  |    H      0     4.527807 A      4.583499 A       -4.900954E-17 a.u.
  |    H      0     4.527807 A      4.583499 A        4.713786E-16 a.u.
  |    H      2     3.678162 A  1.011968E+04 A            0.556529 a.u.
  |    H      1     3.958095 A  1.721251E+06 A            0.841931 a.u.
  |    H      0     4.527807 A  3.866455E+12 A            0.581436 a.u.
  |    C      0     2.562483 A      2.562483 A        6.563029E-17 a.u.
  |    C      0     2.967371 A      2.967371 A        1.352164E-16 a.u.
  |    C      0     3.003870 A      3.003870 A        2.312640E-17 a.u.
  |    C      1     3.272245 A      3.272245 A       -3.835259E-17 a.u.
  |    C      0     3.312494 A      3.312494 A       -2.710381E-16 a.u.
  |    C      3     4.077671 A      4.077671 A       -1.683752E-15 a.u.
  |    C      3     4.077671 A      4.077671 A        1.412852E-15 a.u.
  |    C      1     4.496620 A      4.496620 A       -3.011059E-16 a.u.
  |    C      0     4.496620 A      4.551928 A        2.873903E-17 a.u.
  |    C      2     4.551928 A      4.551928 A       -4.610785E-16 a.u.
  |    C      2     4.551928 A      4.551928 A        7.440584E-16 a.u.
  |    C      2     4.551928 A      4.551928 A       -7.110458E-16 a.u.
  |    C      2     4.551928 A      4.551928 A       -1.935424E-16 a.u.
  |    C      0     4.551928 A      4.607917 A        2.067142E-16 a.u.
  |    C      0     4.551928 A      4.607917 A       -1.109786E-16 a.u.
  |    C      1     4.551928 A      4.607917 A       -9.951742E-17 a.u.
  |    C      1     4.551928 A      4.607917 A        1.937809E-16 a.u.
  |    C      1     4.607917 A      4.607917 A       -2.813308E-16 a.u.
  |    C      1     4.607917 A      4.607917 A       -7.330363E-17 a.u.
  |    C      2     4.607917 A      4.607917 A        1.318462E-15 a.u.
  |    C      2     4.607917 A      4.607917 A       -1.318397E-15 a.u.
  |    C      0     4.607917 A      4.664595 A        3.157826E-16 a.u.
  |    C      1     4.607917 A      4.664595 A        7.356967E-16 a.u.
  |    C      4     3.835889 A  2.962973E+02 A            4.379483 a.u.
  |    C      3     4.127827 A  1.725964E+03 A            9.005588 a.u.
  |    C      2     4.607917 A  2.608475E+04 A            9.531178 a.u.
  |    C      1     4.607917 A  2.736013E+06 A            2.127278 a.u.
  |    C      0     4.607917 A  4.399765E+12 A            0.661635 a.u.

  | Shrink_full_auxil_basis : there are       36  radial auxiliary wave functions
                            accepted and       7 rejected.
  | Shrink_full_auxil_basis : there are totally                8992 partial auxiliary wave functions.
 
  | Maximal number of product basis functions per thread :   512   512
 
  | Minimal total memory requirement for three-center overlap :      72.476 Gbs
  | Number of local auxiliary basis functions on task:      0   512
  | Number of local auxiliary basis functions on task:      1   512
  | Number of local auxiliary basis functions on task:      2   512
  | Number of local auxiliary basis functions on task:      3   512
  | Number of local auxiliary basis functions on task:      4   496
  | Number of local auxiliary basis functions on task:      5   496
  | Number of local auxiliary basis functions on task:      6   496
  | Number of local auxiliary basis functions on task:      7   496
  | Number of local auxiliary basis functions on task:      8   496
  | Number of local auxiliary basis functions on task:      9   496
  | Number of local auxiliary basis functions on task:     10   496
  | Number of local auxiliary basis functions on task:     11   496
  | Number of local auxiliary basis functions on task:     12   496
  | Number of local auxiliary basis functions on task:     13   496
  | Number of local auxiliary basis functions on task:     14   496
  | Number of local auxiliary basis functions on task:     15   496
  | Number of local auxiliary basis functions on task:     16   496
  | Number of local auxiliary basis functions on task:     17   496
  | 2D aux task distribution:      3 X      6
  | 2D block size (nb_aux_2d):     64
 
  Basis pair condensation :   1037520  -->     556364
  Allocating        0.069 MB for t_coeff
  Allocating        0.034 MB for basbas_idx
  Allocating        0.069 MB for wave
  Allocating        0.069 MB for total_wave
  Allocating        0.206 MB for wave_gradient
  Allocating        0.206 MB for total_wave_grad
 HERE1
 HERE2
  Deallocating        0.069 MB for t_coeff
  Deallocating        0.034 MB for basbas_idx
  Deallocating        0.069 MB for wave
  Deallocating        0.206 MB for wave_gradient
  Deallocating        0.206 MB for total_wave_grad
dP_dE (Bohr^3) at every cycle:--->
 (989.052281628972,0.000000000000000E+000) (-14.7059773352117,0.000000000000000E+000) (-446.137474628978,0.000000000000000E+000)
 (-14.7577813655888,0.000000000000000E+000) (1355.95599213368,0.000000000000000E+000) (5.33059223661676,0.000000000000000E+000)
 (-446.284146098114,0.000000000000000E+000) (5.35255861101418,0.000000000000000E+000) (1715.23263657035,0.000000000000000E+000)
DFPT polarizability (Bohr^3)        xx        yy        zz        xy        xz        yz
  | Polarizability:--->                       989.052281629                 1355.955992134                 1715.232636570                  -14.705977335                 -446.137474629                    5.330592237

DFPT for dielectric_constant:--->  # PARSE DFPT_dielectric_tensor
               2.342122849256485            -0.019955697559009            -0.605399036765740
              -0.020025994523228             2.840003358196139             0.007233499961245
              -0.605598066820791             0.007263307862750             3.327534101170085

                                               :  max(cpu_time)    wall_clock(cpu1)
  | Time for  dielectric calculation            :        0.000 s           0.000 s
===========================================================================

------------------------------------------------------------------------------
  Final output of selected total energy values:

  The following output summarizes some interesting total energy values
  at the end of a run (AFTER all relaxation, molecular dynamics, etc.).

  | Total energy of the DFT / Hartree-Fock s.c.f. calculation      :         -83267.485479791 eV
  | Final zero-broadening corrected energy (caution - metals only) :         -83267.485479791 eV
  | For reference only, the value of 1 Hartree used in FHI-aims is :             27.211384500 eV
  | For reference only, the overall average (free atom contribution
  | + realspace contribution) of the electrostatic potential after
  | s.c.f. convergence is                                          :             -7.699729442 eV

  Before relying on these values, please be sure to understand exactly which
  total energy value is referred to by a given number. Different objects may
  all carry the same name 'total energy'. Definitions:

  Total energy of the DFT / Hartree-Fock s.c.f. calculation:
  | Note that this energy does not include ANY quantities calculated after the
  | s.c.f. cycle, in particular not ANY RPA, MP2, etc. many-body perturbation terms.

  Final zero-broadening corrected energy:
  | For metallic systems only, a broadening of the occupation numbers at the Fermi
  | level can be extrapolated back to zero broadening by an electron-gas inspired
  | formula. For all systems that are not real metals, this value can be
  | meaningless and should be avoided.

------------------------------------------------------------------------------
  Methods described in the following list of references were used in this FHI-aims run.
  If you publish the results, please make sure to cite these reference if they apply.
  FHI-aims is an academic code, and for our developers (often, Ph.D. students
  and postdocs), scientific credit in the community is essential.
  Thank you for helping us!

  For any use of FHI-aims, please cite:

    Volker Blum, Ralf Gehrke, Felix Hanke, Paula Havu, Ville Havu,
    Xinguo Ren, Karsten Reuter, and Matthias Scheffler
    'Ab initio molecular simulations with numeric atom-centered orbitals'
    Computer Physics Communications 180, 2175-2196 (2009)
    http://doi.org/10.1016/j.cpc.2009.06.022


  For Hartree-Fock, hybrid functionals, or many-body perturbation theory used in your run, please cite:

    Xinguo Ren, Patrick Rinke, Volker Blum, Juergen Wieferink, Alex Tkatchenko,
    Andrea Sanfilippo, Karsten Reuter, and Matthias Scheffler,
    'Resolution-of-identity approach to Hartree-Fock, hybrid density functionals,
    RPA, MP2, and GW with numeric atom-centered orbital basis functions'
    New Journal of Physics 14, 053020 (2012).
    http://doi.org/10.1088/1367-2630/14/5/053020


  The provided symmetry information was generated with SPGlib:

    Atsushi Togo, Yusuke Seto, Dimitar Pashov
    SPGlib 1.7.3 obtained from http://spglib.sourceforge.net
    Copyright (C) 2008 Atsushi Togo


  The DFPT (perturbation by an electric field) part of the code was used.
  Here is the corresponding reference:

    Honghui Shang, Nathaniel Raimbault, Mariana Rossi,
    Christian Carbogno, Patrick Rinke and Matthias Scheffler,
    'All-Electron, Real-Space Perturbation Theory for Homogeneous
    Electric Fields: Theory, Implementation, and Application within dft'
    New Journal of Physics, 20(7):073040, 2018


  The ELSI infrastructure was used in your run to solve the Kohn-Sham electronic structure.
  Please check out http://elsi-interchange.org to learn more.
  If scalability is important for your project, please acknowledge ELSI by citing:

    V. W-z. Yu, F. Corsetti, A. Garcia, W. P. Huhn, M. Jacquelin, W. Jia,
    B. Lange, L. Lin, J. Lu, W. Mi, A. Seifitokaldani, A. Vazquez-Mayagoitia,
    C. Yang, H. Yang, and V. Blum
    'ELSI: A unified software interface for Kohn-Sham electronic structure solvers'
    Computer Physics Communications 222, 267-285 (2018).
    http://doi.org/10.1016/j.cpc.2017.09.007


  For the real-space grid partitioning and parallelization used in this calculation, please cite:

    Ville Havu, Volker Blum, Paula Havu, and Matthias Scheffler,
    'Efficient O(N) integration for all-electron electronic structure calculation'
    'using numerically tabulated basis functions'
    Journal of Computational Physics 228, 8367-8379 (2009).
    http://doi.org/10.1016/j.jcp.2009.08.008


  The high-level electronic structure method used in your calculation
  employed our efficient localized resolution of identity for the Coulomb operator.
  Some calculations, especially large-scale hybrid density functional theory,
  are only possible thanks to this development. For this feature, please cite:

    Arvid Ihrig, Juergen Wieferink, Igor Ying Zhang, Matti Ropo, Xinguo Ren,
    Patrick Rinke, Matthias Scheffler, and Volker Blum,
    'Accurate localized resolution of identity approach for linear-scaling
    hybrid density functionals and for many-body perturbation theory'
    New Journal of Physics 117, 093020 (2015).
    http://doi.org/10.1088/1367-2630/17/9/093020

  Of course, there are many other important community references, e.g., those cited in the
  above references. Our list is limited to references that describe implementations in the
  FHI-aims code. The reason is purely practical (length of this list) - please credit others as well.

------------------------------------------------------------
          Leaving FHI-aims.
          Date     :  20230120, Time     :  171021.188

          Computational steps:
          | Number of self-consistency cycles          :           47
          | Number of SCF (re)initializations          :            1
          | Number of coupled perturbed self-consistency cycles          :            0
          | Number of CPSCF (re)initializations          :            0

          Detailed time accounting                     :  max(cpu_time)    wall_clock(cpu1)
          | Total time                                  :     1508.139 s        1519.135 s
          | GPU initialization                          :        2.504 s          12.267 s
          | Preparation time                            :        0.077 s           0.070 s
          | Boundary condition initalization            :        0.967 s           0.967 s
          | Grid partitioning                           :        1.278 s           1.278 s
          | Preloading free-atom quantities on grid     :        3.925 s           3.927 s
          | Free-atom superposition energy              :        0.511 s           0.511 s
          | Total time for integrations                 :       21.941 s          22.080 s
          | Product basis setup: Total time             :        0.000 s           0.000 s
          | Product basis: | 2-center integrations     :(       0.000 s)  (       0.000 s)
          | Product basis: | LVL 3-center & coefficient:(       0.000 s)  (       0.000 s)
          | Total time for solution of K.-S. equations  :        3.616 s           3.620 s
          | Total time for density update               :       14.891 s          15.037 s
          | Total time for mixing & preconditioning     :       12.628 s          12.634 s
          | Total time for Hartree multipole update     :        0.090 s           0.090 s
          | Total time for Hartree multipole sum        :       45.980 s          45.992 s
          | Total time for total energy evaluation      :        0.008 s           0.004 s
          | Total time first_order_DM                   :        1.945 s           1.936 s
          | Total time first_order_density              :      316.085 s         316.121 s
          | Total time first_order_potential            :      125.765 s         125.792 s
          | Total time first_order_H                    :      602.684 s         602.843 s
          | Total time solving of Sternheimer equations :        1.873 s           1.874 s
          | Total time for dielectric constant          :        0.000 s           0.000 s
          | Total time momentum matrix                  :        0.000 s           0.000 s

          GPU acceleration has been used for charge density update.
          GPU acceleration has been used for real-space Hamiltonian integration.
          Due to GPU usage, wall_clock(cpu1) will give a more reliable estimate for timings.

          Partial memory accounting:
          | Residual value for overall tracked memory usage across tasks:     1.234863 MB (should be 0.000000 MB)
          |
          | Largest tracked array allocation:
          |   Minimum:      103.119 MB (DFPT_pulay_mixing::initialize_pulay_mixing::X_in_diffs on task  0)
          |   Maximum:      103.119 MB (DFPT_pulay_mixing::initialize_pulay_mixing::X_in_diffs on task  0)
          |   Average:      103.119 MB
          |
          | Because the residual tracked memory usage was not zero, the peak value for overall
          | tracked memory usage was not output, as it is probably incorrect.  This is likely due
          | to a missing aims_deallocate statement in the source code, which should be otherwise
          | harmless.
          |
          Note:  These values currently only include a subset of arrays which are explicitly tracked.
          The "true" memory usage will be greater.

          Have a nice day.
------------------------------------------------------------
