------------------------------------------------------------
          Invoking FHI-aims ...

          When using FHI-aims, please cite the following reference:

            Volker Blum, Ralf Gehrke, Felix Hanke, Paula Havu,
            Ville Havu, Xinguo Ren, Karsten Reuter, and Matthias Scheffler,
            'Ab Initio Molecular Simulations with Numeric Atom-Centered Orbitals',
            Computer Physics Communications 180, 2175-2196 (2009)

          In addition, many other developments in FHI-aims are likely important for
          your particular application. A partial list of references is given at the end of
          this file. Thank you for giving credit to the authors of these developments.

          For any questions about FHI-aims, please visit our slack channel at

            https://fhi-aims.slack.com

          and our main development and support site at

            https://aims-git.rz-berlin.mpg.de .

          The latter site, in particular, has a wiki to collect information, as well
          as an issue tracker to log discussions, suggest improvements, and report issues
          or bugs. https://aims-git.rz-berlin.mpg.de is also the main development site
          of the project and all new and updated code versions can be obtained there.
          Please send an email to aims-coordinators@fhi-berlin.mpg.de and we will add
          you to these sites. They are for you and everyone is welcome there.

------------------------------------------------------------



  Date     :  20230120, Time     :  132154.126
  Time zero on CPU 1             :   0.456873000000000E+00  s.
  Internal wall clock time zero  :           443452914.126  s.

  FHI-aims created a unique identifier for this run for later identification
  aims_uuid : ED096D9E-FE55-430F-A0E3-D63A156A7407

  Build configuration of the current instance of FHI-aims
  -------------------------------------------------------
  FHI-aims version      : 220829
  Commit number         : 9895fc21d
  CMake host system     : Linux-5.3.18-150300.59.68-default
  CMake version         : 3.17.0
  Fortran compiler      : /mpcdf/soft/SLE_15/packages/x86_64/intel_oneapi/2021.3/mpi/2021.3.0/bin/mpiifort (Intel) version 20.2.3.20210609
  Fortran compiler flags: -O3 -ip -fp-model precise
  C compiler            : /mpcdf/soft/SLE_15/packages/x86_64/intel/2021.3.0/bin/icc (Intel) version 20.2.3.20210609
  C compiler flags      : -O3 -ip -fp-model precise -std=gnu99
  CUDA compiler         : /mpcdf/soft/SLE_15/packages/x86_64/cuda/11.6.2/bin/nvcc
  CUDA compiler flags   : -O3 -DAdd_ -lcublas
  ELPA2 kernel          : AVX512
  Using MPI
  Using ScaLAPACK
  Using LibXC
  Using CUDA
  Using i-PI
  Using RLSY
  Linking against: /mpcdf/soft/SLE_15/packages/x86_64/cuda/11.6.2/lib64/libcublas.so
                   /mpcdf/soft/SLE_15/packages/x86_64/cuda/11.6.2/lib64/libcudart.so
                   /mpcdf/soft/SLE_15/packages/x86_64/intel_oneapi/2021.3/mkl/latest/lib/intel64/libmkl_intel_lp64.so
                   /mpcdf/soft/SLE_15/packages/x86_64/intel_oneapi/2021.3/mkl/latest/lib/intel64/libmkl_sequential.so
                   /mpcdf/soft/SLE_15/packages/x86_64/intel_oneapi/2021.3/mkl/latest/lib/intel64/libmkl_core.so
                   /mpcdf/soft/SLE_15/packages/x86_64/intel_oneapi/2021.3/mkl/latest/lib/intel64/libmkl_blacs_intelmpi_lp64.so
                   /mpcdf/soft/SLE_15/packages/x86_64/intel_oneapi/2021.3/mkl/latest/lib/intel64/libmkl_scalapack_lp64.so

  Using       18 parallel tasks.
  Task        0 on host adag004 reporting.
  Task        1 on host adag004 reporting.
  Task        2 on host adag004 reporting.
  Task        3 on host adag004 reporting.
  Task        4 on host adag004 reporting.
  Task        5 on host adag004 reporting.
  Task        6 on host adag004 reporting.
  Task        7 on host adag004 reporting.
  Task        8 on host adag004 reporting.
  Task        9 on host adag004 reporting.
  Task       10 on host adag004 reporting.
  Task       11 on host adag004 reporting.
  Task       12 on host adag004 reporting.
  Task       13 on host adag004 reporting.
  Task       14 on host adag004 reporting.
  Task       15 on host adag004 reporting.
  Task       16 on host adag004 reporting.
  Task       17 on host adag004 reporting.

  Performing system and environment tests:
  | Environment variable OMP_NUM_THREADS correctly set to 1.
  | Checking for ScaLAPACK...
  | Testing pdtran()...
  | All pdtran() tests passed.

  Obtaining array dimensions for all initial allocations:
  
  -----------------------------------------------------------------------
  Parsing control.in (first pass over file, find array dimensions only).
  The contents of control.in will be repeated verbatim below
  unless switched off by setting 'verbatim_writeout .false.' .
  in the first line of control.in .
  -----------------------------------------------------------------------
  
  #
  # Input for polarizability replays on generic oligoacene molecular crystals (light settings,  LDA+MBD).
  #
  #########################################################################################
  #
  #  Physical model
  #
    xc                 pw-lda
    spin               none
    relativistic       none
    charge             0.0
    k_grid 	     2 1 1
    DFPT dielectric
  #
  #  GPU acceleration
  #
  # Turns on GPU acceleration everywhere
    use_gpu
  
  # Turns OFF GPU acceleration of ELPA - may be necessary if GPU ELPA is slow
    elsi_elpa_gpu 0
  #
  #  Relaxation
  #
  #  relax_geometry trm 1E-3
  #  relax_unit_cell fixed_angles
  #
  #  SCF convergence        #
    charge_mix_param   0.75
    #sc_accuracy_rho 1E-4
  #
  # i-PI communication
  #
  compute_forces .false.
  # use_pimd_wrapper 130.183.223.27 26118
  #communicate_pimd_wrapper polarizability
  #output_level MD_light
  #
  # Output SALTED info
    ri_density_restart write
    ri_rho1 write
    ri_full_output .true.
  #  sc_accuracy_rho    1d-6
    default_prodbas_acc 1e-6
    default_max_l_prodbas 6
  #
  #
  ################################################################################
  #
  #  FHI-aims code project
  #  VB, Fritz-Haber Institut, 2009
  #
  #  Suggested "light" defaults for H atom (to be pasted into control.in file)
  #  Be sure to double-check any results obtained with these settings for post-processing,
  #  e.g., with the "tight" defaults and larger basis sets.
  #
  ################################################################################
    species        H
  #     global species definitions
      nucleus             1
      mass                1.00794
  #
      l_hartree           4
  #
      cut_pot             3.5  1.5  1.0
      basis_dep_cutoff    1e-4
  #
      radial_base         24 5.0
      radial_multiplier   1
      angular_grids       specified
        division   0.2421   50
        division   0.3822  110
        division   0.4799  194
        division   0.5341  302
  #      division   0.5626  434
  #      division   0.5922  590
  #      division   0.6542  770
  #      division   0.6868 1202
  #      outer_grid  770
        outer_grid  302
  ################################################################################
  #
  #  Definition of "minimal" basis
  #
  ################################################################################
  #     valence basis states
      valence      1  s   1.
  #     ion occupancy
      ion_occ      1  s   0.5
  ################################################################################
  #
  #  Suggested additional basis functions. For production calculations,
  #  uncomment them one after another (the most important basis functions are
  #  listed first).
  #
  #  Basis constructed for dimers: 0.5 A, 0.7 A, 1.0 A, 1.5 A, 2.5 A
  #
  ################################################################################
  #  "First tier" - improvements: -1014.90 meV to -62.69 meV
       hydro 2 s 2.1
       hydro 2 p 3.5
  #  "Second tier" - improvements: -12.89 meV to -1.83 meV
  #     hydro 1 s 0.85
  #     hydro 2 p 3.7
  #     hydro 2 s 1.2
  #     hydro 3 d 7
  #  "Third tier" - improvements: -0.25 meV to -0.12 meV
  #     hydro 4 f 11.2
  #     hydro 3 p 4.8
  #     hydro 4 d 9
  #     hydro 3 s 3.2
  ################################################################################
  ################################################################################
  #
  #  FHI-aims code project
  #  VB, Fritz-Haber Institut, 2009
  #
  #  Suggested "light" defaults for C atom (to be pasted into control.in file)
  #  Be sure to double-check any results obtained with these settings for post-processing,
  #  e.g., with the "tight" defaults and larger basis sets.
  #
  ################################################################################
    species        C
  #     global species definitions
      nucleus             6
      mass                12.0107
  #
      l_hartree           4
  #
      cut_pot             3.5  1.5  1.0
      basis_dep_cutoff    1e-4
  #
      radial_base         34 5.0
      radial_multiplier   1
      angular_grids specified
        division   0.3326   50
        division   0.5710  110
        division   0.7727  194
        division   0.8772  302
  #      division   0.9334  434
  #      division   0.9625  590
  #      division   0.9924  770
  #      division   1.0230  974
  #      division   1.4589 1202
  #     outer_grid  974
       outer_grid 302
  ################################################################################
  #
  #  Definition of "minimal" basis
  #
  ################################################################################
  #     valence basis states
      valence      2  s   2.
      valence      2  p   2.
  #     ion occupancy
      ion_occ      2  s   1.
      ion_occ      2  p   1.
  ################################################################################
  #
  #  Suggested additional basis functions. For production calculations,
  #  uncomment them one after another (the most important basis functions are
  #  listed first).
  #
  #  Constructed for dimers: 1.0 A, 1.25 A, 1.5 A, 2.0 A, 3.0 A
  #
  ################################################################################
  #  "First tier" - improvements: -1214.57 meV to -155.61 meV
       hydro 2 p 1.7
       hydro 3 d 6
       hydro 2 s 4.9
  #  "Second tier" - improvements: -67.75 meV to -5.23 meV
  #     hydro 4 f 9.8
  #     hydro 3 p 5.2
  #     hydro 3 s 4.3
  #     hydro 5 g 14.4
  #     hydro 3 d 6.2
  #  "Third tier" - improvements: -2.43 meV to -0.60 meV
  #     hydro 2 p 5.6
  #     hydro 2 s 1.4
  #     hydro 3 d 4.9
  #     hydro 4 f 11.2
  #  "Fourth tier" - improvements: -0.39 meV to -0.18 meV
  #     hydro 2 p 2.1
  #     hydro 5 g 16.4
  #     hydro 4 d 13.2
  #     hydro 3 s 13.6
  #     hydro 4 f 17.6
  #  Further basis functions - improvements: -0.08 meV and below
  #     hydro 3 s 2
  #     hydro 3 p 6
  #     hydro 4 d 20
  
  -----------------------------------------------------------------------
  Completed first pass over input file control.in .
  -----------------------------------------------------------------------
  
  
  -----------------------------------------------------------------------
  Parsing geometry.in (first pass over file, find array dimensions only).
  The contents of geometry.in will be repeated verbatim below
  unless switched off by setting 'verbatim_writeout .false.' .
  in the first line of geometry.in .
  -----------------------------------------------------------------------
  
  #=======================================================
  # FHI-aims file: /ada/ptmp/mpsd/alewis/naphthalene/qmdata/data/geoms/364.in
  # Created using the Atomic Simulation Environment (ASE)
  # Thu Jan 19 15:19:17 2023
  #=======================================================
  lattice_vector 8.1020000000000003 0.0000000000000000 0.0000000000000000
  lattice_vector 0.0000000000000000 11.8800000000000008 0.0000000000000000
  lattice_vector -9.7850918486534706 0.0000000000000000 14.2571119625755713
  atom -0.7770110000000000 -0.1111900000000000 2.4272100000000001 C
  atom 0.0796008000000000 3.2362099999999998 4.7719100000000001 C
  atom 4.1920999999999999 5.9185800000000004 4.8139500000000002 C
  atom 3.2410800000000002 2.8515999999999999 2.3806699999999998 C
  atom -0.0758306000000000 0.8196460000000000 1.6686700000000001 C
  atom -0.5999970000000000 4.0918799999999997 5.6210500000000003 C
  atom 3.4341200000000001 5.0673300000000001 5.5762700000000001 C
  atom 4.0318300000000002 1.9919000000000000 1.6688300000000000 C
  atom 0.3023400000000000 0.5061560000000001 0.3287900000000000 C
  atom -0.8904710000000000 3.6730000000000000 6.9526399999999997 C
  atom 3.0425200000000001 5.4153500000000001 6.9372800000000003 C
  atom 4.4218999999999999 2.3072499999999998 0.3366680000000000 C
  atom -3.8419099999999999 1.5533200000000000 6.7901999999999996 C
  atom 3.1941999999999999 4.4381000000000004 0.5382670000000001 C
  atom 7.2362200000000003 4.4644800000000000 0.6229140000000000 C
  atom 0.2269660000000000 1.5391600000000001 6.5120399999999998 C
  atom -3.4923999999999999 1.2517000000000000 5.5216099999999999 C
  atom 2.8130799999999998 4.0925900000000004 1.8141099999999999 C
  atom 6.8071799999999998 4.8486399999999996 1.8659399999999999 C
  atom 0.5207670000000000 1.9647100000000000 5.2422599999999999 C
  atom -1.0444500000000001 0.0704959000000000 3.4727800000000002 H
  atom 0.3597690000000000 3.5972700000000000 3.7803800000000001 H
  atom 4.4097900000000001 5.6289699999999998 3.7942600000000000 H
  atom 2.9492300000000000 2.5816499999999998 3.3874800000000000 H
  atom 0.3191800000000000 1.7404299999999999 2.1127199999999999 H
  atom -0.9505300000000000 5.0709299999999997 5.2667799999999998 H
  atom 3.2455900000000000 4.0261699999999996 5.2317000000000000 H
  atom 4.4029499999999997 1.0591400000000000 2.1076700000000002 H
  atom -3.5269200000000001 2.5087600000000001 7.2569900000000001 H
  atom 2.8943300000000001 5.3593999999999999 0.0407378000000000 H
  atom 6.9850599999999998 3.4748600000000001 0.3099510000000000 H
  atom 0.4609460000000000 0.5030920000000000 6.7992999999999997 H
  atom -2.9239000000000002 2.0175000000000001 4.9498499999999996 H
  atom 2.1032700000000002 4.6990800000000004 2.3793700000000002 H
  atom 6.1973099999999999 4.1665200000000002 2.4723299999999999 H
  atom 1.1349600000000000 1.3380399999999999 4.5760199999999998 H
  atom -5.8211800000000000 -0.0207657000000000 9.5644899999999993 C
  atom -4.5941299999999998 2.9911300000000001 12.0365000000000002 C
  atom -0.6928850000000000 5.8286899999999999 11.9405000000000001 C
  atom -1.5072000000000001 2.8294000000000001 9.5671800000000005 C
  atom -5.0375800000000002 0.9079230000000000 8.8705400000000001 C
  atom -5.3991199999999999 3.8700000000000001 12.7460000000000004 C
  atom -1.4816199999999999 4.9906300000000003 12.7026000000000003 C
  atom -0.7724430000000000 2.0193699999999999 8.7401199999999992 C
  atom -4.5972000000000000 0.6231290000000000 7.5615600000000001 C
  atom -5.7967100000000000 3.5476000000000001 14.0403000000000002 C
  atom -1.7746800000000000 5.2927799999999996 14.0455000000000005 C
  atom -0.4760170000000000 2.3861200000000000 7.4091300000000002 C
  atom -8.7275600000000004 1.4222900000000001 13.8313000000000006 C
  atom -1.6363000000000001 4.4754199999999997 7.8374699999999997 C
  atom 2.4039100000000002 4.4745999999999997 7.7327300000000001 C
  atom -4.5644900000000002 1.4278700000000000 13.8221000000000007 C
  atom -8.3612500000000001 1.1412599999999999 12.5119000000000007 C
  atom -1.9605200000000000 4.1128299999999998 9.1397200000000005 C
  atom 2.0339999999999998 4.8329300000000002 9.0331600000000005 C
  atom -4.1279000000000003 1.7583200000000001 12.5733999999999995 C
  atom -6.1164300000000003 0.1917850000000000 10.6071000000000009 H
  atom -4.2814300000000003 3.3145600000000002 11.0656999999999996 H
  atom -0.4527000000000000 5.5827799999999996 10.9183000000000003 H
  atom -1.7106600000000001 2.4726100000000000 10.5837000000000003 H
  atom -4.7213000000000003 1.8317000000000001 9.3704499999999999 H
  atom -5.7651000000000003 4.7895200000000004 12.3201999999999998 H
  atom -1.9182600000000001 4.0687199999999999 12.2849000000000004 H
  atom -0.4180030000000000 1.0209200000000000 9.0696800000000000 H
  atom -8.3777299999999997 2.3308700000000000 14.3674999999999997 H
  atom -2.0620500000000002 5.4341200000000001 7.5296300000000000 H
  atom 2.1688000000000001 3.5178500000000001 7.3206699999999998 H
  atom -4.3379200000000004 0.4746350000000000 14.3101000000000003 H
  atom -7.6494000000000000 1.7386200000000001 11.9484999999999992 H
  atom -2.6352199999999999 4.7804099999999998 9.6918699999999998 H
  atom 1.4565600000000001 4.1220699999999999 9.6407900000000009 H
  atom -3.4988100000000002 1.0398700000000001 12.0312000000000001 H
  atom -0.8882710000000000 6.0707500000000003 2.4015200000000001 C
  atom 0.0264501000000000 8.9980600000000006 4.8373699999999999 C
  atom 4.2262700000000004 11.9311000000000007 4.8852200000000003 C
  atom 3.2269999999999999 8.9227799999999995 2.3099099999999999 C
  atom -0.0643863000000000 6.9099300000000001 1.6695899999999999 C
  atom -0.6877420000000000 9.8880800000000004 5.6334900000000001 C
  atom 3.4253800000000001 11.0254999999999992 5.5805800000000003 C
  atom 4.0053099999999997 7.9908599999999996 1.6253000000000000 C
  atom 0.3450510000000000 6.5449200000000003 0.3419750000000000 C
  atom -1.0104800000000000 9.5336300000000005 6.9837499999999997 C
  atom 3.0469700000000000 11.2926000000000002 6.9211600000000004 C
  atom 4.3852399999999996 8.2662099999999992 0.2878420000000000 C
  atom -3.8613800000000000 7.5313600000000003 6.6113499999999998 C
  atom 3.1805300000000001 10.4212000000000007 0.4121420000000000 C
  atom 7.2287900000000000 10.2256999999999998 0.5202620000000000 C
  atom 0.2058280000000000 7.4236700000000004 6.6404899999999998 C
  atom -3.4817200000000001 7.1551799999999997 5.3311099999999998 C
  atom 2.8157000000000001 10.1400000000000006 1.7272400000000001 C
  atom 6.8986700000000001 10.5266000000000002 1.8442799999999999 C
  atom 0.5298230000000000 7.7831299999999999 5.3497700000000004 C
  atom -1.1300399999999999 6.3469300000000004 3.4272800000000001 H
  atom 0.2893560000000000 9.2874700000000008 3.8076400000000001 H
  atom 4.5308000000000002 11.7582000000000004 3.8593600000000001 H
  atom 2.9304700000000001 8.6946100000000008 3.3384299999999998 H
  atom 0.3469210000000000 7.8202499999999997 2.0707399999999998 H
  atom -0.9634790000000000 10.9003999999999994 5.2762399999999996 H
  atom 3.0781800000000001 10.0925999999999991 5.0813499999999996 H
  atom 4.3698600000000001 7.0930499999999999 2.1220300000000001 H
  atom -3.6012700000000000 8.4952199999999998 7.0102799999999998 H
  atom 2.8270300000000002 11.3289000000000009 -0.0499579000000000 H
  atom 6.9266399999999999 9.2631700000000006 0.1386510000000000 H
  atom 0.5978059999999999 6.4890100000000004 7.0730700000000004 H
  atom -2.9386299999999999 7.9037800000000002 4.7251200000000004 H
  atom 2.1265299999999998 10.8229000000000006 2.2984800000000001 H
  atom 6.3324999999999996 9.7561199999999992 2.4130300000000000 H
  atom 1.1663600000000001 7.1653300000000000 4.7579200000000004 H
  atom -5.7006199999999998 6.1354100000000003 9.5196100000000001 C
  atom -4.6811100000000003 8.8797099999999993 11.9360999999999997 C
  atom -0.6907799999999999 11.8276000000000003 11.8818999999999999 C
  atom -1.7117599999999999 8.7552400000000006 9.6295199999999994 C
  atom -4.9640899999999997 7.0266799999999998 8.7456399999999999 C
  atom -5.5070899999999998 9.7426999999999992 12.6270000000000007 C
  atom -1.4417700000000000 10.9263999999999992 12.6216000000000008 C
  atom -0.8706390000000001 7.9631900000000000 8.8440100000000008 C
  atom -4.6505099999999997 6.6809599999999998 7.4064500000000004 C
  atom -5.8628000000000000 9.4797399999999996 13.9411000000000005 C
  atom -1.7843899999999999 11.1428999999999991 13.9852000000000007 C
  atom -0.5712550000000000 8.2711100000000002 7.4789599999999998 C
  atom -8.6347799999999992 7.4043700000000001 13.7759999999999998 C
  atom -1.7644599999999999 10.4019999999999992 7.8245699999999996 C
  atom 2.2194400000000001 10.3896999999999995 7.6389699999999996 C
  atom -4.5742099999999999 7.4104799999999997 13.8264999999999993 C
  atom -8.3624799999999997 7.0683400000000001 12.4786000000000001 C
  atom -2.1526299999999998 10.0004000000000008 9.0814199999999996 C
  atom 1.8596299999999999 10.6693999999999996 8.9440899999999992 C
  atom -4.2140000000000004 7.7010800000000001 12.5152000000000001 C
  atom -5.9686199999999996 6.4012300000000000 10.5361999999999991 H
  atom -4.4036900000000001 9.1325199999999995 10.9128000000000007 H
  atom -0.3534230000000000 11.6355000000000004 10.8190000000000008 H
  atom -2.0340900000000000 8.4201800000000002 10.6257000000000001 H
  atom -4.5656900000000000 7.9617500000000003 9.1509800000000006 H
  atom -5.8438999999999997 10.6698000000000004 12.1358999999999995 H
  atom -1.6904500000000000 9.9768299999999996 12.1434999999999995 H
  atom -0.4539170000000000 7.0741600000000000 9.2390799999999995 H
  atom -8.2030600000000007 8.3094900000000003 14.2109000000000005 H
  atom -2.0830700000000002 11.3629999999999995 7.4367799999999997 H
  atom 1.9559400000000000 9.4148800000000001 7.2110599999999998 H
  atom -4.1674199999999999 6.4906199999999998 14.2508999999999997 H
  atom -7.7276899999999999 7.6722099999999998 11.8665000000000003 H
  atom -2.8656700000000002 10.6245999999999992 9.6204099999999997 H
  atom 1.2254400000000001 9.9884699999999995 9.5068300000000008 H
  atom -3.5617999999999999 6.9535900000000002 12.0244000000000000 H
  
  -----------------------------------------------------------------------
  Completed first pass over input file geometry.in .
  -----------------------------------------------------------------------
  

  Basic array size parameters:
  | Number of species                 :        2
  | Number of atoms                   :      144
  | Number of lattice vectors         :        3
  | Max. basis fn. angular momentum   :        2
  | Max. atomic/ionic basis occupied n:        2
  | Max. number of basis fn. types    :        2
  | Max. radial fns per species/type  :        3
  | Max. logarithmic grid size        :     1277
  | Max. radial integration grid size :       34
  | Max. angular integration grid size:      302
  | Max. angular grid division number :        8
  | Radial grid for Hartree potential :     1277
  | Number of spin channels           :        1

------------------------------------------------------------
          Reading file control.in.
------------------------------------------------------------
  XC: Using Perdew-Wang parametrisation of Ceperley-Alder LDA.
  Spin treatment: No spin polarisation.
  Non-relativistic treatment of kinetic energy.
  Charge =   0.000000E+00: Neutral system requested explicitly.
  Found k-point grid:         2         1         1
  DFPT calculation will begin after the DFT/HF calculation.
  Charge density mixing - mixing parameter:     0.7500
  Forces will not be computed.
 
  Reading configuration options for species H                   .
  | Found nuclear charge :   1.0000
  | Found atomic mass :    1.00794000000000      amu
  | Found l_max for Hartree potential  :   4
  | Found cutoff potl. onset [A], width [A], scale factor :    3.50000    1.50000    1.00000
  | Threshold for basis-dependent cutoff potential is   0.100000E-03
  | Found data for basic radial integration grid :    24 points, outermost radius =    5.000 A
  | Found multiplier for basic radial grid :   1
  | Found angular grid specification: user-specified.
  | Specified grid contains     5 separate shells.
  | Check grid settings after all constraints further below.
  | Found free-atom valence shell :  1 s   1.000
  | No ionic wave fns used. Skipping ion_occ.
  | Found hydrogenic basis function :  2 s   2.100
  | Found hydrogenic basis function :  2 p   3.500
  Species H                   : Missing cutoff potential type.
  Defaulting to exp(1/x)/(1-x)^2 type cutoff potential.
  Species H : No 'logarithmic' tag. Using default grid for free atom:
  | Default logarithmic grid data [bohr] : 0.1000E-03 0.1000E+03 0.1012E+01
  Species H : On-site basis accuracy parameter (for Gram-Schmidt orthonormalisation) not specified.
  Using default value basis_acc =  0.1000000E-03.
  Species H                   : Using default innermost maximum threshold i_radial=  2 for radial functions.
  Species H                   : Default cutoff onset for free atom density etc. : 0.35000000E+01 AA.
  Species H                   : Basic radial grid will be enhanced according to radial_multiplier =   1, to contain    24 grid points.
 
  Reading configuration options for species C                   .
  | Found nuclear charge :   6.0000
  | Found atomic mass :    12.0107000000000      amu
  | Found l_max for Hartree potential  :   4
  | Found cutoff potl. onset [A], width [A], scale factor :    3.50000    1.50000    1.00000
  | Threshold for basis-dependent cutoff potential is   0.100000E-03
  | Found data for basic radial integration grid :    34 points, outermost radius =    5.000 A
  | Found multiplier for basic radial grid :   1
  | Found angular grid specification: user-specified.
  | Specified grid contains     5 separate shells.
  | Check grid settings after all constraints further below.
  | Found free-atom valence shell :  2 s   2.000
  | Found free-atom valence shell :  2 p   2.000
  | No ionic wave fns used. Skipping ion_occ.
  | No ionic wave fns used. Skipping ion_occ.
  | Found hydrogenic basis function :  2 p   1.700
  | Found hydrogenic basis function :  3 d   6.000
  | Found hydrogenic basis function :  2 s   4.900
  Species C                   : Missing cutoff potential type.
  Defaulting to exp(1/x)/(1-x)^2 type cutoff potential.
  Species C : No 'logarithmic' tag. Using default grid for free atom:
  | Default logarithmic grid data [bohr] : 0.1000E-03 0.1000E+03 0.1012E+01
  Species C : On-site basis accuracy parameter (for Gram-Schmidt orthonormalisation) not specified.
  Using default value basis_acc =  0.1000000E-03.
  Species C                   : Using default innermost maximum threshold i_radial=  2 for radial functions.
  Species C                   : Default cutoff onset for free atom density etc. : 0.35000000E+01 AA.
  Species C                   : Basic radial grid will be enhanced according to radial_multiplier =   1, to contain    34 grid points.
 
  Finished reading input file 'control.in'.
 
------------------------------------------------------------


------------------------------------------------------------
          Reading geometry description geometry.in.
------------------------------------------------------------
  | The smallest distance between any two atoms is         1.05835338 AA.
  | The first atom of this pair is atom number                    116 .
  | The second atom of this pair is atom number                   136 .
  | Wigner-Seitz cell of the first atom image           0     0     0 .
  | (The Wigner-Seitz cell of the second atom is 0 0 0  by definition.)

  Symmetry information by spglib:
  | Precision set to  0.1E-04
  | Number of Operations  : 1
  | Space group           : 1
  | International         : P1
  | Schoenflies           : C1^1
  Input structure read successfully.
  The structure contains      144 atoms,  and a total of        544.000 electrons.

  Input geometry:
  | Unit cell:
  |        8.10200000        0.00000000        0.00000000
  |        0.00000000       11.88000000        0.00000000
  |       -9.78509185        0.00000000       14.25711196
  | Atomic structure:
  |       Atom                x [A]            y [A]            z [A]
  |    1: Species C            -0.77701100       -0.11119000        2.42721000
  |    2: Species C             0.07960080        3.23621000        4.77191000
  |    3: Species C             4.19210000        5.91858000        4.81395000
  |    4: Species C             3.24108000        2.85160000        2.38067000
  |    5: Species C            -0.07583060        0.81964600        1.66867000
  |    6: Species C            -0.59999700        4.09188000        5.62105000
  |    7: Species C             3.43412000        5.06733000        5.57627000
  |    8: Species C             4.03183000        1.99190000        1.66883000
  |    9: Species C             0.30234000        0.50615600        0.32879000
  |   10: Species C            -0.89047100        3.67300000        6.95264000
  |   11: Species C             3.04252000        5.41535000        6.93728000
  |   12: Species C             4.42190000        2.30725000        0.33666800
  |   13: Species C            -3.84191000        1.55332000        6.79020000
  |   14: Species C             3.19420000        4.43810000        0.53826700
  |   15: Species C             7.23622000        4.46448000        0.62291400
  |   16: Species C             0.22696600        1.53916000        6.51204000
  |   17: Species C            -3.49240000        1.25170000        5.52161000
  |   18: Species C             2.81308000        4.09259000        1.81411000
  |   19: Species C             6.80718000        4.84864000        1.86594000
  |   20: Species C             0.52076700        1.96471000        5.24226000
  |   21: Species H            -1.04445000        0.07049590        3.47278000
  |   22: Species H             0.35976900        3.59727000        3.78038000
  |   23: Species H             4.40979000        5.62897000        3.79426000
  |   24: Species H             2.94923000        2.58165000        3.38748000
  |   25: Species H             0.31918000        1.74043000        2.11272000
  |   26: Species H            -0.95053000        5.07093000        5.26678000
  |   27: Species H             3.24559000        4.02617000        5.23170000
  |   28: Species H             4.40295000        1.05914000        2.10767000
  |   29: Species H            -3.52692000        2.50876000        7.25699000
  |   30: Species H             2.89433000        5.35940000        0.04073780
  |   31: Species H             6.98506000        3.47486000        0.30995100
  |   32: Species H             0.46094600        0.50309200        6.79930000
  |   33: Species H            -2.92390000        2.01750000        4.94985000
  |   34: Species H             2.10327000        4.69908000        2.37937000
  |   35: Species H             6.19731000        4.16652000        2.47233000
  |   36: Species H             1.13496000        1.33804000        4.57602000
  |   37: Species C            -5.82118000       -0.02076570        9.56449000
  |   38: Species C            -4.59413000        2.99113000       12.03650000
  |   39: Species C            -0.69288500        5.82869000       11.94050000
  |   40: Species C            -1.50720000        2.82940000        9.56718000
  |   41: Species C            -5.03758000        0.90792300        8.87054000
  |   42: Species C            -5.39912000        3.87000000       12.74600000
  |   43: Species C            -1.48162000        4.99063000       12.70260000
  |   44: Species C            -0.77244300        2.01937000        8.74012000
  |   45: Species C            -4.59720000        0.62312900        7.56156000
  |   46: Species C            -5.79671000        3.54760000       14.04030000
  |   47: Species C            -1.77468000        5.29278000       14.04550000
  |   48: Species C            -0.47601700        2.38612000        7.40913000
  |   49: Species C            -8.72756000        1.42229000       13.83130000
  |   50: Species C            -1.63630000        4.47542000        7.83747000
  |   51: Species C             2.40391000        4.47460000        7.73273000
  |   52: Species C            -4.56449000        1.42787000       13.82210000
  |   53: Species C            -8.36125000        1.14126000       12.51190000
  |   54: Species C            -1.96052000        4.11283000        9.13972000
  |   55: Species C             2.03400000        4.83293000        9.03316000
  |   56: Species C            -4.12790000        1.75832000       12.57340000
  |   57: Species H            -6.11643000        0.19178500       10.60710000
  |   58: Species H            -4.28143000        3.31456000       11.06570000
  |   59: Species H            -0.45270000        5.58278000       10.91830000
  |   60: Species H            -1.71066000        2.47261000       10.58370000
  |   61: Species H            -4.72130000        1.83170000        9.37045000
  |   62: Species H            -5.76510000        4.78952000       12.32020000
  |   63: Species H            -1.91826000        4.06872000       12.28490000
  |   64: Species H            -0.41800300        1.02092000        9.06968000
  |   65: Species H            -8.37773000        2.33087000       14.36750000
  |   66: Species H            -2.06205000        5.43412000        7.52963000
  |   67: Species H             2.16880000        3.51785000        7.32067000
  |   68: Species H            -4.33792000        0.47463500       14.31010000
  |   69: Species H            -7.64940000        1.73862000       11.94850000
  |   70: Species H            -2.63522000        4.78041000        9.69187000
  |   71: Species H             1.45656000        4.12207000        9.64079000
  |   72: Species H            -3.49881000        1.03987000       12.03120000
  |   73: Species C            -0.88827100        6.07075000        2.40152000
  |   74: Species C             0.02645010        8.99806000        4.83737000
  |   75: Species C             4.22627000       11.93110000        4.88522000
  |   76: Species C             3.22700000        8.92278000        2.30991000
  |   77: Species C            -0.06438630        6.90993000        1.66959000
  |   78: Species C            -0.68774200        9.88808000        5.63349000
  |   79: Species C             3.42538000       11.02550000        5.58058000
  |   80: Species C             4.00531000        7.99086000        1.62530000
  |   81: Species C             0.34505100        6.54492000        0.34197500
  |   82: Species C            -1.01048000        9.53363000        6.98375000
  |   83: Species C             3.04697000       11.29260000        6.92116000
  |   84: Species C             4.38524000        8.26621000        0.28784200
  |   85: Species C            -3.86138000        7.53136000        6.61135000
  |   86: Species C             3.18053000       10.42120000        0.41214200
  |   87: Species C             7.22879000       10.22570000        0.52026200
  |   88: Species C             0.20582800        7.42367000        6.64049000
  |   89: Species C            -3.48172000        7.15518000        5.33111000
  |   90: Species C             2.81570000       10.14000000        1.72724000
  |   91: Species C             6.89867000       10.52660000        1.84428000
  |   92: Species C             0.52982300        7.78313000        5.34977000
  |   93: Species H            -1.13004000        6.34693000        3.42728000
  |   94: Species H             0.28935600        9.28747000        3.80764000
  |   95: Species H             4.53080000       11.75820000        3.85936000
  |   96: Species H             2.93047000        8.69461000        3.33843000
  |   97: Species H             0.34692100        7.82025000        2.07074000
  |   98: Species H            -0.96347900       10.90040000        5.27624000
  |   99: Species H             3.07818000       10.09260000        5.08135000
  |  100: Species H             4.36986000        7.09305000        2.12203000
  |  101: Species H            -3.60127000        8.49522000        7.01028000
  |  102: Species H             2.82703000       11.32890000       -0.04995790
  |  103: Species H             6.92664000        9.26317000        0.13865100
  |  104: Species H             0.59780600        6.48901000        7.07307000
  |  105: Species H            -2.93863000        7.90378000        4.72512000
  |  106: Species H             2.12653000       10.82290000        2.29848000
  |  107: Species H             6.33250000        9.75612000        2.41303000
  |  108: Species H             1.16636000        7.16533000        4.75792000
  |  109: Species C            -5.70062000        6.13541000        9.51961000
  |  110: Species C            -4.68111000        8.87971000       11.93610000
  |  111: Species C            -0.69078000       11.82760000       11.88190000
  |  112: Species C            -1.71176000        8.75524000        9.62952000
  |  113: Species C            -4.96409000        7.02668000        8.74564000
  |  114: Species C            -5.50709000        9.74270000       12.62700000
  |  115: Species C            -1.44177000       10.92640000       12.62160000
  |  116: Species C            -0.87063900        7.96319000        8.84401000
  |  117: Species C            -4.65051000        6.68096000        7.40645000
  |  118: Species C            -5.86280000        9.47974000       13.94110000
  |  119: Species C            -1.78439000       11.14290000       13.98520000
  |  120: Species C            -0.57125500        8.27111000        7.47896000
  |  121: Species C            -8.63478000        7.40437000       13.77600000
  |  122: Species C            -1.76446000       10.40200000        7.82457000
  |  123: Species C             2.21944000       10.38970000        7.63897000
  |  124: Species C            -4.57421000        7.41048000       13.82650000
  |  125: Species C            -8.36248000        7.06834000       12.47860000
  |  126: Species C            -2.15263000       10.00040000        9.08142000
  |  127: Species C             1.85963000       10.66940000        8.94409000
  |  128: Species C            -4.21400000        7.70108000       12.51520000
  |  129: Species H            -5.96862000        6.40123000       10.53620000
  |  130: Species H            -4.40369000        9.13252000       10.91280000
  |  131: Species H            -0.35342300       11.63550000       10.81900000
  |  132: Species H            -2.03409000        8.42018000       10.62570000
  |  133: Species H            -4.56569000        7.96175000        9.15098000
  |  134: Species H            -5.84390000       10.66980000       12.13590000
  |  135: Species H            -1.69045000        9.97683000       12.14350000
  |  136: Species H            -0.45391700        7.07416000        9.23908000
  |  137: Species H            -8.20306000        8.30949000       14.21090000
  |  138: Species H            -2.08307000       11.36300000        7.43678000
  |  139: Species H             1.95594000        9.41488000        7.21106000
  |  140: Species H            -4.16742000        6.49062000       14.25090000
  |  141: Species H            -7.72769000        7.67221000       11.86650000
  |  142: Species H            -2.86567000       10.62460000        9.62041000
  |  143: Species H             1.22544000        9.98847000        9.50683000
  |  144: Species H            -3.56180000        6.95359000       12.02440000

  Lattice parameters for 3D lattice (in Angstroms) :     8.102000   11.880000   17.292000
  Angle(s) between unit vectors (in degrees)       :    90.000000  124.463000   90.000000


  Quantities derived from the lattice vectors (in Angstrom^-1):
  | Reciprocal lattice vector 1:  0.775510  0.000000  0.532257
  | Reciprocal lattice vector 2:  0.000000  0.528888  0.000000
  | Reciprocal lattice vector 3: -0.000000  0.000000  0.440705
  | Unit cell volume                               :   0.137227E+04  Angstrom^3

  Fractional coordinates:
                         L1                L2                L3
       atom_frac         0.10970840       -0.00935943        0.17024556  C
       atom_frac         0.41405931        0.27240825        0.33470383  C
       atom_frac         0.92521119        0.49819697        0.33765254  C
       atom_frac         0.60170410        0.24003367        0.16698122  C
       atom_frac         0.13199564        0.06899377        0.11704124  C
       atom_frac         0.40211077        0.34443434        0.39426288  C
       atom_frac         0.89623360        0.42654293        0.39112199  C
       atom_frac         0.63900260        0.16766835        0.11705246  C
       atom_frac         0.06516892        0.04260572        0.02306147  C
       atom_frac         0.47905929        0.30917508        0.48766118  C
       atom_frac         0.96319271        0.45583754        0.48658382  C
       atom_frac         0.57429839        0.19421296        0.02361404  C
       atom_frac         0.10101356        0.13075084        0.47626757  C
       atom_frac         0.43984561        0.37357744        0.03775428  C
       atom_frac         0.94590779        0.37579798        0.04369146  C
       atom_frac         0.57965665        0.12955892        0.45675730  C
       atom_frac         0.03668844        0.10536195        0.38728811  C
       atom_frac         0.50088363        0.34449411        0.12724246  C
       atom_frac         0.99825126        0.40813468        0.13087784  C
       atom_frac         0.50835477        0.16537963        0.36769438  C
       atom_frac         0.16527093        0.00593400        0.24358229  H
       atom_frac         0.36464569        0.30280051        0.26515749  H
       atom_frac         0.86570065        0.47381902        0.26613104  H
       atom_frac         0.65097027        0.21731061        0.23759931  H
       atom_frac         0.21836637        0.14650084        0.14818709  H
       atom_frac         0.32883512        0.42684596        0.36941423  H
       atom_frac         0.84377508        0.33890320        0.36695370  H
       atom_frac         0.72198326        0.08915320        0.14783289  H
       atom_frac         0.17943398        0.21117508        0.50900842  H
       atom_frac         0.36068743        0.45112795        0.00285737  H
       atom_frac         0.88839655        0.29249663        0.02174010  H
       atom_frac         0.63287009        0.04234781        0.47690584  H
       atom_frac         0.05842180        0.16982323        0.34718462  H
       atom_frac         0.46115828        0.39554545        0.16689004  H
       atom_frac         0.97434531        0.35071717        0.17341030  H
       atom_frac         0.52772432        0.11262963        0.32096402  H
       atom_frac         0.09173314       -0.00174795        0.67085747  C
       atom_frac         0.45259047        0.25177862        0.84424532  C
       atom_frac         0.92597448        0.49063047        0.83751183  C
       atom_frac         0.62441967        0.23816498        0.67104614  C
       atom_frac         0.12966463        0.07642449        0.62218351  C
       atom_frac         0.41333615        0.32575758        0.89400995  C
       atom_frac         0.89318227        0.42008670        0.89096586  C
       atom_frac         0.64504673        0.16998064        0.61303580  C
       atom_frac         0.07313377        0.05245194        0.53037109  C
       atom_frac         0.47390486        0.29861953        0.98479272  C
       atom_frac         0.97076970        0.44552020        0.98515745  C
       atom_frac         0.56888366        0.20085185        0.51967958  C
       atom_frac         0.09445619        0.11972138        0.97013336  C
       atom_frac         0.46195943        0.37671886        0.54972354  C
       atom_frac         0.95175500        0.37664983        0.54237703  C
       atom_frac         0.60750924        0.12019108        0.96948807  C
       atom_frac         0.02790046        0.09606566        0.87759008  C
       atom_frac         0.53225738        0.34619781        0.64106391  C
       atom_frac         1.01625943        0.40681229        0.63358975  C
       atom_frac         0.55561699        0.14800673        0.88190371  C
       atom_frac         0.14361232        0.01614352        0.74398658  H
       atom_frac         0.40894819        0.27900337        0.77615298  H
       atom_frac         0.86902779        0.46993098        0.76581428  H
       atom_frac         0.68541803        0.20813215        0.74234530  H
       atom_frac         0.21104991        0.15418350        0.65724742  H
       atom_frac         0.33209454        0.40315825        0.86414416  H
       atom_frac         0.80390551        0.34248485        0.86166820  H
       atom_frac         0.71671139        0.08593603        0.63615128  H
       atom_frac         0.18305660        0.19620118        1.00774266  H
       atom_frac         0.38333316        0.45741751        0.52813151  H
       atom_frac         0.88783012        0.29611532        0.51347496  H
       atom_frac         0.67681303        0.03995244        1.00371660  H
       atom_frac         0.06803516        0.14634848        0.83807296  H
       atom_frac         0.49575496        0.40239141        0.67979195  H
       atom_frac         0.99646124        0.34697559        0.67620918  H
       atom_frac         0.58733281        0.08753114        0.84387357  H
       atom_frac         0.09379975        0.51100589        0.16844365  C
       atom_frac         0.41304431        0.75741246        0.33929522  C
       atom_frac         0.93546604        1.00430135        0.34265144  C
       atom_frac         0.59397209        0.75107576        0.16201809  C
       atom_frac         0.13348610        0.58164394        0.11710576  C
       atom_frac         0.39233454        0.83232997        0.39513543  C
       atom_frac         0.89551996        0.92807239        0.39142430  C
       atom_frac         0.63204185        0.67263131        0.11399925  C
       atom_frac         0.07155750        0.55091919        0.02398627  C
       atom_frac         0.46688239        0.80249411        0.48984325  C
       atom_frac         0.96237642        0.95055556        0.48545316  C
       atom_frac         0.56563747        0.69580892        0.02018936  C
       atom_frac         0.08345984        0.63395286        0.46372295  C
       atom_frac         0.42747416        0.87720539        0.02890782  C
       atom_frac         0.93629495        0.86074916        0.03649140  C
       atom_frac         0.58792882        0.62488805        0.46576684  C
       atom_frac         0.02186914        0.60228788        0.37392636  C
       atom_frac         0.49384814        0.85353535        0.12114936  C
       atom_frac         1.00770868        0.88607744        0.12935860  C
       atom_frac         0.51857982        0.65514562        0.37523518  C
       atom_frac         0.15085251        0.53425337        0.24039090  H
       atom_frac         0.35826410        0.78177357        0.26706952  H
       atom_frac         0.88615117        0.98974747        0.27069718  H
       atom_frac         0.64449970        0.73186953        0.23415892  H
       atom_frac         0.21823416        0.65827020        0.14524260  H
       atom_frac         0.32803824        0.91754209        0.37007776  H
       atom_frac         0.81037594        0.84954545        0.35640809  H
       atom_frac         0.71911554        0.59705808        0.14884010  H
       atom_frac         0.14935812        0.71508586        0.49170407  H
       atom_frac         0.34469790        0.95361111       -0.00350407  H
       atom_frac         0.86667495        0.77972811        0.00972504  H
       atom_frac         0.67295362        0.54621296        0.49610819  H
       atom_frac         0.03756657        0.66530135        0.33142196  H
       atom_frac         0.45717688        0.91101852        0.16121638  H
       atom_frac         0.98600793        0.82122222        0.16925097  H
       atom_frac         0.54700888        0.60314226        0.33372257  H
       atom_frac         0.10281158        0.51644865        0.66770956  C
       atom_frac         0.43334984        0.74745034        0.83720322  C
       atom_frac         0.92127021        0.99558923        0.83340161  C
       atom_frac         0.60445248        0.73697306        0.67541870  C
       atom_frac         0.12815479        0.59147138        0.61342297  C
       atom_frac         0.38992917        0.82009259        0.88566324  C
       atom_frac         0.89123920        0.91973064        0.88528448  C
       atom_frac         0.64172741        0.67030219        0.62032269  C
       atom_frac         0.05341435        0.56237037        0.51949161  C
       atom_frac         0.45734426        0.79795791        0.97783478  C
       atom_frac         0.96446314        0.93795455        0.98092798  C
       atom_frac         0.56304418        0.69622138        0.52457749  C
       atom_frac         0.10122315        0.62326347        0.96625460  C
       atom_frac         0.44504834        0.87558923        0.54881872  C
       atom_frac         0.92104402        0.87455387        0.53580066  C
       atom_frac         0.60668226        0.62377778        0.96979669  C
       atom_frac         0.02492776        0.59497811        0.87525440  C
       atom_frac         0.50360728        0.84178451        0.63697473  C
       atom_frac         0.98719235        0.89809764        0.62734234  C
       atom_frac         0.54005979        0.64823906        0.87782154  C
       atom_frac         0.15584994        0.53882407        0.73901363  H
       atom_frac         0.38090574        0.76873064        0.76542851  H
       atom_frac         0.87286935        0.97941919        0.75884934  H
       atom_frac         0.64905613        0.70876936        0.74529119  H
       atom_frac         0.21166470        0.67018098        0.64185370  H
       atom_frac         0.30675626        0.89813131        0.85121728  H
       atom_frac         0.82004509        0.83980051        0.85175034  H
       atom_frac         0.72662874        0.59546801        0.64803307  H
       atom_frac         0.19134969        0.69945202        0.99675867  H
       atom_frac         0.37287330        0.95648148        0.52161897  H
       atom_frac         0.85227240        0.79249832        0.50578687  H
       atom_frac         0.69284231        0.54634848        0.99956429  H
       atom_frac         0.05142579        0.64580892        0.83232144  H
       atom_frac         0.46125790        0.89432660        0.67477972  H
       atom_frac         0.95658703        0.84078030        0.66681317  H
       atom_frac         0.57898215        0.58531902        0.84339662  H

 
  Finished reading input file 'geometry.in'.
 

 
  Consistency checks for stacksize environment parameter are next.
 
  | Maximum stacksize for task 0: unlimited
  | Maximum stacksize for task 1: unlimited
  | Maximum stacksize for task 2: unlimited
  | Maximum stacksize for task 3: unlimited
  | Maximum stacksize for task 4: unlimited
  | Maximum stacksize for task 5: unlimited
  | Maximum stacksize for task 6: unlimited
  | Maximum stacksize for task 7: unlimited
  | Maximum stacksize for task 8: unlimited
  | Maximum stacksize for task 9: unlimited
  | Maximum stacksize for task 10: unlimited
  | Maximum stacksize for task 11: unlimited
  | Maximum stacksize for task 12: unlimited
  | Maximum stacksize for task 13: unlimited
  | Maximum stacksize for task 14: unlimited
  | Maximum stacksize for task 15: unlimited
  | Maximum stacksize for task 16: unlimited
  | Maximum stacksize for task 17: unlimited
  | Current stacksize for task 0: unlimited
  | Current stacksize for task 1: unlimited
  | Current stacksize for task 2: unlimited
  | Current stacksize for task 3: unlimited
  | Current stacksize for task 4: unlimited
  | Current stacksize for task 5: unlimited
  | Current stacksize for task 6: unlimited
  | Current stacksize for task 7: unlimited
  | Current stacksize for task 8: unlimited
  | Current stacksize for task 9: unlimited
  | Current stacksize for task 10: unlimited
  | Current stacksize for task 11: unlimited
  | Current stacksize for task 12: unlimited
  | Current stacksize for task 13: unlimited
  | Current stacksize for task 14: unlimited
  | Current stacksize for task 15: unlimited
  | Current stacksize for task 16: unlimited
  | Current stacksize for task 17: unlimited
 
  Consistency checks for the contents of control.in are next.
 
  MPI_IN_PLACE appears to work with this MPI implementation.
  | Keeping use_mpi_in_place .true. (see manual).
  Explicit treatment of the Coulomb operator is needed, but the RI method is not specified.
  Coulomb operator: Defaulting to 'LVL fast' resolution of identity - RI_type = LVL_fast
  Species H: Using default value for prodbas_acc =   1.000000E-06.
  Species H: Using default value max_l_prodbas =     6.
  Species C: Using default value for prodbas_acc =   1.000000E-06.
  Species C: Using default value max_l_prodbas =     6.
  Target number of points in a grid batch is not set.  Since GPU acceleration is enabled, defaulting to  200
  Method for grid partitioning is not set. Defaulting to parallel hash+maxmin partitioning.
  Batch size limit is not set. Defaulting to    200
  By default, will store active basis functions for each batch.
  If in need of memory, prune_basis_once .false. can be used to disable this option.
  communication_type for Hartree potential was not specified.
  Defaulting to calc_hartree .
  Defaulting to Pulay charge density mixer.
  Pulay mixer: Number of relevant iterations not set.
  Defaulting to    8 iterations.
  Pulay mixer: Number of initial linear mixing iterations not set.
  Defaulting to    0 iterations.
  Work space size for distributed Hartree potential not set.
  Defaulting to   0.200000E+03 MB.
  Algorithm-dependent basis array size parameters:
  | n_max_pulay                         :        8
  Maximum number of self-consistency iterations not provided.
  Presetting  1000 iterations.
  Presetting      1001 iterations before the initial mixing cycle
  is restarted anyway using the sc_init_iter criterion / keyword.
  Presetting a factor      1.000 between actual scf density residual
  and density convergence criterion sc_accuracy_rho below which sc_init_iter
  takes no effect.
 * No s.c.f. convergence criteria (sc_accuracy_*) were provided in control.in.
 * The run will proceed with a reasonable default guess, but please check whether.
 * the s.c.f. cycles seem to take too much or too little time.
  Geometry relaxation not requested: no relaxation will be performed.
 * Notice: The s.c.f. convergence criterion sc_accuracy_rho was not provided.
 * We used to stop in this case, and ask the user to provide reasonable
 * scf convergence criteria. However, this led some users to employ criteria
 * that led to extremely long run times, e.g., for simple relaxation.
 * We now preset a default value for sc_accuracy_rho if it is not set.
 * You may still wish to check if this setting is too tight or too loose for your needs.
 * Based on n_atoms and forces and force-correction status, FHI-aims chose sc_accuracy_rho =  0.391918E-04 .
  No accuracy limit for integral partition fn. given. Defaulting to  0.1000E-14.
  No threshold value for u(r) in integrations given. Defaulting to  0.1000E-05.
  No occupation type (smearing scheme) given. Defaulting to Gaussian broadening, width =  0.1000E-01 eV.
  The width will be adjusted in iteration number     2 of the first full s.c.f. cycle only.
  S.C.F. convergence parameters will be adjusted in iteration number     2 of the first full s.c.f. cycle only.
  No accuracy for occupation numbers given. Defaulting to  0.1000E-12.
  No threshold value for occupation numbers given. Defaulting to  0.0000E+00.
  No accuracy for fermi level given. Defaulting to  0.1000E-19.
  Maximum # of iterations to find E_F not set. Defaulting to  200.
  Preferred method for the eigenvalue solver ('KS_method') not specified in 'control.in'.
  Calling BLACS routine to test compilation state
  Since ScaLAPACK support is enabled, defaulting to ELPA (via ELSI).
  Will not use alltoall communication since running on < 1024 CPUs.
  Threshold for basis singularities not set.
  Default threshold for basis singularities:  0.1000E-04
  partition_type (choice of integration weights) for integrals was not specified.
  | Using a version of the partition function of Stratmann and coworkers ('stratmann_sparse').
  | At each grid point, the set of atoms used to build the partition table is smoothly restricted to
  | only those atoms whose free-atom density would be non-zero at that grid point.
  Partitioning for Hartree potential was not defined. Using partition_type for integrals.
  | Adjusted default value of keyword multip_moments_threshold to:       0.10000000E-11
  | This value may affect high angular momentum components of the Hartree potential in periodic systems.
  Angular momentum expansion for Kerker preconditioner not set explicitly.
  | Using default value of   0
  No explicit requirement for turning off preconditioner.
  | By default, it will be turned off when the charge convergence reaches
  | sc_accuracy_rho  =   0.391918E-04
  No special mixing parameter while Kerker preconditioner is on.
  Using default: charge_mix_param =     0.7500.
  Threshold for auxiliary basis singularities not set.
  Default threshold for auxiliary basis singularities:  0.1000E-04
  No q(lm)/r^(l+1) cutoff set for long-range Hartree potential.
  | Using default value of  0.100000E-09 .
  | Verify using the multipole_threshold keyword.
  Defaulting to new monopole extrapolation.
  Density update method: automatic selection selected.
  Using density matrix based charge density update.
  Using density matrix based charge density update.
  Using packed matrix style: index .
  Defaulting to use time-reversal symmetry for k-point grid.
  Charge integration errors on the 3D integration grid will be compensated
  by explicit normalization and distribution of residual charges.
  Use the "compensate_multipole_errors" flag to change this behaviour.
  Default to 1D ("use_logsbt") integrations for auxiliary 2-center integrals.
  Default onset of logarithmic r-grid for SBT is -38.000000000000
  Default onset of logarithmic k-grid for SBT is -25.000000000000
  Default range of logarithmic r- and k-grid for SBT is  45.000000000000
  Default number of logarithmic r- and k-grid for SBT is   4096
  Default of use_2d_corr is to use the efficient 2D distribution where possible
 
  Consistency checks for the contents of geometry.in are next.
 

  Range separation radius for Ewald summation (hartree_convergence_parameter):      2.91768261 bohr.
  Number of empty states per atom not set in control.in .
  | Since you are using a method that relies on the unoccupied spectrum
  | (MP2,GW,RPA et al.), will use the full Hamiltonian size (see below)
  | as the max. possible number of states (occupied plus empty).

  Structure-dependent array size parameters: 
  | Maximum number of distinct radial functions  :        9
  | Maximum number of basis functions            :     1440
  | Number of Kohn-Sham states (occupied + empty):     1440
------------------------------------------------------------
CUDA runtime version: 11060
CUDA driver version: 11060
  Initializing GPUs...

  Number of GPUs available to MPI task         0 :   1
  Number of GPUs available to MPI task         1 :   1
  Number of GPUs available to MPI task         2 :   1
  Number of GPUs available to MPI task         3 :   1
  Number of GPUs available to MPI task         4 :   1
  Number of GPUs available to MPI task         5 :   1
  Number of GPUs available to MPI task         6 :   1
  Number of GPUs available to MPI task         7 :   1
  Number of GPUs available to MPI task         8 :   1
  Number of GPUs available to MPI task         9 :   1
  Number of GPUs available to MPI task        10 :   1
  Number of GPUs available to MPI task        11 :   1
  Number of GPUs available to MPI task        12 :   1
  Number of GPUs available to MPI task        13 :   1
  Number of GPUs available to MPI task        14 :   1
  Number of GPUs available to MPI task        15 :   1
  Number of GPUs available to MPI task        16 :   1
  Number of GPUs available to MPI task        17 :   1

  | MPI task         0, GPU activated = T, Device Name = NVIDIA A100-SXM4-80GB
  | MPI task         1, GPU activated = T, Device Name = NVIDIA A100-SXM4-80GB
  | MPI task         2, GPU activated = T, Device Name = NVIDIA A100-SXM4-80GB
  | MPI task         3, GPU activated = T, Device Name = NVIDIA A100-SXM4-80GB
  | MPI task         4, GPU activated = T, Device Name = NVIDIA A100-SXM4-80GB
  | MPI task         5, GPU activated = T, Device Name = NVIDIA A100-SXM4-80GB
  | MPI task         6, GPU activated = T, Device Name = NVIDIA A100-SXM4-80GB
  | MPI task         7, GPU activated = T, Device Name = NVIDIA A100-SXM4-80GB
  | MPI task         8, GPU activated = T, Device Name = NVIDIA A100-SXM4-80GB
  | MPI task         9, GPU activated = T, Device Name = NVIDIA A100-SXM4-80GB
  | MPI task        10, GPU activated = T, Device Name = NVIDIA A100-SXM4-80GB
  | MPI task        11, GPU activated = T, Device Name = NVIDIA A100-SXM4-80GB
  | MPI task        12, GPU activated = T, Device Name = NVIDIA A100-SXM4-80GB
  | MPI task        13, GPU activated = T, Device Name = NVIDIA A100-SXM4-80GB
  | MPI task        14, GPU activated = T, Device Name = NVIDIA A100-SXM4-80GB
  | MPI task        15, GPU activated = T, Device Name = NVIDIA A100-SXM4-80GB
  | MPI task        16, GPU activated = T, Device Name = NVIDIA A100-SXM4-80GB
  | MPI task        17, GPU activated = T, Device Name = NVIDIA A100-SXM4-80GB

------------------------------------------------------------
          Preparing all fixed parts of the calculation.
------------------------------------------------------------
  Determining machine precision:
    2.225073858507201E-308
  Setting up grids for atomic and cluster calculations.

  Creating wave function, potential, and density for free atoms.
  Runtime choices for atomic solver:
  | atomic solver xc        : PW-LDA
  | compute density gradient: 0
  | compute kinetic density : F

  Species: H

  List of occupied orbitals and eigenvalues:
    n    l              occ      energy [Ha]    energy [eV]
    1    0           1.0000        -0.232375        -6.3233


  Species: C

  List of occupied orbitals and eigenvalues:
    n    l              occ      energy [Ha]    energy [eV]
    1    0           2.0000        -9.944615      -270.6068
    2    0           2.0000        -0.498807       -13.5732
    2    1           2.0000        -0.196968        -5.3598


  Adding cutoff potential to free-atom effective potential.
  Creating fixed part of basis set: Ionic, confined, hydrogenic.
 
  H                    hydrogenic:
 
  List of hydrogenic basis orbitals: 
    n    l      effective z      eigenvalue [eV]  inner max. [A]     outer max. [A]     outer radius [A]   
    2    0         2.100000       -14.9728           0.193243           1.317208           4.583499
    2    1         3.500000       -41.6669           0.602369           0.602369           3.723403
 
 
  C                    hydrogenic:
 
  List of hydrogenic basis orbitals: 
    n    l      effective z      eigenvalue [eV]  inner max. [A]     outer max. [A]     outer radius [A]   
    2    1         1.700000        -9.7616           1.230570           1.230570           4.607917
    3    2         6.000000       -54.4224           0.792453           0.792453           3.883070
    2    0         4.900000       -81.6679           0.082559           0.562749           3.078220
 
  Creating atomic-like basis functions for current effective potential.

  Species H                   :

  List of atomic basis orbitals and eigenvalues:
    n    l      energy [Ha]    energy [eV]    outer radius [A]
    1    0        -0.232375        -6.3233       4.527807


  Species C                   :

  List of atomic basis orbitals and eigenvalues:
    n    l      energy [Ha]    energy [eV]    outer radius [A]
    1    0        -9.944615      -270.6068       1.934409
    2    0        -0.498807       -13.5732       4.496620
    2    1        -0.196968        -5.3598       4.551928

  Assembling full basis from fixed parts.
  | Species H :   atomic orbital   1 s accepted.
  | Species H :    hydro orbital   2 s accepted.
  | Species H :    hydro orbital   2 p accepted.
  | Species C :   atomic orbital   1 s accepted.
  | Species C :    hydro orbital   2 s accepted.
  | Species C :   atomic orbital   2 s accepted.
  | Species C :   atomic orbital   2 p accepted.
  | Species C :    hydro orbital   2 p accepted.
  | Species C :    hydro orbital   3 d accepted.
 
  Basis size parameters after reduction:
  | Total number of radial functions:        9
  | Total number of basis functions :     1440
 
  Per-task memory consumption for arrays in subroutine allocate_ext:
  |           2.242384MB.
  Testing on-site integration grid accuracy.
  |  Species  Function  <phi|h_atom|phi> (log., in eV)  <phi|h_atom|phi> (rad., in eV)
           1        1                 -6.3245358373                 -6.3232436907
           1        2                 14.1326137532                 14.1384481100
           1        3                 25.3627025200                 25.3628451197
           2        4               -270.6067544938               -270.6067222788
           2        5                -10.5634280949                -10.5635685736
           2        6                 16.2089822398                 16.2052121796
           2        7                 -5.3613872565                 -5.3627872378
           2        8                  8.5292058327                  8.5051734780
           2        9                 27.4884461005                 27.4884542459

  Preparing densities etc. for the partition functions (integrals / Hartree potential).

  Preparations completed.
  max(cpu_time)          :      0.075 s.
  Wall clock time (cpu1) :      0.069 s.
------------------------------------------------------------

  Initializing index lists of integration centers etc. from given atomic structure:
  Mapping all atomic coordinates to central unit cell.

  Initializing the k-points
  Using symmetry for reducing the k-points
  | k-points reduced from:        2 to        2
  | Number of k-points                             :         2
  | Consuming          0 KiB for k_phase_exx.
  The eigenvectors in the calculations are REAL.
  | Number of basis functions in the Hamiltonian integrals :      8012
  | Number of basis functions in a single unit cell        :      1440
  | Number of centers in hartree potential         :      3333
  | Number of centers in hartree multipole         :      2560
  | Number of centers in electron density summation:      2000
  | Number of centers in basis integrals           :      2121
  | Number of centers in integrals                 :       973
  | Number of centers in hamiltonian               :      2009
  | Consuming          1 KiB for k_phase.
  | Number of super-cells (origin) [n_cells]                     :         175
  | Number of super-cells (after PM_index) [n_cells]             :          40
  | Number of super-cells in hamiltonian [n_cells_in_hamiltonian]:          40
  | Size of matrix packed + index [n_hamiltonian_matrix_size] :     1932477
  | Size of matrix packed + index (no_symmetry):     3862137

------------------------------------------------------------
          Begin self-consistency loop: Initialization.

          Date     :  20230120, Time     :  132208.273
------------------------------------------------------------
  | Estimated reciprocal-space cutoff momentum G_max:         3.24344278 bohr^-1 .
  | Reciprocal lattice points for long-range Hartree potential:    5310
  Using simple linear distribution as default method for k-point parallelism.
  * Using 18 tasks for Scalapack Eigenvalue solver.
  Detailed listing of tasks and assigned k-points:
   Task     0 k-point     1 on adag004
   Task     1 k-point     1 on adag004
   Task     2 k-point     1 on adag004
   Task     3 k-point     1 on adag004
   Task     4 k-point     1 on adag004
   Task     5 k-point     1 on adag004
   Task     6 k-point     1 on adag004
   Task     7 k-point     1 on adag004
   Task     8 k-point     1 on adag004
   Task     9 k-point     2 on adag004
   Task    10 k-point     2 on adag004
   Task    11 k-point     2 on adag004
   Task    12 k-point     2 on adag004
   Task    13 k-point     2 on adag004
   Task    14 k-point     2 on adag004
   Task    15 k-point     2 on adag004
   Task    16 k-point     2 on adag004
   Task    17 k-point     2 on adag004
  K-point:     1 Tasks:     9 split into      3 X      3 BLACS grid
  Calculating block size based on n_basis =         1440  max_nprow =            3  max_npcol =            3
  ScaLAPACK block size set to:           16
  Allocating        1.758 MB for ovlp
  Allocating        1.758 MB for ham
  Allocating        1.758 MB for eigenvec
  Required Scalapack workspace - INTEGER:            1  REAL:             1
  Partitioning the integration grid into batches with parallel hashing+maxmin method.
  | Number of batches:     5490
  | Maximal batch size:     200
  | Minimal batch size:      99
  | Average batch size:     139.133
  | Standard deviation of batch sizes:      32.031

  Integration load balanced across    18 MPI tasks.
  Work distribution over tasks is as follows:
  Task     0 has      42435 integration points.
  Task     1 has      42405 integration points.
  Task     2 has      42422 integration points.
  Task     3 has      42390 integration points.
  Task     4 has      42439 integration points.
  Task     5 has      42444 integration points.
  Task     6 has      42421 integration points.
  Task     7 has      42444 integration points.
  Task     8 has      42539 integration points.
  Task     9 has      42452 integration points.
  Task    10 has      42357 integration points.
  Task    11 has      42525 integration points.
  Task    12 has      42435 integration points.
  Task    13 has      42508 integration points.
  Task    14 has      42351 integration points.
  Task    15 has      42391 integration points.
  Task    16 has      42457 integration points.
  Task    17 has      42425 integration points.
  Initializing partition tables, free-atom densities, potentials, etc. across the integration grid (initialize_grid_storage).
  | initialize_grid_storage: Actual outermost partition radius vs. multipole_radius_free
  | (-- VB: in principle, multipole_radius_free should be larger, hence this output)
  | Species        1: Confinement radius =              4.999999999999999 AA, multipole_radius_free =              5.054417573612229 AA.
  | Species        1: outer_partition_radius set to              5.054417573612229 AA .
  | Species        2: Confinement radius =              4.999999999999999 AA, multipole_radius_free =              5.019602836301480 AA.
  | Species        2: outer_partition_radius set to              5.019602836301480 AA .
  | The sparse table of interatomic distances needs       7636.50 kbyte instead of     35989.13 kbyte of memory.
  | Net number of integration points:   763840
  | of which are non-zero points    :   605405
  | Numerical average free-atom electrostatic potential    :     -8.61468401 eV
  Renormalizing the initial density to the exact electron count on the 3D integration grid.
  | Initial density: Formal number of electrons (from input files) :     544.0000000000
  | Integrated number of electrons on 3D grid     :     543.9969711675
  | Charge integration error                      :      -0.0030288325
  | Normalization factor for density and gradient :       1.0000055677
  Renormalizing the free-atom superposition density to the exact electron count on the 3D integration grid.
  | Formal number of electrons (from input files) :     544.0000000000
  | Integrated number of electrons on 3D grid     :     543.9969711675
  | Charge integration error                      :      -0.0030288325
  | Normalization factor for density and gradient :       1.0000055677
  Obtaining max. number of non-zero basis functions in each batch (get_n_compute_maxes).
  | Maximal number of non-zero basis functions:      573 in task     0
  | Maximal number of non-zero basis functions:      546 in task     1
  | Maximal number of non-zero basis functions:      534 in task     2
  | Maximal number of non-zero basis functions:      534 in task     3
  | Maximal number of non-zero basis functions:      549 in task     4
  | Maximal number of non-zero basis functions:      540 in task     5
  | Maximal number of non-zero basis functions:      548 in task     6
  | Maximal number of non-zero basis functions:      544 in task     7
  | Maximal number of non-zero basis functions:      546 in task     8
  | Maximal number of non-zero basis functions:      558 in task     9
  | Maximal number of non-zero basis functions:      529 in task    10
  | Maximal number of non-zero basis functions:      545 in task    11
  | Maximal number of non-zero basis functions:      537 in task    12
  | Maximal number of non-zero basis functions:      545 in task    13
  | Maximal number of non-zero basis functions:      557 in task    14
  | Maximal number of non-zero basis functions:      546 in task    15
  | Maximal number of non-zero basis functions:      558 in task    16
  | Maximal number of non-zero basis functions:      551 in task    17
  Integrating Hamiltonian matrix: batch-based integration.
  GPU acceleration will be used when integrating the Hamiltonian matrix.
  Reporting GPU memory usage by myid 0.  Note that it is likely not the only MPI task binding to its GPU!
  Allocating        2.627 MB on GPU for hamiltonian_shell
  Allocating        0.917 MB on GPU for wave
  Allocating        0.002 MB on GPU for partition
  Allocating        0.917 MB on GPU for h_times_psi
  Time summed over all CPUs for integration: real work       24.680 s, elapsed       25.583 s
  Deallocating memory used on GPU for Hamiltonian integration.
  Integrating overlap matrix.
  Time summed over all CPUs for integration: real work       20.624 s, elapsed       21.045 s
  Deallocating overlap matrix.

  Updating Kohn-Sham eigenvalues and eigenvectors using ELSI and the ELPA eigensolver.
  Singularity check in k-point 1 (analysis for other k-points may follow below):
  Overlap matrix is not singular
  | Lowest and highest eigenvalues :  0.7893E-03,  0.8232E+01
  Finished singularity check of overlap matrix
  | Time :     0.103 s
  Starting ELPA eigensolver
  Finished Cholesky decomposition
  | Time :     0.017 s
  Finished transformation to standard eigenproblem
  | Time :     0.025 s
  Finished solving standard eigenproblem
  | Time :     0.216 s
  Finished back-transformation of eigenvectors
  | Time :     0.017 s

  Obtaining occupation numbers and electronic chemical potential using ELSI.
  | Note that, for insulating systems, the printed 'chemical potential' value is not uniquely defined.
  | It can be anywhere in the energy gap, as long as it correctly separates occupied and unoccupied states.
  | In systems with a gap, the physically relevant chemical potential is the VBM or HOMO.

  | Chemical potential (Fermi level):    -7.69981129 eV
  Writing Kohn-Sham eigenvalues.
  K-point:       1 at    0.000000    0.000000    0.000000 (in units of recip. lattice)

  State    Occupation    Eigenvalue [Ha]    Eigenvalue [eV]
      1       2.00000         -10.070766         -274.03949
      2       2.00000         -10.069312         -273.99992
      3       2.00000         -10.068986         -273.99106
      4       2.00000         -10.068871         -273.98792
      5       2.00000         -10.068693         -273.98307
      6       2.00000         -10.068622         -273.98114
      7       2.00000         -10.068147         -273.96821
      8       2.00000         -10.068116         -273.96738
      9       2.00000         -10.067708         -273.95626
     10       2.00000         -10.067572         -273.95256
     11       2.00000         -10.067069         -273.93890
     12       2.00000         -10.066998         -273.93695
     13       2.00000         -10.066949         -273.93562
     14       2.00000         -10.066912         -273.93461
     15       2.00000         -10.066152         -273.91392
     16       2.00000         -10.066017         -273.91026
     17       2.00000         -10.065995         -273.90967
     18       2.00000         -10.065903         -273.90717
     19       2.00000         -10.065846         -273.90560
     20       2.00000         -10.065844         -273.90554
     21       2.00000         -10.065480         -273.89566
     22       2.00000         -10.065123         -273.88595
     23       2.00000         -10.064945         -273.88110
     24       2.00000         -10.064919         -273.88038
     25       2.00000         -10.064792         -273.87692
     26       2.00000         -10.064264         -273.86256
     27       2.00000         -10.064235         -273.86178
     28       2.00000         -10.064197         -273.86073
     29       2.00000         -10.064122         -273.85869
     30       2.00000         -10.064072         -273.85733
     31       2.00000         -10.063978         -273.85476
     32       2.00000         -10.063897         -273.85257
     33       2.00000         -10.063545         -273.84300
     34       2.00000         -10.063466         -273.84085
     35       2.00000         -10.063351         -273.83772
     36       2.00000         -10.063334         -273.83726
     37       2.00000         -10.063146         -273.83214
     38       2.00000         -10.063126         -273.83158
     39       2.00000         -10.062810         -273.82300
     40       2.00000         -10.062773         -273.82198
     41       2.00000         -10.062740         -273.82108
     42       2.00000         -10.062718         -273.82049
     43       2.00000         -10.062621         -273.81786
     44       2.00000         -10.062462         -273.81352
     45       2.00000         -10.062383         -273.81137
     46       2.00000         -10.062327         -273.80986
     47       2.00000         -10.062101         -273.80369
     48       2.00000         -10.062081         -273.80316
     49       2.00000         -10.062047         -273.80222
     50       2.00000         -10.061949         -273.79956
     51       2.00000         -10.061897         -273.79814
     52       2.00000         -10.061452         -273.78604
     53       2.00000         -10.061302         -273.78195
     54       2.00000         -10.061036         -273.77472
     55       2.00000         -10.060480         -273.75960
     56       2.00000         -10.060478         -273.75954
     57       2.00000         -10.060433         -273.75832
     58       2.00000         -10.060391         -273.75718
     59       2.00000         -10.060367         -273.75651
     60       2.00000         -10.060355         -273.75620
     61       2.00000         -10.060277         -273.75405
     62       2.00000         -10.059282         -273.72700
     63       2.00000         -10.059170         -273.72393
     64       2.00000         -10.058774         -273.71316
     65       2.00000         -10.058753         -273.71260
     66       2.00000         -10.058703         -273.71124
     67       2.00000         -10.058618         -273.70893
     68       2.00000         -10.058615         -273.70885
     69       2.00000         -10.058314         -273.70066
     70       2.00000         -10.057971         -273.69131
     71       2.00000         -10.057851         -273.68805
     72       2.00000         -10.057535         -273.67944
[...]
  |    H      2     3.678162 A  1.011968E+04 A            0.556529 a.u.
  |    H      1     3.958095 A  1.721251E+06 A            0.841931 a.u.
  |    H      0     4.527807 A  3.866455E+12 A            0.581436 a.u.
  |    C      0     2.562483 A      2.562483 A        6.563029E-17 a.u.
  |    C      0     2.967371 A      2.967371 A        1.352164E-16 a.u.
  |    C      0     3.003870 A      3.003870 A        2.312640E-17 a.u.
  |    C      1     3.272245 A      3.272245 A       -3.835259E-17 a.u.
  |    C      0     3.312494 A      3.312494 A       -2.710381E-16 a.u.
  |    C      3     4.077671 A      4.077671 A       -1.683752E-15 a.u.
  |    C      3     4.077671 A      4.077671 A        1.412852E-15 a.u.
  |    C      1     4.496620 A      4.496620 A       -3.011059E-16 a.u.
  |    C      0     4.496620 A      4.551928 A        2.873903E-17 a.u.
  |    C      2     4.551928 A      4.551928 A       -4.610785E-16 a.u.
  |    C      2     4.551928 A      4.551928 A        7.440584E-16 a.u.
  |    C      2     4.551928 A      4.551928 A       -7.110458E-16 a.u.
  |    C      2     4.551928 A      4.551928 A       -1.935424E-16 a.u.
  |    C      0     4.551928 A      4.607917 A        2.067142E-16 a.u.
  |    C      0     4.551928 A      4.607917 A       -1.109786E-16 a.u.
  |    C      1     4.551928 A      4.607917 A       -9.951742E-17 a.u.
  |    C      1     4.551928 A      4.607917 A        1.937809E-16 a.u.
  |    C      1     4.607917 A      4.607917 A       -2.813308E-16 a.u.
  |    C      1     4.607917 A      4.607917 A       -7.330363E-17 a.u.
  |    C      2     4.607917 A      4.607917 A        1.318462E-15 a.u.
  |    C      2     4.607917 A      4.607917 A       -1.318397E-15 a.u.
  |    C      0     4.607917 A      4.664595 A        3.157826E-16 a.u.
  |    C      1     4.607917 A      4.664595 A        7.356967E-16 a.u.
  |    C      4     3.835889 A  2.962973E+02 A            4.379483 a.u.
  |    C      3     4.127827 A  1.725964E+03 A            9.005588 a.u.
  |    C      2     4.607917 A  2.608475E+04 A            9.531178 a.u.
  |    C      1     4.607917 A  2.736013E+06 A            2.127278 a.u.
  |    C      0     4.607917 A  4.399765E+12 A            0.661635 a.u.

  | Shrink_full_auxil_basis : there are       36  radial auxiliary wave functions
                            accepted and       7 rejected.
  | Shrink_full_auxil_basis : there are totally                8992 partial auxiliary wave functions.
 
  | Maximal number of product basis functions per thread :   512   512
 
  | Minimal total memory requirement for three-center overlap :      72.476 Gbs
  | Number of local auxiliary basis functions on task:      0   512
  | Number of local auxiliary basis functions on task:      1   512
  | Number of local auxiliary basis functions on task:      2   512
  | Number of local auxiliary basis functions on task:      3   512
  | Number of local auxiliary basis functions on task:      4   496
  | Number of local auxiliary basis functions on task:      5   496
  | Number of local auxiliary basis functions on task:      6   496
  | Number of local auxiliary basis functions on task:      7   496
  | Number of local auxiliary basis functions on task:      8   496
  | Number of local auxiliary basis functions on task:      9   496
  | Number of local auxiliary basis functions on task:     10   496
  | Number of local auxiliary basis functions on task:     11   496
  | Number of local auxiliary basis functions on task:     12   496
  | Number of local auxiliary basis functions on task:     13   496
  | Number of local auxiliary basis functions on task:     14   496
  | Number of local auxiliary basis functions on task:     15   496
  | Number of local auxiliary basis functions on task:     16   496
  | Number of local auxiliary basis functions on task:     17   496
  | 2D aux task distribution:      3 X      6
  | 2D block size (nb_aux_2d):     64
 
  Basis pair condensation :   1037520  -->     549765
 
 --------------------------------------------
  Constructing auxiliary basis (full product) ...
 
  Product basis:
  | charge radius: extent of product basis function
  | field radius: extent of its Coulomb potential
  | Species   l  charge radius    field radius  multipol momen
  |    H      1     3.910002 A      3.910002 A       -2.487223E-16 a.u.
  |    H      1     3.958095 A      3.958095 A       -2.441841E-16 a.u.
  |    H      0     4.527807 A      4.527807 A        1.268855E-16 a.u.
  |    H      0     4.527807 A      4.583499 A       -4.900954E-17 a.u.
  |    H      0     4.527807 A      4.583499 A        4.713786E-16 a.u.
  |    H      2     3.678162 A  1.011968E+04 A            0.556529 a.u.
  |    H      1     3.958095 A  1.721251E+06 A            0.841931 a.u.
  |    H      0     4.527807 A  3.866455E+12 A            0.581436 a.u.
  |    C      0     2.562483 A      2.562483 A        6.563029E-17 a.u.
  |    C      0     2.967371 A      2.967371 A        1.352164E-16 a.u.
  |    C      0     3.003870 A      3.003870 A        2.312640E-17 a.u.
  |    C      1     3.272245 A      3.272245 A       -3.835259E-17 a.u.
  |    C      0     3.312494 A      3.312494 A       -2.710381E-16 a.u.
  |    C      3     4.077671 A      4.077671 A       -1.683752E-15 a.u.
  |    C      3     4.077671 A      4.077671 A        1.412852E-15 a.u.
  |    C      1     4.496620 A      4.496620 A       -3.011059E-16 a.u.
  |    C      0     4.496620 A      4.551928 A        2.873903E-17 a.u.
  |    C      2     4.551928 A      4.551928 A       -4.610785E-16 a.u.
  |    C      2     4.551928 A      4.551928 A        7.440584E-16 a.u.
  |    C      2     4.551928 A      4.551928 A       -7.110458E-16 a.u.
  |    C      2     4.551928 A      4.551928 A       -1.935424E-16 a.u.
  |    C      0     4.551928 A      4.607917 A        2.067142E-16 a.u.
  |    C      0     4.551928 A      4.607917 A       -1.109786E-16 a.u.
  |    C      1     4.551928 A      4.607917 A       -9.951742E-17 a.u.
  |    C      1     4.551928 A      4.607917 A        1.937809E-16 a.u.
  |    C      1     4.607917 A      4.607917 A       -2.813308E-16 a.u.
  |    C      1     4.607917 A      4.607917 A       -7.330363E-17 a.u.
  |    C      2     4.607917 A      4.607917 A        1.318462E-15 a.u.
  |    C      2     4.607917 A      4.607917 A       -1.318397E-15 a.u.
  |    C      0     4.607917 A      4.664595 A        3.157826E-16 a.u.
  |    C      1     4.607917 A      4.664595 A        7.356967E-16 a.u.
  |    C      4     3.835889 A  2.962973E+02 A            4.379483 a.u.
  |    C      3     4.127827 A  1.725964E+03 A            9.005588 a.u.
  |    C      2     4.607917 A  2.608475E+04 A            9.531178 a.u.
  |    C      1     4.607917 A  2.736013E+06 A            2.127278 a.u.
  |    C      0     4.607917 A  4.399765E+12 A            0.661635 a.u.

  | Shrink_full_auxil_basis : there are       36  radial auxiliary wave functions
                            accepted and       7 rejected.
  | Shrink_full_auxil_basis : there are totally                8992 partial auxiliary wave functions.
 
  | Maximal number of product basis functions per thread :   512   512
 
  | Minimal total memory requirement for three-center overlap :      72.476 Gbs
  | Number of local auxiliary basis functions on task:      0   512
  | Number of local auxiliary basis functions on task:      1   512
  | Number of local auxiliary basis functions on task:      2   512
  | Number of local auxiliary basis functions on task:      3   512
  | Number of local auxiliary basis functions on task:      4   496
  | Number of local auxiliary basis functions on task:      5   496
  | Number of local auxiliary basis functions on task:      6   496
  | Number of local auxiliary basis functions on task:      7   496
  | Number of local auxiliary basis functions on task:      8   496
  | Number of local auxiliary basis functions on task:      9   496
  | Number of local auxiliary basis functions on task:     10   496
  | Number of local auxiliary basis functions on task:     11   496
  | Number of local auxiliary basis functions on task:     12   496
  | Number of local auxiliary basis functions on task:     13   496
  | Number of local auxiliary basis functions on task:     14   496
  | Number of local auxiliary basis functions on task:     15   496
  | Number of local auxiliary basis functions on task:     16   496
  | Number of local auxiliary basis functions on task:     17   496
  | 2D aux task distribution:      3 X      6
  | 2D block size (nb_aux_2d):     64
 
  Basis pair condensation :   1037520  -->     549765
  Allocating        0.069 MB for t_coeff
  Allocating        0.034 MB for basbas_idx
  Allocating        0.069 MB for wave
  Allocating        0.069 MB for total_wave
  Allocating        0.206 MB for wave_gradient
  Allocating        0.206 MB for total_wave_grad
 HERE1
 HERE2
  Deallocating        0.069 MB for t_coeff
  Deallocating        0.034 MB for basbas_idx
  Deallocating        0.069 MB for wave
  Deallocating        0.206 MB for wave_gradient
  Deallocating        0.206 MB for total_wave_grad
dP_dE (Bohr^3) at every cycle:--->
 (994.929259582380,0.000000000000000E+000) (-0.355906180136971,0.000000000000000E+000) (-442.879558993204,0.000000000000000E+000)
 (-0.387994964553335,0.000000000000000E+000) (1352.11440064898,0.000000000000000E+000) (-8.57616969239183,0.000000000000000E+000)
 (-443.104043800952,0.000000000000000E+000) (-8.57873962074274,0.000000000000000E+000) (1694.82148760270,0.000000000000000E+000)
DFPT polarizability (Bohr^3)        xx        yy        zz        xy        xz        yz
  | Polarizability:--->                       994.929259582                 1352.114400649                 1694.821487603                   -0.355906180                 -442.879558993                   -8.576169692

DFPT for dielectric_constant:--->  # PARSE DFPT_dielectric_tensor
               2.350097782980772            -0.000482957094813            -0.600978114740747
              -0.000526500890798             2.834790400494211            -0.011637679339157
              -0.601282735836504            -0.011641166677112             3.299836607399643

                                               :  max(cpu_time)    wall_clock(cpu1)
  | Time for  dielectric calculation            :        0.000 s           0.001 s
===========================================================================

------------------------------------------------------------------------------
  Final output of selected total energy values:

  The following output summarizes some interesting total energy values
  at the end of a run (AFTER all relaxation, molecular dynamics, etc.).

  | Total energy of the DFT / Hartree-Fock s.c.f. calculation      :         -83267.478504567 eV
  | Final zero-broadening corrected energy (caution - metals only) :         -83267.478504567 eV
  | For reference only, the value of 1 Hartree used in FHI-aims is :             27.211384500 eV
  | For reference only, the overall average (free atom contribution
  | + realspace contribution) of the electrostatic potential after
  | s.c.f. convergence is                                          :             -7.701506235 eV

  Before relying on these values, please be sure to understand exactly which
  total energy value is referred to by a given number. Different objects may
  all carry the same name 'total energy'. Definitions:

  Total energy of the DFT / Hartree-Fock s.c.f. calculation:
  | Note that this energy does not include ANY quantities calculated after the
  | s.c.f. cycle, in particular not ANY RPA, MP2, etc. many-body perturbation terms.

  Final zero-broadening corrected energy:
  | For metallic systems only, a broadening of the occupation numbers at the Fermi
  | level can be extrapolated back to zero broadening by an electron-gas inspired
  | formula. For all systems that are not real metals, this value can be
  | meaningless and should be avoided.

------------------------------------------------------------------------------
  Methods described in the following list of references were used in this FHI-aims run.
  If you publish the results, please make sure to cite these reference if they apply.
  FHI-aims is an academic code, and for our developers (often, Ph.D. students
  and postdocs), scientific credit in the community is essential.
  Thank you for helping us!

  For any use of FHI-aims, please cite:

    Volker Blum, Ralf Gehrke, Felix Hanke, Paula Havu, Ville Havu,
    Xinguo Ren, Karsten Reuter, and Matthias Scheffler
    'Ab initio molecular simulations with numeric atom-centered orbitals'
    Computer Physics Communications 180, 2175-2196 (2009)
    http://doi.org/10.1016/j.cpc.2009.06.022


  For Hartree-Fock, hybrid functionals, or many-body perturbation theory used in your run, please cite:

    Xinguo Ren, Patrick Rinke, Volker Blum, Juergen Wieferink, Alex Tkatchenko,
    Andrea Sanfilippo, Karsten Reuter, and Matthias Scheffler,
    'Resolution-of-identity approach to Hartree-Fock, hybrid density functionals,
    RPA, MP2, and GW with numeric atom-centered orbital basis functions'
    New Journal of Physics 14, 053020 (2012).
    http://doi.org/10.1088/1367-2630/14/5/053020


  The provided symmetry information was generated with SPGlib:

    Atsushi Togo, Yusuke Seto, Dimitar Pashov
    SPGlib 1.7.3 obtained from http://spglib.sourceforge.net
    Copyright (C) 2008 Atsushi Togo


  The DFPT (perturbation by an electric field) part of the code was used.
  Here is the corresponding reference:

    Honghui Shang, Nathaniel Raimbault, Mariana Rossi,
    Christian Carbogno, Patrick Rinke and Matthias Scheffler,
    'All-Electron, Real-Space Perturbation Theory for Homogeneous
    Electric Fields: Theory, Implementation, and Application within dft'
    New Journal of Physics, 20(7):073040, 2018


  The ELSI infrastructure was used in your run to solve the Kohn-Sham electronic structure.
  Please check out http://elsi-interchange.org to learn more.
  If scalability is important for your project, please acknowledge ELSI by citing:

    V. W-z. Yu, F. Corsetti, A. Garcia, W. P. Huhn, M. Jacquelin, W. Jia,
    B. Lange, L. Lin, J. Lu, W. Mi, A. Seifitokaldani, A. Vazquez-Mayagoitia,
    C. Yang, H. Yang, and V. Blum
    'ELSI: A unified software interface for Kohn-Sham electronic structure solvers'
    Computer Physics Communications 222, 267-285 (2018).
    http://doi.org/10.1016/j.cpc.2017.09.007


  For the real-space grid partitioning and parallelization used in this calculation, please cite:

    Ville Havu, Volker Blum, Paula Havu, and Matthias Scheffler,
    'Efficient O(N) integration for all-electron electronic structure calculation'
    'using numerically tabulated basis functions'
    Journal of Computational Physics 228, 8367-8379 (2009).
    http://doi.org/10.1016/j.jcp.2009.08.008


  The high-level electronic structure method used in your calculation
  employed our efficient localized resolution of identity for the Coulomb operator.
  Some calculations, especially large-scale hybrid density functional theory,
  are only possible thanks to this development. For this feature, please cite:

    Arvid Ihrig, Juergen Wieferink, Igor Ying Zhang, Matti Ropo, Xinguo Ren,
    Patrick Rinke, Matthias Scheffler, and Volker Blum,
    'Accurate localized resolution of identity approach for linear-scaling
    hybrid density functionals and for many-body perturbation theory'
    New Journal of Physics 117, 093020 (2015).
    http://doi.org/10.1088/1367-2630/17/9/093020

  Of course, there are many other important community references, e.g., those cited in the
  above references. Our list is limited to references that describe implementations in the
  FHI-aims code. The reason is purely practical (length of this list) - please credit others as well.

------------------------------------------------------------
          Leaving FHI-aims.
          Date     :  20230120, Time     :  134754.132

          Computational steps:
          | Number of self-consistency cycles          :           47
          | Number of SCF (re)initializations          :            1
          | Number of coupled perturbed self-consistency cycles          :            0
          | Number of CPSCF (re)initializations          :            0

          Detailed time accounting                     :  max(cpu_time)    wall_clock(cpu1)
          | Total time                                  :     1546.251 s        1560.006 s
          | GPU initialization                          :        2.442 s          12.939 s
          | Preparation time                            :        0.075 s           0.069 s
          | Boundary condition initalization            :        0.998 s           0.998 s
          | Grid partitioning                           :        1.291 s           1.291 s
          | Preloading free-atom quantities on grid     :        3.936 s           3.938 s
          | Free-atom superposition energy              :        0.552 s           0.552 s
          | Total time for integrations                 :       18.759 s          19.470 s
          | Product basis setup: Total time             :        0.000 s           0.000 s
          | Product basis: | 2-center integrations     :(       0.000 s)  (       0.000 s)
          | Product basis: | LVL 3-center & coefficient:(       0.000 s)  (       0.000 s)
          | Total time for solution of K.-S. equations  :        3.365 s           3.367 s
          | Total time for density update               :       12.337 s          13.846 s
          | Total time for mixing & preconditioning     :       11.328 s          11.329 s
          | Total time for Hartree multipole update     :        0.100 s           0.101 s
          | Total time for Hartree multipole sum        :       43.422 s          43.432 s
          | Total time for total energy evaluation      :        0.004 s           0.001 s
          | Total time first_order_DM                   :        1.863 s           1.864 s
          | Total time first_order_density              :      299.330 s         299.388 s
          | Total time first_order_potential            :      121.270 s         121.304 s
          | Total time first_order_H                    :      573.381 s         573.543 s
          | Total time solving of Sternheimer equations :        1.798 s           1.794 s
          | Total time for dielectric constant          :        0.000 s           0.001 s
          | Total time momentum matrix                  :        0.000 s           0.000 s

          GPU acceleration has been used for charge density update.
          GPU acceleration has been used for real-space Hamiltonian integration.
          Due to GPU usage, wall_clock(cpu1) will give a more reliable estimate for timings.

          Partial memory accounting:
          | Residual value for overall tracked memory usage across tasks:     1.234863 MB (should be 0.000000 MB)
          |
          | Largest tracked array allocation:
          |   Minimum:      103.205 MB (DFPT_pulay_mixing::initialize_pulay_mixing::X_in_diffs on task  0)
          |   Maximum:      103.205 MB (DFPT_pulay_mixing::initialize_pulay_mixing::X_in_diffs on task  0)
          |   Average:      103.205 MB
          |
          | Because the residual tracked memory usage was not zero, the peak value for overall
          | tracked memory usage was not output, as it is probably incorrect.  This is likely due
          | to a missing aims_deallocate statement in the source code, which should be otherwise
          | harmless.
          |
          Note:  These values currently only include a subset of arrays which are explicitly tracked.
          The "true" memory usage will be greater.

          Have a nice day.
------------------------------------------------------------
