------------------------------------------------------------
          Invoking FHI-aims ...

          When using FHI-aims, please cite the following reference:

            Volker Blum, Ralf Gehrke, Felix Hanke, Paula Havu,
            Ville Havu, Xinguo Ren, Karsten Reuter, and Matthias Scheffler,
            'Ab Initio Molecular Simulations with Numeric Atom-Centered Orbitals',
            Computer Physics Communications 180, 2175-2196 (2009)

          In addition, many other developments in FHI-aims are likely important for
          your particular application. A partial list of references is given at the end of
          this file. Thank you for giving credit to the authors of these developments.

          For any questions about FHI-aims, please visit our slack channel at

            https://fhi-aims.slack.com

          and our main development and support site at

            https://aims-git.rz-berlin.mpg.de .

          The latter site, in particular, has a wiki to collect information, as well
          as an issue tracker to log discussions, suggest improvements, and report issues
          or bugs. https://aims-git.rz-berlin.mpg.de is also the main development site
          of the project and all new and updated code versions can be obtained there.
          Please send an email to aims-coordinators@fhi-berlin.mpg.de and we will add
          you to these sites. They are for you and everyone is welcome there.

------------------------------------------------------------



  Date     :  20230120, Time     :  152949.887
  Time zero on CPU 1             :   0.473580000000000E+00  s.
  Internal wall clock time zero  :           443460589.887  s.

  FHI-aims created a unique identifier for this run for later identification
  aims_uuid : B2DE51A2-0894-439A-A608-27E474E13D41

  Build configuration of the current instance of FHI-aims
  -------------------------------------------------------
  FHI-aims version      : 220829
  Commit number         : 9895fc21d
  CMake host system     : Linux-5.3.18-150300.59.68-default
  CMake version         : 3.17.0
  Fortran compiler      : /mpcdf/soft/SLE_15/packages/x86_64/intel_oneapi/2021.3/mpi/2021.3.0/bin/mpiifort (Intel) version 20.2.3.20210609
  Fortran compiler flags: -O3 -ip -fp-model precise
  C compiler            : /mpcdf/soft/SLE_15/packages/x86_64/intel/2021.3.0/bin/icc (Intel) version 20.2.3.20210609
  C compiler flags      : -O3 -ip -fp-model precise -std=gnu99
  CUDA compiler         : /mpcdf/soft/SLE_15/packages/x86_64/cuda/11.6.2/bin/nvcc
  CUDA compiler flags   : -O3 -DAdd_ -lcublas
  ELPA2 kernel          : AVX512
  Using MPI
  Using ScaLAPACK
  Using LibXC
  Using CUDA
  Using i-PI
  Using RLSY
  Linking against: /mpcdf/soft/SLE_15/packages/x86_64/cuda/11.6.2/lib64/libcublas.so
                   /mpcdf/soft/SLE_15/packages/x86_64/cuda/11.6.2/lib64/libcudart.so
                   /mpcdf/soft/SLE_15/packages/x86_64/intel_oneapi/2021.3/mkl/latest/lib/intel64/libmkl_intel_lp64.so
                   /mpcdf/soft/SLE_15/packages/x86_64/intel_oneapi/2021.3/mkl/latest/lib/intel64/libmkl_sequential.so
                   /mpcdf/soft/SLE_15/packages/x86_64/intel_oneapi/2021.3/mkl/latest/lib/intel64/libmkl_core.so
                   /mpcdf/soft/SLE_15/packages/x86_64/intel_oneapi/2021.3/mkl/latest/lib/intel64/libmkl_blacs_intelmpi_lp64.so
                   /mpcdf/soft/SLE_15/packages/x86_64/intel_oneapi/2021.3/mkl/latest/lib/intel64/libmkl_scalapack_lp64.so

  Using       18 parallel tasks.
  Task        0 on host adag004 reporting.
  Task        1 on host adag004 reporting.
  Task        2 on host adag004 reporting.
  Task        3 on host adag004 reporting.
  Task        4 on host adag004 reporting.
  Task        5 on host adag004 reporting.
  Task        6 on host adag004 reporting.
  Task        7 on host adag004 reporting.
  Task        8 on host adag004 reporting.
  Task        9 on host adag004 reporting.
  Task       10 on host adag004 reporting.
  Task       11 on host adag004 reporting.
  Task       12 on host adag004 reporting.
  Task       13 on host adag004 reporting.
  Task       14 on host adag004 reporting.
  Task       15 on host adag004 reporting.
  Task       16 on host adag004 reporting.
  Task       17 on host adag004 reporting.

  Performing system and environment tests:
  | Environment variable OMP_NUM_THREADS correctly set to 1.
  | Checking for ScaLAPACK...
  | Testing pdtran()...
  | All pdtran() tests passed.

  Obtaining array dimensions for all initial allocations:
  
  -----------------------------------------------------------------------
  Parsing control.in (first pass over file, find array dimensions only).
  The contents of control.in will be repeated verbatim below
  unless switched off by setting 'verbatim_writeout .false.' .
  in the first line of control.in .
  -----------------------------------------------------------------------
  
  #
  # Input for polarizability replays on generic oligoacene molecular crystals (light settings,  LDA+MBD).
  #
  #########################################################################################
  #
  #  Physical model
  #
    xc                 pw-lda
    spin               none
    relativistic       none
    charge             0.0
    k_grid 	     2 1 1
    DFPT dielectric
  #
  #  GPU acceleration
  #
  # Turns on GPU acceleration everywhere
    use_gpu
  
  # Turns OFF GPU acceleration of ELPA - may be necessary if GPU ELPA is slow
    elsi_elpa_gpu 0
  #
  #  Relaxation
  #
  #  relax_geometry trm 1E-3
  #  relax_unit_cell fixed_angles
  #
  #  SCF convergence        #
    charge_mix_param   0.75
    #sc_accuracy_rho 1E-4
  #
  # i-PI communication
  #
  compute_forces .false.
  # use_pimd_wrapper 130.183.223.27 26118
  #communicate_pimd_wrapper polarizability
  #output_level MD_light
  #
  # Output SALTED info
    ri_density_restart write
    ri_rho1 write
    ri_full_output .true.
  #  sc_accuracy_rho    1d-6
    default_prodbas_acc 1e-6
    default_max_l_prodbas 6
  #
  #
  ################################################################################
  #
  #  FHI-aims code project
  #  VB, Fritz-Haber Institut, 2009
  #
  #  Suggested "light" defaults for H atom (to be pasted into control.in file)
  #  Be sure to double-check any results obtained with these settings for post-processing,
  #  e.g., with the "tight" defaults and larger basis sets.
  #
  ################################################################################
    species        H
  #     global species definitions
      nucleus             1
      mass                1.00794
  #
      l_hartree           4
  #
      cut_pot             3.5  1.5  1.0
      basis_dep_cutoff    1e-4
  #
      radial_base         24 5.0
      radial_multiplier   1
      angular_grids       specified
        division   0.2421   50
        division   0.3822  110
        division   0.4799  194
        division   0.5341  302
  #      division   0.5626  434
  #      division   0.5922  590
  #      division   0.6542  770
  #      division   0.6868 1202
  #      outer_grid  770
        outer_grid  302
  ################################################################################
  #
  #  Definition of "minimal" basis
  #
  ################################################################################
  #     valence basis states
      valence      1  s   1.
  #     ion occupancy
      ion_occ      1  s   0.5
  ################################################################################
  #
  #  Suggested additional basis functions. For production calculations,
  #  uncomment them one after another (the most important basis functions are
  #  listed first).
  #
  #  Basis constructed for dimers: 0.5 A, 0.7 A, 1.0 A, 1.5 A, 2.5 A
  #
  ################################################################################
  #  "First tier" - improvements: -1014.90 meV to -62.69 meV
       hydro 2 s 2.1
       hydro 2 p 3.5
  #  "Second tier" - improvements: -12.89 meV to -1.83 meV
  #     hydro 1 s 0.85
  #     hydro 2 p 3.7
  #     hydro 2 s 1.2
  #     hydro 3 d 7
  #  "Third tier" - improvements: -0.25 meV to -0.12 meV
  #     hydro 4 f 11.2
  #     hydro 3 p 4.8
  #     hydro 4 d 9
  #     hydro 3 s 3.2
  ################################################################################
  ################################################################################
  #
  #  FHI-aims code project
  #  VB, Fritz-Haber Institut, 2009
  #
  #  Suggested "light" defaults for C atom (to be pasted into control.in file)
  #  Be sure to double-check any results obtained with these settings for post-processing,
  #  e.g., with the "tight" defaults and larger basis sets.
  #
  ################################################################################
    species        C
  #     global species definitions
      nucleus             6
      mass                12.0107
  #
      l_hartree           4
  #
      cut_pot             3.5  1.5  1.0
      basis_dep_cutoff    1e-4
  #
      radial_base         34 5.0
      radial_multiplier   1
      angular_grids specified
        division   0.3326   50
        division   0.5710  110
        division   0.7727  194
        division   0.8772  302
  #      division   0.9334  434
  #      division   0.9625  590
  #      division   0.9924  770
  #      division   1.0230  974
  #      division   1.4589 1202
  #     outer_grid  974
       outer_grid 302
  ################################################################################
  #
  #  Definition of "minimal" basis
  #
  ################################################################################
  #     valence basis states
      valence      2  s   2.
      valence      2  p   2.
  #     ion occupancy
      ion_occ      2  s   1.
      ion_occ      2  p   1.
  ################################################################################
  #
  #  Suggested additional basis functions. For production calculations,
  #  uncomment them one after another (the most important basis functions are
  #  listed first).
  #
  #  Constructed for dimers: 1.0 A, 1.25 A, 1.5 A, 2.0 A, 3.0 A
  #
  ################################################################################
  #  "First tier" - improvements: -1214.57 meV to -155.61 meV
       hydro 2 p 1.7
       hydro 3 d 6
       hydro 2 s 4.9
  #  "Second tier" - improvements: -67.75 meV to -5.23 meV
  #     hydro 4 f 9.8
  #     hydro 3 p 5.2
  #     hydro 3 s 4.3
  #     hydro 5 g 14.4
  #     hydro 3 d 6.2
  #  "Third tier" - improvements: -2.43 meV to -0.60 meV
  #     hydro 2 p 5.6
  #     hydro 2 s 1.4
  #     hydro 3 d 4.9
  #     hydro 4 f 11.2
  #  "Fourth tier" - improvements: -0.39 meV to -0.18 meV
  #     hydro 2 p 2.1
  #     hydro 5 g 16.4
  #     hydro 4 d 13.2
  #     hydro 3 s 13.6
  #     hydro 4 f 17.6
  #  Further basis functions - improvements: -0.08 meV and below
  #     hydro 3 s 2
  #     hydro 3 p 6
  #     hydro 4 d 20
  
  -----------------------------------------------------------------------
  Completed first pass over input file control.in .
  -----------------------------------------------------------------------
  
  
  -----------------------------------------------------------------------
  Parsing geometry.in (first pass over file, find array dimensions only).
  The contents of geometry.in will be repeated verbatim below
  unless switched off by setting 'verbatim_writeout .false.' .
  in the first line of geometry.in .
  -----------------------------------------------------------------------
  
  #=======================================================
  # FHI-aims file: /ada/ptmp/mpsd/alewis/naphthalene/qmdata/data/geoms/368.in
  # Created using the Atomic Simulation Environment (ASE)
  # Thu Jan 19 15:19:17 2023
  #=======================================================
  lattice_vector 8.1020000000000003 0.0000000000000000 0.0000000000000000
  lattice_vector 0.0000000000000000 11.8800000000000008 0.0000000000000000
  lattice_vector -9.7850918486534706 0.0000000000000000 14.2571119625755713
  atom -0.8270720000000000 0.3420730000000000 2.4712900000000002 C
  atom 0.2164470000000000 2.9064800000000002 4.8330500000000001 C
  atom 4.1799400000000002 5.8426999999999998 4.9320599999999999 C
  atom 3.2627000000000002 2.7040000000000002 2.2826900000000001 C
  atom -0.0191095000000000 1.0962099999999999 1.6766700000000001 C
  atom -0.6269110000000000 3.7518799999999999 5.5623100000000001 C
  atom 3.4413000000000000 4.9338499999999996 5.6830299999999996 C
  atom 4.0029700000000004 1.8866000000000001 1.4679000000000000 C
  atom 0.2985060000000000 0.7423530000000000 0.3318360000000000 C
  atom -0.9497770000000000 3.5039799999999999 6.8997599999999997 C
  atom 3.0565400000000000 5.2992400000000002 7.0020100000000003 C
  atom 4.3639099999999997 2.3187300000000000 0.1861150000000000 C
  atom -3.8164099999999999 1.3970499999999999 6.5628299999999999 C
  atom 3.1291000000000002 4.4179300000000001 0.6323330000000000 C
  atom 7.1379700000000001 4.5298600000000002 0.6875180000000000 C
  atom 0.3106980000000000 1.4292899999999999 6.7201100000000000 C
  atom -3.4283899999999998 0.9558000000000000 5.2978899999999998 C
  atom 2.7820700000000000 3.9716399999999998 1.8927499999999999 C
  atom 6.9085000000000001 4.9592000000000001 1.9854799999999999 C
  atom 0.6672330000000000 1.6938599999999999 5.4163199999999998 C
  atom -1.0783900000000000 0.7974630000000000 3.4531999999999998 H
  atom 0.5015600000000000 3.2415799999999999 3.8361700000000001 H
  atom 4.4770500000000002 5.4990199999999998 3.9276700000000000 H
  atom 3.0110500000000000 2.3580199999999998 3.2873100000000002 H
  atom 0.2758020000000000 2.0863000000000000 2.0007400000000000 H
  atom -1.0064599999999999 4.6941300000000004 5.1455399999999996 H
  atom 3.1847500000000002 3.9210500000000001 5.3100500000000004 H
  atom 4.3594999999999997 0.9075670000000000 1.8188700000000000 H
  atom -3.4710700000000001 2.3820800000000002 6.9338100000000003 H
  atom 2.7887300000000002 5.4104799999999997 0.2928060000000000 H
  atom 6.7806199999999999 3.5758200000000002 0.3556500000000000 H
  atom 0.6224430000000000 0.5198580000000000 7.2489499999999998 H
  atom -2.7332000000000001 1.5548900000000001 4.6831600000000000 H
  atom 2.1720000000000002 4.6223299999999998 2.5273699999999999 H
  atom 6.3405199999999997 4.3235799999999998 2.6696900000000001 H
  atom 1.2094000000000000 0.9637120000000000 4.8113700000000001 H
  atom -5.7286400000000004 0.1689470000000000 9.5191700000000008 C
  atom -4.7678200000000004 3.2828900000000001 11.8729999999999993 C
  atom -0.7050660000000000 5.7662599999999999 11.9265000000000008 C
  atom -1.6355599999999999 2.8954900000000001 9.5655900000000003 C
  atom -4.9851599999999996 0.9875520000000000 8.7074700000000007 C
  atom -5.5658500000000002 4.0707100000000001 12.6968999999999994 C
  atom -1.4700100000000000 4.9485799999999998 12.7485999999999997 C
  atom -0.8450299999999999 2.0214900000000000 8.8839299999999994 C
  atom -4.6165799999999999 0.5670960000000000 7.3920899999999996 C
  atom -5.8884499999999997 3.6231700000000000 14.0008999999999997 C
  atom -1.8605499999999999 5.3467900000000004 14.0625000000000000 C
  atom -0.4828630000000000 2.2869000000000002 7.5246599999999999 C
  atom -8.7681699999999996 1.5636600000000000 13.6677000000000000 C
  atom -1.7813800000000000 4.3711900000000004 7.6554599999999997 C
  atom 2.2824900000000001 4.4590300000000003 7.8672899999999997 C
  atom -4.6459500000000000 1.5095499999999999 13.5783000000000005 C
  atom -8.4486399999999993 1.1356200000000001 12.4204000000000008 C
  atom -2.1031900000000001 4.0790199999999999 8.9597999999999995 C
  atom 1.9015400000000000 4.8170400000000004 9.1084899999999998 C
  atom -4.3152200000000001 1.9920300000000000 12.3181999999999992 C
  atom -6.0621099999999997 0.4760610000000000 10.5103000000000009 H
  atom -4.4717200000000004 3.6630099999999999 10.9190000000000005 H
  atom -0.4351800000000000 5.4592799999999997 10.9208999999999996 H
  atom -1.9156500000000001 2.6613899999999999 10.5988000000000007 H
  atom -4.7094399999999998 2.0103399999999998 8.9998199999999997 H
  atom -5.8061800000000003 5.0799700000000003 12.4176000000000002 H
  atom -1.8518699999999999 3.9531399999999999 12.4418000000000006 H
  atom -0.4221190000000000 1.1459500000000000 9.3767800000000001 H
  atom -8.4866799999999998 2.5893099999999998 13.9971999999999994 H
  atom -2.1674899999999999 5.2777599999999998 7.2002499999999996 H
  atom 1.9022600000000001 3.5669900000000001 7.4155499999999996 H
  atom -4.2622000000000000 0.5240880000000000 13.9047000000000001 H
  atom -7.9728100000000000 1.8396699999999999 11.7174999999999994 H
  atom -2.7259899999999999 4.7275999999999998 9.5350199999999994 H
  atom 1.2341299999999999 4.1756399999999996 9.7294199999999993 H
  atom -3.6540300000000001 1.3946099999999999 11.6661999999999999 H
  atom -0.7144810000000000 6.2087800000000000 2.4364699999999999 C
  atom 0.1856330000000000 9.0338999999999992 4.7409800000000004 C
  atom 4.1750600000000002 11.6104000000000003 4.8022999999999998 C
  atom 3.0954199999999998 8.6253499999999992 2.3136500000000000 C
  atom 0.0199997000000000 7.0218600000000002 1.6126300000000000 C
  atom -0.5364770000000000 9.8998399999999993 5.5375199999999998 C
  atom 3.3793199999999999 10.7796000000000003 5.5605500000000001 C
  atom 3.9491000000000001 7.8185500000000001 1.5607899999999999 C
  atom 0.2873760000000000 6.6094499999999998 0.2546360000000000 C
  atom -0.8865100000000000 9.5765999999999991 6.8863899999999996 C
  atom 3.0627800000000001 11.1640999999999995 6.9189900000000000 C
  atom 4.3594799999999996 8.2657799999999995 0.3124380000000000 C
  atom -3.8075500000000000 7.4168599999999998 6.7605100000000000 C
  atom 3.0976400000000002 10.3245000000000005 0.6045779999999999 C
  atom 7.2370400000000004 10.4779000000000000 0.7703040000000000 C
  atom 0.3368550000000000 7.4916400000000003 6.5910500000000001 C
  atom -3.4836299999999998 7.0887300000000000 5.4668099999999997 C
  atom 2.6614800000000001 9.8567499999999999 1.8344000000000000 C
  atom 6.8318899999999996 10.9608000000000008 2.0082399999999998 C
  atom 0.5579920000000000 7.7842900000000004 5.2584799999999996 C
  atom -1.0151500000000000 6.5539500000000004 3.4430900000000002 H
  atom 0.4784430000000000 9.3043999999999993 3.7218300000000002 H
  atom 4.3753799999999998 11.2639999999999993 3.7986000000000000 H
  atom 2.7932600000000001 8.2726400000000009 3.3194400000000002 H
  atom 0.2686730000000000 8.0281699999999994 1.9147600000000000 H
  atom -0.8969840000000000 10.8450000000000006 5.0785999999999998 H
  atom 3.0137100000000001 9.8133400000000002 5.1484899999999998 H
  atom 4.3377499999999998 6.8811600000000004 1.9536899999999999 H
  atom -3.5435699999999999 8.3472299999999997 7.2408400000000004 H
  atom 2.8163900000000002 11.2741000000000007 0.2078580000000000 H
  atom 6.9008000000000003 9.4813899999999993 0.4208970000000000 H
  atom 0.6193730000000000 6.5144599999999997 6.9642900000000001 H
  atom -2.8910600000000000 7.7912499999999998 4.8982299999999999 H
  atom 2.0818599999999998 10.5836000000000006 2.4278000000000000 H
  atom 6.2201300000000002 10.2769999999999992 2.6289600000000002 H
  atom 1.0994999999999999 7.0564400000000003 4.6688900000000002 H
  atom -5.7724599999999997 6.0809600000000001 9.6304599999999994 C
  atom -4.5919200000000000 9.1170700000000000 12.0389999999999997 C
  atom -0.7267530000000000 11.7113999999999994 11.9943000000000008 C
  atom -1.4547200000000000 8.8734900000000003 9.5328900000000001 C
  atom -4.9888399999999997 6.8891700000000000 8.8641199999999998 C
  atom -5.3643500000000000 9.9538300000000000 12.7997999999999994 C
  atom -1.4591300000000000 10.8933999999999997 12.8094000000000001 C
  atom -0.6859880000000000 8.0181500000000003 8.7776700000000005 C
  atom -4.6028900000000004 6.5297900000000002 7.5457700000000001 C
  atom -5.8296000000000001 9.5303000000000004 14.0746000000000002 C
  atom -1.8227000000000000 11.3244000000000007 14.1222999999999992 C
  atom -0.4299260000000000 8.3540200000000002 7.4249400000000003 C
  atom -8.7530999999999999 7.4266399999999999 13.6414000000000009 C
  atom -1.6904500000000000 10.4342000000000006 7.7109699999999997 C
  atom 2.3211800000000000 10.3331000000000000 7.7684499999999996 C
  atom -4.5926400000000003 7.4169799999999997 13.7553999999999998 C
  atom -8.3792899999999992 7.0225900000000001 12.3865999999999996 C
  atom -1.9392499999999999 10.0968999999999998 9.0322200000000006 C
  atom 1.9876799999999999 10.7716999999999992 9.0478400000000008 C
  atom -4.1753900000000002 7.8550599999999999 12.5260999999999996 C
  atom -6.0160700000000000 6.3761799999999997 10.6410000000000000 H
  atom -4.2637900000000002 9.4786800000000007 11.0792000000000002 H
  atom -0.4460400000000000 11.3566000000000003 10.9776000000000007 H
  atom -1.6148300000000000 8.6790800000000008 10.5897000000000006 H
  atom -4.5799500000000002 7.8281900000000002 9.2705500000000001 H
  atom -5.6847799999999999 10.9472000000000005 12.4419000000000004 H
  atom -1.7734500000000000 9.9196100000000005 12.4192000000000000 H
  atom -0.2883790000000000 7.1107800000000001 9.1618600000000008 H
  atom -8.3948199999999993 8.4028600000000004 14.0236000000000001 H
  atom -2.0453600000000001 11.3666000000000000 7.3151799999999998 H
  atom 1.9404800000000000 9.3705499999999997 7.4290700000000003 H
  atom -4.3684099999999999 6.4428400000000003 14.1495999999999995 H
  atom -7.7637999999999998 7.6295500000000001 11.7310999999999996 H
  atom -2.5686399999999998 10.7272999999999996 9.6812500000000004 H
  atom 1.3921800000000000 10.1166000000000000 9.7011000000000003 H
  atom -3.5594100000000002 7.2019700000000002 11.9068000000000005 H
  
  -----------------------------------------------------------------------
  Completed first pass over input file geometry.in .
  -----------------------------------------------------------------------
  

  Basic array size parameters:
  | Number of species                 :        2
  | Number of atoms                   :      144
  | Number of lattice vectors         :        3
  | Max. basis fn. angular momentum   :        2
  | Max. atomic/ionic basis occupied n:        2
  | Max. number of basis fn. types    :        2
  | Max. radial fns per species/type  :        3
  | Max. logarithmic grid size        :     1277
  | Max. radial integration grid size :       34
  | Max. angular integration grid size:      302
  | Max. angular grid division number :        8
  | Radial grid for Hartree potential :     1277
  | Number of spin channels           :        1

------------------------------------------------------------
          Reading file control.in.
------------------------------------------------------------
  XC: Using Perdew-Wang parametrisation of Ceperley-Alder LDA.
  Spin treatment: No spin polarisation.
  Non-relativistic treatment of kinetic energy.
  Charge =   0.000000E+00: Neutral system requested explicitly.
  Found k-point grid:         2         1         1
  DFPT calculation will begin after the DFT/HF calculation.
  Charge density mixing - mixing parameter:     0.7500
  Forces will not be computed.
 
  Reading configuration options for species H                   .
  | Found nuclear charge :   1.0000
  | Found atomic mass :    1.00794000000000      amu
  | Found l_max for Hartree potential  :   4
  | Found cutoff potl. onset [A], width [A], scale factor :    3.50000    1.50000    1.00000
  | Threshold for basis-dependent cutoff potential is   0.100000E-03
  | Found data for basic radial integration grid :    24 points, outermost radius =    5.000 A
  | Found multiplier for basic radial grid :   1
  | Found angular grid specification: user-specified.
  | Specified grid contains     5 separate shells.
  | Check grid settings after all constraints further below.
  | Found free-atom valence shell :  1 s   1.000
  | No ionic wave fns used. Skipping ion_occ.
  | Found hydrogenic basis function :  2 s   2.100
  | Found hydrogenic basis function :  2 p   3.500
  Species H                   : Missing cutoff potential type.
  Defaulting to exp(1/x)/(1-x)^2 type cutoff potential.
  Species H : No 'logarithmic' tag. Using default grid for free atom:
  | Default logarithmic grid data [bohr] : 0.1000E-03 0.1000E+03 0.1012E+01
  Species H : On-site basis accuracy parameter (for Gram-Schmidt orthonormalisation) not specified.
  Using default value basis_acc =  0.1000000E-03.
  Species H                   : Using default innermost maximum threshold i_radial=  2 for radial functions.
  Species H                   : Default cutoff onset for free atom density etc. : 0.35000000E+01 AA.
  Species H                   : Basic radial grid will be enhanced according to radial_multiplier =   1, to contain    24 grid points.
 
  Reading configuration options for species C                   .
  | Found nuclear charge :   6.0000
  | Found atomic mass :    12.0107000000000      amu
  | Found l_max for Hartree potential  :   4
  | Found cutoff potl. onset [A], width [A], scale factor :    3.50000    1.50000    1.00000
  | Threshold for basis-dependent cutoff potential is   0.100000E-03
  | Found data for basic radial integration grid :    34 points, outermost radius =    5.000 A
  | Found multiplier for basic radial grid :   1
  | Found angular grid specification: user-specified.
  | Specified grid contains     5 separate shells.
  | Check grid settings after all constraints further below.
  | Found free-atom valence shell :  2 s   2.000
  | Found free-atom valence shell :  2 p   2.000
  | No ionic wave fns used. Skipping ion_occ.
  | No ionic wave fns used. Skipping ion_occ.
  | Found hydrogenic basis function :  2 p   1.700
  | Found hydrogenic basis function :  3 d   6.000
  | Found hydrogenic basis function :  2 s   4.900
  Species C                   : Missing cutoff potential type.
  Defaulting to exp(1/x)/(1-x)^2 type cutoff potential.
  Species C : No 'logarithmic' tag. Using default grid for free atom:
  | Default logarithmic grid data [bohr] : 0.1000E-03 0.1000E+03 0.1012E+01
  Species C : On-site basis accuracy parameter (for Gram-Schmidt orthonormalisation) not specified.
  Using default value basis_acc =  0.1000000E-03.
  Species C                   : Using default innermost maximum threshold i_radial=  2 for radial functions.
  Species C                   : Default cutoff onset for free atom density etc. : 0.35000000E+01 AA.
  Species C                   : Basic radial grid will be enhanced according to radial_multiplier =   1, to contain    34 grid points.
 
  Finished reading input file 'control.in'.
 
------------------------------------------------------------


------------------------------------------------------------
          Reading geometry description geometry.in.
------------------------------------------------------------
  | The smallest distance between any two atoms is         1.06255126 AA.
  | The first atom of this pair is atom number                    116 .
  | The second atom of this pair is atom number                   136 .
  | Wigner-Seitz cell of the first atom image           0     0     0 .
  | (The Wigner-Seitz cell of the second atom is 0 0 0  by definition.)

  Symmetry information by spglib:
  | Precision set to  0.1E-04
  | Number of Operations  : 1
  | Space group           : 1
  | International         : P1
  | Schoenflies           : C1^1
  Input structure read successfully.
  The structure contains      144 atoms,  and a total of        544.000 electrons.

  Input geometry:
  | Unit cell:
  |        8.10200000        0.00000000        0.00000000
  |        0.00000000       11.88000000        0.00000000
  |       -9.78509185        0.00000000       14.25711196
  | Atomic structure:
  |       Atom                x [A]            y [A]            z [A]
  |    1: Species C            -0.82707200        0.34207300        2.47129000
  |    2: Species C             0.21644700        2.90648000        4.83305000
  |    3: Species C             4.17994000        5.84270000        4.93206000
  |    4: Species C             3.26270000        2.70400000        2.28269000
  |    5: Species C            -0.01910950        1.09621000        1.67667000
  |    6: Species C            -0.62691100        3.75188000        5.56231000
  |    7: Species C             3.44130000        4.93385000        5.68303000
  |    8: Species C             4.00297000        1.88660000        1.46790000
  |    9: Species C             0.29850600        0.74235300        0.33183600
  |   10: Species C            -0.94977700        3.50398000        6.89976000
  |   11: Species C             3.05654000        5.29924000        7.00201000
  |   12: Species C             4.36391000        2.31873000        0.18611500
  |   13: Species C            -3.81641000        1.39705000        6.56283000
  |   14: Species C             3.12910000        4.41793000        0.63233300
  |   15: Species C             7.13797000        4.52986000        0.68751800
  |   16: Species C             0.31069800        1.42929000        6.72011000
  |   17: Species C            -3.42839000        0.95580000        5.29789000
  |   18: Species C             2.78207000        3.97164000        1.89275000
  |   19: Species C             6.90850000        4.95920000        1.98548000
  |   20: Species C             0.66723300        1.69386000        5.41632000
  |   21: Species H            -1.07839000        0.79746300        3.45320000
  |   22: Species H             0.50156000        3.24158000        3.83617000
  |   23: Species H             4.47705000        5.49902000        3.92767000
  |   24: Species H             3.01105000        2.35802000        3.28731000
  |   25: Species H             0.27580200        2.08630000        2.00074000
  |   26: Species H            -1.00646000        4.69413000        5.14554000
  |   27: Species H             3.18475000        3.92105000        5.31005000
  |   28: Species H             4.35950000        0.90756700        1.81887000
  |   29: Species H            -3.47107000        2.38208000        6.93381000
  |   30: Species H             2.78873000        5.41048000        0.29280600
  |   31: Species H             6.78062000        3.57582000        0.35565000
  |   32: Species H             0.62244300        0.51985800        7.24895000
  |   33: Species H            -2.73320000        1.55489000        4.68316000
  |   34: Species H             2.17200000        4.62233000        2.52737000
  |   35: Species H             6.34052000        4.32358000        2.66969000
  |   36: Species H             1.20940000        0.96371200        4.81137000
  |   37: Species C            -5.72864000        0.16894700        9.51917000
  |   38: Species C            -4.76782000        3.28289000       11.87300000
  |   39: Species C            -0.70506600        5.76626000       11.92650000
  |   40: Species C            -1.63556000        2.89549000        9.56559000
  |   41: Species C            -4.98516000        0.98755200        8.70747000
  |   42: Species C            -5.56585000        4.07071000       12.69690000
  |   43: Species C            -1.47001000        4.94858000       12.74860000
  |   44: Species C            -0.84503000        2.02149000        8.88393000
  |   45: Species C            -4.61658000        0.56709600        7.39209000
  |   46: Species C            -5.88845000        3.62317000       14.00090000
  |   47: Species C            -1.86055000        5.34679000       14.06250000
  |   48: Species C            -0.48286300        2.28690000        7.52466000
  |   49: Species C            -8.76817000        1.56366000       13.66770000
  |   50: Species C            -1.78138000        4.37119000        7.65546000
  |   51: Species C             2.28249000        4.45903000        7.86729000
  |   52: Species C            -4.64595000        1.50955000       13.57830000
  |   53: Species C            -8.44864000        1.13562000       12.42040000
  |   54: Species C            -2.10319000        4.07902000        8.95980000
  |   55: Species C             1.90154000        4.81704000        9.10849000
  |   56: Species C            -4.31522000        1.99203000       12.31820000
  |   57: Species H            -6.06211000        0.47606100       10.51030000
  |   58: Species H            -4.47172000        3.66301000       10.91900000
  |   59: Species H            -0.43518000        5.45928000       10.92090000
  |   60: Species H            -1.91565000        2.66139000       10.59880000
  |   61: Species H            -4.70944000        2.01034000        8.99982000
  |   62: Species H            -5.80618000        5.07997000       12.41760000
  |   63: Species H            -1.85187000        3.95314000       12.44180000
  |   64: Species H            -0.42211900        1.14595000        9.37678000
  |   65: Species H            -8.48668000        2.58931000       13.99720000
  |   66: Species H            -2.16749000        5.27776000        7.20025000
  |   67: Species H             1.90226000        3.56699000        7.41555000
  |   68: Species H            -4.26220000        0.52408800       13.90470000
  |   69: Species H            -7.97281000        1.83967000       11.71750000
  |   70: Species H            -2.72599000        4.72760000        9.53502000
  |   71: Species H             1.23413000        4.17564000        9.72942000
  |   72: Species H            -3.65403000        1.39461000       11.66620000
  |   73: Species C            -0.71448100        6.20878000        2.43647000
  |   74: Species C             0.18563300        9.03390000        4.74098000
  |   75: Species C             4.17506000       11.61040000        4.80230000
  |   76: Species C             3.09542000        8.62535000        2.31365000
  |   77: Species C             0.01999970        7.02186000        1.61263000
  |   78: Species C            -0.53647700        9.89984000        5.53752000
  |   79: Species C             3.37932000       10.77960000        5.56055000
  |   80: Species C             3.94910000        7.81855000        1.56079000
  |   81: Species C             0.28737600        6.60945000        0.25463600
  |   82: Species C            -0.88651000        9.57660000        6.88639000
  |   83: Species C             3.06278000       11.16410000        6.91899000
  |   84: Species C             4.35948000        8.26578000        0.31243800
  |   85: Species C            -3.80755000        7.41686000        6.76051000
  |   86: Species C             3.09764000       10.32450000        0.60457800
  |   87: Species C             7.23704000       10.47790000        0.77030400
  |   88: Species C             0.33685500        7.49164000        6.59105000
  |   89: Species C            -3.48363000        7.08873000        5.46681000
  |   90: Species C             2.66148000        9.85675000        1.83440000
  |   91: Species C             6.83189000       10.96080000        2.00824000
  |   92: Species C             0.55799200        7.78429000        5.25848000
  |   93: Species H            -1.01515000        6.55395000        3.44309000
  |   94: Species H             0.47844300        9.30440000        3.72183000
  |   95: Species H             4.37538000       11.26400000        3.79860000
  |   96: Species H             2.79326000        8.27264000        3.31944000
  |   97: Species H             0.26867300        8.02817000        1.91476000
  |   98: Species H            -0.89698400       10.84500000        5.07860000
  |   99: Species H             3.01371000        9.81334000        5.14849000
  |  100: Species H             4.33775000        6.88116000        1.95369000
  |  101: Species H            -3.54357000        8.34723000        7.24084000
  |  102: Species H             2.81639000       11.27410000        0.20785800
  |  103: Species H             6.90080000        9.48139000        0.42089700
  |  104: Species H             0.61937300        6.51446000        6.96429000
  |  105: Species H            -2.89106000        7.79125000        4.89823000
  |  106: Species H             2.08186000       10.58360000        2.42780000
  |  107: Species H             6.22013000       10.27700000        2.62896000
  |  108: Species H             1.09950000        7.05644000        4.66889000
  |  109: Species C            -5.77246000        6.08096000        9.63046000
  |  110: Species C            -4.59192000        9.11707000       12.03900000
  |  111: Species C            -0.72675300       11.71140000       11.99430000
  |  112: Species C            -1.45472000        8.87349000        9.53289000
  |  113: Species C            -4.98884000        6.88917000        8.86412000
  |  114: Species C            -5.36435000        9.95383000       12.79980000
  |  115: Species C            -1.45913000       10.89340000       12.80940000
  |  116: Species C            -0.68598800        8.01815000        8.77767000
  |  117: Species C            -4.60289000        6.52979000        7.54577000
  |  118: Species C            -5.82960000        9.53030000       14.07460000
  |  119: Species C            -1.82270000       11.32440000       14.12230000
  |  120: Species C            -0.42992600        8.35402000        7.42494000
  |  121: Species C            -8.75310000        7.42664000       13.64140000
  |  122: Species C            -1.69045000       10.43420000        7.71097000
  |  123: Species C             2.32118000       10.33310000        7.76845000
  |  124: Species C            -4.59264000        7.41698000       13.75540000
  |  125: Species C            -8.37929000        7.02259000       12.38660000
  |  126: Species C            -1.93925000       10.09690000        9.03222000
  |  127: Species C             1.98768000       10.77170000        9.04784000
  |  128: Species C            -4.17539000        7.85506000       12.52610000
  |  129: Species H            -6.01607000        6.37618000       10.64100000
  |  130: Species H            -4.26379000        9.47868000       11.07920000
  |  131: Species H            -0.44604000       11.35660000       10.97760000
  |  132: Species H            -1.61483000        8.67908000       10.58970000
  |  133: Species H            -4.57995000        7.82819000        9.27055000
  |  134: Species H            -5.68478000       10.94720000       12.44190000
  |  135: Species H            -1.77345000        9.91961000       12.41920000
  |  136: Species H            -0.28837900        7.11078000        9.16186000
  |  137: Species H            -8.39482000        8.40286000       14.02360000
  |  138: Species H            -2.04536000       11.36660000        7.31518000
  |  139: Species H             1.94048000        9.37055000        7.42907000
  |  140: Species H            -4.36841000        6.44284000       14.14960000
  |  141: Species H            -7.76380000        7.62955000       11.73110000
  |  142: Species H            -2.56864000       10.72730000        9.68125000
  |  143: Species H             1.39218000       10.11660000        9.70110000
  |  144: Species H            -3.55941000        7.20197000       11.90680000

  Lattice parameters for 3D lattice (in Angstroms) :     8.102000   11.880000   17.292000
  Angle(s) between unit vectors (in degrees)       :    90.000000  124.463000   90.000000


  Quantities derived from the lattice vectors (in Angstrom^-1):
  | Reciprocal lattice vector 1:  0.775510  0.000000  0.532257
  | Reciprocal lattice vector 2:  0.000000  0.528888  0.000000
  | Reciprocal lattice vector 3: -0.000000  0.000000  0.440705
  | Unit cell volume                               :   0.137227E+04  Angstrom^3

  Fractional coordinates:
                         L1                L2                L3
       atom_frac         0.10726362        0.02879402        0.17333735  C
       atom_frac         0.43612898        0.24465320        0.33899222  C
       atom_frac         0.93371557        0.49180976        0.34593682  C
       atom_frac         0.59607257        0.22760943        0.16010886  C
       atom_frac         0.13967420        0.09227357        0.11760236  C
       atom_frac         0.39381294        0.31581481        0.39014283  C
       atom_frac         0.90616357        0.41530724        0.39861018  C
       atom_frac         0.61841948        0.15880471        0.10295914  C
       atom_frac         0.06495374        0.06248763        0.02327512  C
       atom_frac         0.46725984        0.29494781        0.48395215  C
       atom_frac         0.97040651        0.44606397        0.49112401  C
       atom_frac         0.55438736        0.19517929        0.01305419  C
       atom_frac         0.08490013        0.11759680        0.46031973  C
       atom_frac         0.43977900        0.37187963        0.04435211  C
       atom_frac         0.93925384        0.38130135        0.04822281  C
       atom_frac         0.60761725        0.12031061        0.47135142  C
       atom_frac         0.02563736        0.08045455        0.37159630  C
       atom_frac         0.50371787        0.33431313        0.13275830  C
       atom_frac         1.02088319        0.41744108        0.13926243  C
       atom_frac         0.54117737        0.14258081        0.37990303  C
       atom_frac         0.15942320        0.06712652        0.24220894  H
       atom_frac         0.38687247        0.27286027        0.26907062  H
       atom_frac         0.88530363        0.46288047        0.27548847  H
       atom_frac         0.65011495        0.19848653        0.23057335  H
       atom_frac         0.20352642        0.17561448        0.14033277  H
       atom_frac         0.31166149        0.39512879        0.36091040  H
       atom_frac         0.84290295        0.33005471        0.37244920  H
       atom_frac         0.69215578        0.07639453        0.12757633  H
       atom_frac         0.15895036        0.20051178        0.48634043  H
       atom_frac         0.36900663        0.45542761        0.02053754  H
       atom_frac         0.86703449        0.30099495        0.02494544  H
       atom_frac         0.69089349        0.04375909        0.50844449  H
       atom_frac         0.05936755        0.13088300        0.32847887  H
       atom_frac         0.48217864        0.38908502        0.17727083  H
       atom_frac         1.00873980        0.36393771        0.18725321  H
       atom_frac         0.55684897        0.08112054        0.33747157  H
       atom_frac         0.09931590        0.01422113        0.66767870  C
       atom_frac         0.41730226        0.27633754        0.83277736  C
       atom_frac         0.92328507        0.48537542        0.83652987  C
       atom_frac         0.60844198        0.24372811        0.67093462  C
       atom_frac         0.12232077        0.08312727        0.61074571  C
       atom_frac         0.38859796        0.34265236        0.89056606  C
       atom_frac         0.89851197        0.41654714        0.89419232  C
       atom_frac         0.64826991        0.17015909        0.62312269  C
       atom_frac         0.05638575        0.04773535        0.51848439  C
       atom_frac         0.45924411        0.30498064        0.98202918  C
       atom_frac         0.96161117        0.45006650        0.98634983  C
       atom_frac         0.57782538        0.19250000        0.52778291  C
       atom_frac         0.07558509        0.13162121        0.95865839  C
       atom_frac         0.42863444        0.36794529        0.53695728  C
       atom_frac         0.94816733        0.37533923        0.55181512  C
       atom_frac         0.57680233        0.12706650        0.95238784  C
       atom_frac         0.00936315        0.09559091        0.87117223  C
       atom_frac         0.49940690        0.34335185        0.62844425  C
       atom_frac         1.00629168        0.40547475        0.63887343  C
       atom_frac         0.51087846        0.16767929        0.86400388  C
       atom_frac         0.14211679        0.04007247        0.73719699  H
       atom_frac         0.37303426        0.30833418        0.76586338  H
       atom_frac         0.87141046        0.45953535        0.76599665  H
       atom_frac         0.66139601        0.22402273        0.74340442  H
       atom_frac         0.18111721        0.16922054        0.63125127  H
       atom_frac         0.33527506        0.42760690        0.87097584  H
       atom_frac         0.82539098        0.33275589        0.87267323  H
       atom_frac         0.74221819        0.09646044        0.65769141  H
       atom_frac         0.13824072        0.21795539        0.98176966  H
       atom_frac         0.34241690        0.44425589        0.50502865  H
       atom_frac         0.86296948        0.30025168        0.52012988  H
       atom_frac         0.65181693        0.04411515        0.97528167  H
       atom_frac         0.00854956        0.15485438        0.82187052  H
       atom_frac         0.47126460        0.39794613        0.66879043  H
       atom_frac         0.97651548        0.35148485        0.68242573  H
       atom_frac         0.53725497        0.11739141        0.81827231  H
       atom_frac         0.11821067        0.52262458        0.17089506  C
       atom_frac         0.42452636        0.76042929        0.33253439  C
       atom_frac         0.92212112        0.97730640        0.33683540  C
       atom_frac         0.57804847        0.72603956        0.16228041  C
       atom_frac         0.13907640        0.59106566        0.11311057  C
       atom_frac         0.40287488        0.83331987        0.38840405  C
       atom_frac         0.88813817        0.90737374        0.39001938  C
       atom_frac         0.61963934        0.65812710        0.10947449  C
       atom_frac         0.05704030        0.55635101        0.01786028  C
       atom_frac         0.47393607        0.80611111        0.48301437  C
       atom_frac         0.96414396        0.93973906        0.48530095  C
       atom_frac         0.56454156        0.69577273        0.02191454  C
       atom_frac         0.10273941        0.62431481        0.47418510  C
       atom_frac         0.43354485        0.86906566        0.04240536  C
       atom_frac         0.95849459        0.88197811        0.05402946  C
       atom_frac         0.59991288        0.63060943        0.46229910  C
       atom_frac         0.03312872        0.59669444        0.38344442  C
       atom_frac         0.48389099        0.82969276        0.12866561  C
       atom_frac         1.01335553        0.92262626        0.14085882  C
       atom_frac         0.51432333        0.65524327        0.36883206  C
       atom_frac         0.16637225        0.55167929        0.24149982  H
       atom_frac         0.37433334        0.78319865        0.26105077  H
       atom_frac         0.86182119        0.94814815        0.26643545  H
       atom_frac         0.62595571        0.69635017        0.23282696  H
       atom_frac         0.19536304        0.67577189        0.13430209  H
       atom_frac         0.31950314        0.91287879        0.35621520  H
       atom_frac         0.80810616        0.82603872        0.36111732  H
       atom_frac         0.70089202        0.57922222        0.13703266  H
       atom_frac         0.17601085        0.70262879        0.50787565  H
       atom_frac         0.36522455        0.94899832        0.01457925  H
       atom_frac         0.88739502        0.79809680        0.02952190  H
       atom_frac         0.66640066        0.54835522        0.48847831  H
       atom_frac         0.05810232        0.65582912        0.34356397  H
       atom_frac         0.46261829        0.89087542        0.17028694  H
       atom_frac         0.99043022        0.86506734        0.18439639  H
       atom_frac         0.53121476        0.59397643        0.32747796  H
       atom_frac         0.10333487        0.51186532        0.67548463  C
       atom_frac         0.45307502        0.76743013        0.84442067  C
       atom_frac         0.92635174        0.98580808        0.84128539  C
       atom_frac         0.62799233        0.74692677        0.66864103  C
       atom_frac         0.13513658        0.57989646        0.62173321  C
       atom_frac         0.42218515        0.83786448        0.89778351  C
       atom_frac         0.90500529        0.91695286        0.89845686  C
       atom_frac         0.65889846        0.67492845        0.61566957  C
       atom_frac         0.07109389        0.54964562        0.52926357  C
       atom_frac         0.47275096        0.80221380        0.98719853  C
       atom_frac         0.97134859        0.95323232        0.99054423  C
       atom_frac         0.57591179        0.70320034        0.52078850  C
       atom_frac         0.07521722        0.62513805        0.95681370  C
       atom_frac         0.44455992        0.87829966        0.54085077  C
       atom_frac         0.94456983        0.86978956        0.54488244  C
       atom_frac         0.59838455        0.62432492        0.96480971  C
       atom_frac         0.01505953        0.59112710        0.86880148  C
       atom_frac         0.52577620        0.84990741        0.63352382  C
       atom_frac         1.01178588        0.90670875        0.63461941  C
       atom_frac         0.54574863        0.66120034        0.87858607  C
       atom_frac         0.15887110        0.53671549        0.74636434  H
       atom_frac         0.41226903        0.79786869        0.77709988  H
       atom_frac         0.87487318        0.95594276        0.76997361  H
       atom_frac         0.69775424        0.73056229        0.74276614  H
       atom_frac         0.22003356        0.65893855        0.65024039  H
       atom_frac         0.35231750        0.92148148        0.87268025  H
       atom_frac         0.83315560        0.83498401        0.87108806  H
       atom_frac         0.74051909        0.59855051        0.64261682  H
       atom_frac         0.15181504        0.70731145        0.98362137  H
       atom_frac         0.36722682        0.95678451        0.51308989  H
       atom_frac         0.86883213        0.78876684        0.52107818  H
       atom_frac         0.65945360        0.54232660        0.99245906  H
       atom_frac         0.03549896        0.64221801        0.82282443  H
       atom_frac         0.50307305        0.90297138        0.67904706  H
       atom_frac         0.99362399        0.85156566        0.68043935  H
       atom_frac         0.56931509        0.60622643        0.83514810  H

 
  Finished reading input file 'geometry.in'.
 

 
  Consistency checks for stacksize environment parameter are next.
 
  | Maximum stacksize for task 0: unlimited
  | Maximum stacksize for task 1: unlimited
  | Maximum stacksize for task 2: unlimited
  | Maximum stacksize for task 3: unlimited
  | Maximum stacksize for task 4: unlimited
  | Maximum stacksize for task 5: unlimited
  | Maximum stacksize for task 6: unlimited
  | Maximum stacksize for task 7: unlimited
  | Maximum stacksize for task 8: unlimited
  | Maximum stacksize for task 9: unlimited
  | Maximum stacksize for task 10: unlimited
  | Maximum stacksize for task 11: unlimited
  | Maximum stacksize for task 12: unlimited
  | Maximum stacksize for task 13: unlimited
  | Maximum stacksize for task 14: unlimited
  | Maximum stacksize for task 15: unlimited
  | Maximum stacksize for task 16: unlimited
  | Maximum stacksize for task 17: unlimited
  | Current stacksize for task 0: unlimited
  | Current stacksize for task 1: unlimited
  | Current stacksize for task 2: unlimited
  | Current stacksize for task 3: unlimited
  | Current stacksize for task 4: unlimited
  | Current stacksize for task 5: unlimited
  | Current stacksize for task 6: unlimited
  | Current stacksize for task 7: unlimited
  | Current stacksize for task 8: unlimited
  | Current stacksize for task 9: unlimited
  | Current stacksize for task 10: unlimited
  | Current stacksize for task 11: unlimited
  | Current stacksize for task 12: unlimited
  | Current stacksize for task 13: unlimited
  | Current stacksize for task 14: unlimited
  | Current stacksize for task 15: unlimited
  | Current stacksize for task 16: unlimited
  | Current stacksize for task 17: unlimited
 
  Consistency checks for the contents of control.in are next.
 
  MPI_IN_PLACE appears to work with this MPI implementation.
  | Keeping use_mpi_in_place .true. (see manual).
  Explicit treatment of the Coulomb operator is needed, but the RI method is not specified.
  Coulomb operator: Defaulting to 'LVL fast' resolution of identity - RI_type = LVL_fast
  Species H: Using default value for prodbas_acc =   1.000000E-06.
  Species H: Using default value max_l_prodbas =     6.
  Species C: Using default value for prodbas_acc =   1.000000E-06.
  Species C: Using default value max_l_prodbas =     6.
  Target number of points in a grid batch is not set.  Since GPU acceleration is enabled, defaulting to  200
  Method for grid partitioning is not set. Defaulting to parallel hash+maxmin partitioning.
  Batch size limit is not set. Defaulting to    200
  By default, will store active basis functions for each batch.
  If in need of memory, prune_basis_once .false. can be used to disable this option.
  communication_type for Hartree potential was not specified.
  Defaulting to calc_hartree .
  Defaulting to Pulay charge density mixer.
  Pulay mixer: Number of relevant iterations not set.
  Defaulting to    8 iterations.
  Pulay mixer: Number of initial linear mixing iterations not set.
  Defaulting to    0 iterations.
  Work space size for distributed Hartree potential not set.
  Defaulting to   0.200000E+03 MB.
  Algorithm-dependent basis array size parameters:
  | n_max_pulay                         :        8
  Maximum number of self-consistency iterations not provided.
  Presetting  1000 iterations.
  Presetting      1001 iterations before the initial mixing cycle
  is restarted anyway using the sc_init_iter criterion / keyword.
  Presetting a factor      1.000 between actual scf density residual
  and density convergence criterion sc_accuracy_rho below which sc_init_iter
  takes no effect.
 * No s.c.f. convergence criteria (sc_accuracy_*) were provided in control.in.
 * The run will proceed with a reasonable default guess, but please check whether.
 * the s.c.f. cycles seem to take too much or too little time.
  Geometry relaxation not requested: no relaxation will be performed.
 * Notice: The s.c.f. convergence criterion sc_accuracy_rho was not provided.
 * We used to stop in this case, and ask the user to provide reasonable
 * scf convergence criteria. However, this led some users to employ criteria
 * that led to extremely long run times, e.g., for simple relaxation.
 * We now preset a default value for sc_accuracy_rho if it is not set.
 * You may still wish to check if this setting is too tight or too loose for your needs.
 * Based on n_atoms and forces and force-correction status, FHI-aims chose sc_accuracy_rho =  0.391918E-04 .
  No accuracy limit for integral partition fn. given. Defaulting to  0.1000E-14.
  No threshold value for u(r) in integrations given. Defaulting to  0.1000E-05.
  No occupation type (smearing scheme) given. Defaulting to Gaussian broadening, width =  0.1000E-01 eV.
  The width will be adjusted in iteration number     2 of the first full s.c.f. cycle only.
  S.C.F. convergence parameters will be adjusted in iteration number     2 of the first full s.c.f. cycle only.
  No accuracy for occupation numbers given. Defaulting to  0.1000E-12.
  No threshold value for occupation numbers given. Defaulting to  0.0000E+00.
  No accuracy for fermi level given. Defaulting to  0.1000E-19.
  Maximum # of iterations to find E_F not set. Defaulting to  200.
  Preferred method for the eigenvalue solver ('KS_method') not specified in 'control.in'.
  Calling BLACS routine to test compilation state
  Since ScaLAPACK support is enabled, defaulting to ELPA (via ELSI).
  Will not use alltoall communication since running on < 1024 CPUs.
  Threshold for basis singularities not set.
  Default threshold for basis singularities:  0.1000E-04
  partition_type (choice of integration weights) for integrals was not specified.
  | Using a version of the partition function of Stratmann and coworkers ('stratmann_sparse').
  | At each grid point, the set of atoms used to build the partition table is smoothly restricted to
  | only those atoms whose free-atom density would be non-zero at that grid point.
  Partitioning for Hartree potential was not defined. Using partition_type for integrals.
  | Adjusted default value of keyword multip_moments_threshold to:       0.10000000E-11
  | This value may affect high angular momentum components of the Hartree potential in periodic systems.
  Angular momentum expansion for Kerker preconditioner not set explicitly.
  | Using default value of   0
  No explicit requirement for turning off preconditioner.
  | By default, it will be turned off when the charge convergence reaches
  | sc_accuracy_rho  =   0.391918E-04
  No special mixing parameter while Kerker preconditioner is on.
  Using default: charge_mix_param =     0.7500.
  Threshold for auxiliary basis singularities not set.
  Default threshold for auxiliary basis singularities:  0.1000E-04
  No q(lm)/r^(l+1) cutoff set for long-range Hartree potential.
  | Using default value of  0.100000E-09 .
  | Verify using the multipole_threshold keyword.
  Defaulting to new monopole extrapolation.
  Density update method: automatic selection selected.
  Using density matrix based charge density update.
  Using density matrix based charge density update.
  Using packed matrix style: index .
  Defaulting to use time-reversal symmetry for k-point grid.
  Charge integration errors on the 3D integration grid will be compensated
  by explicit normalization and distribution of residual charges.
  Use the "compensate_multipole_errors" flag to change this behaviour.
  Default to 1D ("use_logsbt") integrations for auxiliary 2-center integrals.
  Default onset of logarithmic r-grid for SBT is -38.000000000000
  Default onset of logarithmic k-grid for SBT is -25.000000000000
  Default range of logarithmic r- and k-grid for SBT is  45.000000000000
  Default number of logarithmic r- and k-grid for SBT is   4096
  Default of use_2d_corr is to use the efficient 2D distribution where possible
 
  Consistency checks for the contents of geometry.in are next.
 

  Range separation radius for Ewald summation (hartree_convergence_parameter):      2.91768261 bohr.
  Number of empty states per atom not set in control.in .
  | Since you are using a method that relies on the unoccupied spectrum
  | (MP2,GW,RPA et al.), will use the full Hamiltonian size (see below)
  | as the max. possible number of states (occupied plus empty).

  Structure-dependent array size parameters: 
  | Maximum number of distinct radial functions  :        9
  | Maximum number of basis functions            :     1440
  | Number of Kohn-Sham states (occupied + empty):     1440
------------------------------------------------------------
CUDA runtime version: 11060
CUDA driver version: 11060
  Initializing GPUs...

  Number of GPUs available to MPI task         0 :   1
  Number of GPUs available to MPI task         1 :   1
  Number of GPUs available to MPI task         2 :   1
  Number of GPUs available to MPI task         3 :   1
  Number of GPUs available to MPI task         4 :   1
  Number of GPUs available to MPI task         5 :   1
  Number of GPUs available to MPI task         6 :   1
  Number of GPUs available to MPI task         7 :   1
  Number of GPUs available to MPI task         8 :   1
  Number of GPUs available to MPI task         9 :   1
  Number of GPUs available to MPI task        10 :   1
  Number of GPUs available to MPI task        11 :   1
  Number of GPUs available to MPI task        12 :   1
  Number of GPUs available to MPI task        13 :   1
  Number of GPUs available to MPI task        14 :   1
  Number of GPUs available to MPI task        15 :   1
  Number of GPUs available to MPI task        16 :   1
  Number of GPUs available to MPI task        17 :   1

  | MPI task         0, GPU activated = T, Device Name = NVIDIA A100-SXM4-80GB
  | MPI task         1, GPU activated = T, Device Name = NVIDIA A100-SXM4-80GB
  | MPI task         2, GPU activated = T, Device Name = NVIDIA A100-SXM4-80GB
  | MPI task         3, GPU activated = T, Device Name = NVIDIA A100-SXM4-80GB
  | MPI task         4, GPU activated = T, Device Name = NVIDIA A100-SXM4-80GB
  | MPI task         5, GPU activated = T, Device Name = NVIDIA A100-SXM4-80GB
  | MPI task         6, GPU activated = T, Device Name = NVIDIA A100-SXM4-80GB
  | MPI task         7, GPU activated = T, Device Name = NVIDIA A100-SXM4-80GB
  | MPI task         8, GPU activated = T, Device Name = NVIDIA A100-SXM4-80GB
  | MPI task         9, GPU activated = T, Device Name = NVIDIA A100-SXM4-80GB
  | MPI task        10, GPU activated = T, Device Name = NVIDIA A100-SXM4-80GB
  | MPI task        11, GPU activated = T, Device Name = NVIDIA A100-SXM4-80GB
  | MPI task        12, GPU activated = T, Device Name = NVIDIA A100-SXM4-80GB
  | MPI task        13, GPU activated = T, Device Name = NVIDIA A100-SXM4-80GB
  | MPI task        14, GPU activated = T, Device Name = NVIDIA A100-SXM4-80GB
  | MPI task        15, GPU activated = T, Device Name = NVIDIA A100-SXM4-80GB
  | MPI task        16, GPU activated = T, Device Name = NVIDIA A100-SXM4-80GB
  | MPI task        17, GPU activated = T, Device Name = NVIDIA A100-SXM4-80GB

------------------------------------------------------------
          Preparing all fixed parts of the calculation.
------------------------------------------------------------
  Determining machine precision:
    2.225073858507201E-308
  Setting up grids for atomic and cluster calculations.

  Creating wave function, potential, and density for free atoms.
  Runtime choices for atomic solver:
  | atomic solver xc        : PW-LDA
  | compute density gradient: 0
  | compute kinetic density : F

  Species: H

  List of occupied orbitals and eigenvalues:
    n    l              occ      energy [Ha]    energy [eV]
    1    0           1.0000        -0.232375        -6.3233


  Species: C

  List of occupied orbitals and eigenvalues:
    n    l              occ      energy [Ha]    energy [eV]
    1    0           2.0000        -9.944615      -270.6068
    2    0           2.0000        -0.498807       -13.5732
    2    1           2.0000        -0.196968        -5.3598


  Adding cutoff potential to free-atom effective potential.
  Creating fixed part of basis set: Ionic, confined, hydrogenic.
 
  H                    hydrogenic:
 
  List of hydrogenic basis orbitals: 
    n    l      effective z      eigenvalue [eV]  inner max. [A]     outer max. [A]     outer radius [A]   
    2    0         2.100000       -14.9728           0.193243           1.317208           4.583499
    2    1         3.500000       -41.6669           0.602369           0.602369           3.723403
 
 
  C                    hydrogenic:
 
  List of hydrogenic basis orbitals: 
    n    l      effective z      eigenvalue [eV]  inner max. [A]     outer max. [A]     outer radius [A]   
    2    1         1.700000        -9.7616           1.230570           1.230570           4.607917
    3    2         6.000000       -54.4224           0.792453           0.792453           3.883070
    2    0         4.900000       -81.6679           0.082559           0.562749           3.078220
 
  Creating atomic-like basis functions for current effective potential.

  Species H                   :

  List of atomic basis orbitals and eigenvalues:
    n    l      energy [Ha]    energy [eV]    outer radius [A]
    1    0        -0.232375        -6.3233       4.527807


  Species C                   :

  List of atomic basis orbitals and eigenvalues:
    n    l      energy [Ha]    energy [eV]    outer radius [A]
    1    0        -9.944615      -270.6068       1.934409
    2    0        -0.498807       -13.5732       4.496620
    2    1        -0.196968        -5.3598       4.551928

  Assembling full basis from fixed parts.
  | Species H :   atomic orbital   1 s accepted.
  | Species H :    hydro orbital   2 s accepted.
  | Species H :    hydro orbital   2 p accepted.
  | Species C :   atomic orbital   1 s accepted.
  | Species C :    hydro orbital   2 s accepted.
  | Species C :   atomic orbital   2 s accepted.
  | Species C :   atomic orbital   2 p accepted.
  | Species C :    hydro orbital   2 p accepted.
  | Species C :    hydro orbital   3 d accepted.
 
  Basis size parameters after reduction:
  | Total number of radial functions:        9
  | Total number of basis functions :     1440
 
  Per-task memory consumption for arrays in subroutine allocate_ext:
  |           2.242384MB.
  Testing on-site integration grid accuracy.
  |  Species  Function  <phi|h_atom|phi> (log., in eV)  <phi|h_atom|phi> (rad., in eV)
           1        1                 -6.3245358373                 -6.3232436907
           1        2                 14.1326137532                 14.1384481100
           1        3                 25.3627025200                 25.3628451197
           2        4               -270.6067544938               -270.6067222788
           2        5                -10.5634280949                -10.5635685736
           2        6                 16.2089822398                 16.2052121796
           2        7                 -5.3613872565                 -5.3627872378
           2        8                  8.5292058327                  8.5051734780
           2        9                 27.4884461005                 27.4884542459

  Preparing densities etc. for the partition functions (integrals / Hartree potential).

  Preparations completed.
  max(cpu_time)          :      0.101 s.
  Wall clock time (cpu1) :      0.086 s.
------------------------------------------------------------

  Initializing index lists of integration centers etc. from given atomic structure:
  Mapping all atomic coordinates to central unit cell.

  Initializing the k-points
  Using symmetry for reducing the k-points
  | k-points reduced from:        2 to        2
  | Number of k-points                             :         2
  | Consuming          0 KiB for k_phase_exx.
  The eigenvectors in the calculations are REAL.
  | Number of basis functions in the Hamiltonian integrals :      8056
  | Number of basis functions in a single unit cell        :      1440
  | Number of centers in hartree potential         :      3317
  | Number of centers in hartree multipole         :      2533
  | Number of centers in electron density summation:      1988
  | Number of centers in basis integrals           :      2099
  | Number of centers in integrals                 :       958
  | Number of centers in hamiltonian               :      1998
  | Consuming          1 KiB for k_phase.
  | Number of super-cells (origin) [n_cells]                     :         175
  | Number of super-cells (after PM_index) [n_cells]             :          38
  | Number of super-cells in hamiltonian [n_cells_in_hamiltonian]:          38
  | Size of matrix packed + index [n_hamiltonian_matrix_size] :     1931643
  | Size of matrix packed + index (no_symmetry):     3860469

------------------------------------------------------------
          Begin self-consistency loop: Initialization.

          Date     :  20230120, Time     :  153007.210
------------------------------------------------------------
  | Estimated reciprocal-space cutoff momentum G_max:         3.24344278 bohr^-1 .
  | Reciprocal lattice points for long-range Hartree potential:    5310
  Using simple linear distribution as default method for k-point parallelism.
  * Using 18 tasks for Scalapack Eigenvalue solver.
  Detailed listing of tasks and assigned k-points:
   Task     0 k-point     1 on adag004
   Task     1 k-point     1 on adag004
   Task     2 k-point     1 on adag004
   Task     3 k-point     1 on adag004
   Task     4 k-point     1 on adag004
   Task     5 k-point     1 on adag004
   Task     6 k-point     1 on adag004
   Task     7 k-point     1 on adag004
   Task     8 k-point     1 on adag004
   Task     9 k-point     2 on adag004
   Task    10 k-point     2 on adag004
   Task    11 k-point     2 on adag004
   Task    12 k-point     2 on adag004
   Task    13 k-point     2 on adag004
   Task    14 k-point     2 on adag004
   Task    15 k-point     2 on adag004
   Task    16 k-point     2 on adag004
   Task    17 k-point     2 on adag004
  K-point:     1 Tasks:     9 split into      3 X      3 BLACS grid
  Calculating block size based on n_basis =         1440  max_nprow =            3  max_npcol =            3
  ScaLAPACK block size set to:           16
  Allocating        1.758 MB for ovlp
  Allocating        1.758 MB for ham
  Allocating        1.758 MB for eigenvec
  Required Scalapack workspace - INTEGER:            1  REAL:             1
  Partitioning the integration grid into batches with parallel hashing+maxmin method.
  | Number of batches:     5632
  | Maximal batch size:     191
  | Minimal batch size:     101
  | Average batch size:     135.625
  | Standard deviation of batch sizes:      29.503

  Integration load balanced across    18 MPI tasks.
  Work distribution over tasks is as follows:
  Task     0 has      42449 integration points.
  Task     1 has      42455 integration points.
  Task     2 has      42377 integration points.
  Task     3 has      42446 integration points.
  Task     4 has      42431 integration points.
  Task     5 has      42436 integration points.
  Task     6 has      42408 integration points.
  Task     7 has      42455 integration points.
  Task     8 has      42412 integration points.
  Task     9 has      42438 integration points.
  Task    10 has      42434 integration points.
  Task    11 has      42483 integration points.
  Task    12 has      42441 integration points.
  Task    13 has      42427 integration points.
  Task    14 has      42444 integration points.
  Task    15 has      42430 integration points.
  Task    16 has      42424 integration points.
  Task    17 has      42450 integration points.
  Initializing partition tables, free-atom densities, potentials, etc. across the integration grid (initialize_grid_storage).
  | initialize_grid_storage: Actual outermost partition radius vs. multipole_radius_free
  | (-- VB: in principle, multipole_radius_free should be larger, hence this output)
  | Species        1: Confinement radius =              4.999999999999999 AA, multipole_radius_free =              5.054417573612229 AA.
  | Species        1: outer_partition_radius set to              5.054417573612229 AA .
  | Species        2: Confinement radius =              4.999999999999999 AA, multipole_radius_free =              5.019602836301480 AA.
  | Species        2: outer_partition_radius set to              5.019602836301480 AA .
  | The sparse table of interatomic distances needs       7541.64 kbyte instead of     35246.41 kbyte of memory.
  | Net number of integration points:   763840
  | of which are non-zero points    :   605182
  | Numerical average free-atom electrostatic potential    :     -8.61460753 eV
  Renormalizing the initial density to the exact electron count on the 3D integration grid.
  | Initial density: Formal number of electrons (from input files) :     544.0000000000
  | Integrated number of electrons on 3D grid     :     543.9911833391
  | Charge integration error                      :      -0.0088166609
  | Normalization factor for density and gradient :       1.0000162074
  Renormalizing the free-atom superposition density to the exact electron count on the 3D integration grid.
  | Formal number of electrons (from input files) :     544.0000000000
  | Integrated number of electrons on 3D grid     :     543.9911833391
  | Charge integration error                      :      -0.0088166609
  | Normalization factor for density and gradient :       1.0000162074
  Obtaining max. number of non-zero basis functions in each batch (get_n_compute_maxes).
  | Maximal number of non-zero basis functions:      540 in task     0
  | Maximal number of non-zero basis functions:      536 in task     1
  | Maximal number of non-zero basis functions:      547 in task     2
  | Maximal number of non-zero basis functions:      535 in task     3
  | Maximal number of non-zero basis functions:      541 in task     4
  | Maximal number of non-zero basis functions:      545 in task     5
  | Maximal number of non-zero basis functions:      537 in task     6
  | Maximal number of non-zero basis functions:      533 in task     7
  | Maximal number of non-zero basis functions:      544 in task     8
  | Maximal number of non-zero basis functions:      539 in task     9
  | Maximal number of non-zero basis functions:      534 in task    10
  | Maximal number of non-zero basis functions:      548 in task    11
  | Maximal number of non-zero basis functions:      541 in task    12
  | Maximal number of non-zero basis functions:      545 in task    13
  | Maximal number of non-zero basis functions:      526 in task    14
  | Maximal number of non-zero basis functions:      532 in task    15
  | Maximal number of non-zero basis functions:      535 in task    16
  | Maximal number of non-zero basis functions:      562 in task    17
  Integrating Hamiltonian matrix: batch-based integration.
  GPU acceleration will be used when integrating the Hamiltonian matrix.
  Reporting GPU memory usage by myid 0.  Note that it is likely not the only MPI task binding to its GPU!
  Allocating        2.333 MB on GPU for hamiltonian_shell
  Allocating        0.825 MB on GPU for wave
  Allocating        0.002 MB on GPU for partition
  Allocating        0.825 MB on GPU for h_times_psi
  Time summed over all CPUs for integration: real work       36.260 s, elapsed       37.296 s
  Deallocating memory used on GPU for Hamiltonian integration.
  Integrating overlap matrix.
  Time summed over all CPUs for integration: real work       30.537 s, elapsed       31.992 s
  Deallocating overlap matrix.

  Updating Kohn-Sham eigenvalues and eigenvectors using ELSI and the ELPA eigensolver.
  Singularity check in k-point 1 (analysis for other k-points may follow below):
  Overlap matrix is not singular
  | Lowest and highest eigenvalues :  0.7642E-03,  0.8253E+01
  Finished singularity check of overlap matrix
  | Time :     0.121 s
  Starting ELPA eigensolver
  Finished Cholesky decomposition
  | Time :     0.020 s
  Finished transformation to standard eigenproblem
  | Time :     0.035 s
  Finished solving standard eigenproblem
  | Time :     0.255 s
  Finished back-transformation of eigenvectors
  | Time :     0.024 s

  Obtaining occupation numbers and electronic chemical potential using ELSI.
  | Note that, for insulating systems, the printed 'chemical potential' value is not uniquely defined.
  | It can be anywhere in the energy gap, as long as it correctly separates occupied and unoccupied states.
  | In systems with a gap, the physically relevant chemical potential is the VBM or HOMO.

  | Chemical potential (Fermi level):    -7.64349070 eV
  Writing Kohn-Sham eigenvalues.
  K-point:       1 at    0.000000    0.000000    0.000000 (in units of recip. lattice)

  State    Occupation    Eigenvalue [Ha]    Eigenvalue [eV]
      1       2.00000         -10.070898         -274.04307
      2       2.00000         -10.069662         -274.00944
      3       2.00000         -10.068903         -273.98878
      4       2.00000         -10.068671         -273.98249
      5       2.00000         -10.068219         -273.97019
      6       2.00000         -10.068113         -273.96728
      7       2.00000         -10.068089         -273.96665
      8       2.00000         -10.067505         -273.95076
      9       2.00000         -10.067389         -273.94758
     10       2.00000         -10.067171         -273.94166
     11       2.00000         -10.067082         -273.93924
     12       2.00000         -10.066802         -273.93163
     13       2.00000         -10.066688         -273.92852
     14       2.00000         -10.066596         -273.92600
     15       2.00000         -10.066522         -273.92400
     16       2.00000         -10.066201         -273.91527
     17       2.00000         -10.065980         -273.90926
     18       2.00000         -10.065864         -273.90609
     19       2.00000         -10.065808         -273.90458
     20       2.00000         -10.065745         -273.90286
     21       2.00000         -10.065715         -273.90204
     22       2.00000         -10.065657         -273.90045
     23       2.00000         -10.065641         -273.90004
     24       2.00000         -10.065437         -273.89447
     25       2.00000         -10.065343         -273.89191
     26       2.00000         -10.065268         -273.88988
     27       2.00000         -10.065245         -273.88925
     28       2.00000         -10.065107         -273.88550
     29       2.00000         -10.065018         -273.88307
     30       2.00000         -10.064976         -273.88193
     31       2.00000         -10.064789         -273.87684
     32       2.00000         -10.064752         -273.87583
     33       2.00000         -10.064672         -273.87365
     34       2.00000         -10.064433         -273.86717
     35       2.00000         -10.064394         -273.86608
     36       2.00000         -10.064124         -273.85875
     37       2.00000         -10.064064         -273.85713
     38       2.00000         -10.063912         -273.85298
     39       2.00000         -10.063838         -273.85096
     40       2.00000         -10.063716         -273.84765
     41       2.00000         -10.063639         -273.84555
     42       2.00000         -10.063575         -273.84380
     43       2.00000         -10.063559         -273.84338
     44       2.00000         -10.063441         -273.84017
     45       2.00000         -10.063218         -273.83410
     46       2.00000         -10.063144         -273.83207
     47       2.00000         -10.062926         -273.82614
     48       2.00000         -10.062853         -273.82415
     49       2.00000         -10.062705         -273.82013
     50       2.00000         -10.062574         -273.81658
     51       2.00000         -10.062542         -273.81571
     52       2.00000         -10.061822         -273.79610
     53       2.00000         -10.061590         -273.78980
     54       2.00000         -10.061162         -273.77815
     55       2.00000         -10.061027         -273.77447
     56       2.00000         -10.060837         -273.76931
     57       2.00000         -10.060831         -273.76913
     58       2.00000         -10.060716         -273.76602
     59       2.00000         -10.060408         -273.75764
     60       2.00000         -10.059942         -273.74496
     61       2.00000         -10.059768         -273.74023
     62       2.00000         -10.059286         -273.72711
     63       2.00000         -10.059285         -273.72707
     64       2.00000         -10.059072         -273.72127
     65       2.00000         -10.059055         -273.72080
     66       2.00000         -10.059034         -273.72025
     67       2.00000         -10.058167         -273.69664
     68       2.00000         -10.058065         -273.69386
     69       2.00000         -10.058018         -273.69259
     70       2.00000         -10.057998         -273.69205
     71       2.00000         -10.057980         -273.69156
     72       2.00000         -10.057693         -273.68374
     73       2.00000         -10.056656         -273.65554
[...]
  |    H      0     4.527807 A      4.583499 A        4.713786E-16 a.u.
  |    H      2     3.678162 A  1.011968E+04 A            0.556529 a.u.
  |    H      1     3.958095 A  1.721251E+06 A            0.841931 a.u.
  |    H      0     4.527807 A  3.866455E+12 A            0.581436 a.u.
  |    C      0     2.562483 A      2.562483 A        6.563029E-17 a.u.
  |    C      0     2.967371 A      2.967371 A        1.352164E-16 a.u.
  |    C      0     3.003870 A      3.003870 A        2.312640E-17 a.u.
  |    C      1     3.272245 A      3.272245 A       -3.835259E-17 a.u.
  |    C      0     3.312494 A      3.312494 A       -2.710381E-16 a.u.
  |    C      3     4.077671 A      4.077671 A       -1.683752E-15 a.u.
  |    C      3     4.077671 A      4.077671 A        1.412852E-15 a.u.
  |    C      1     4.496620 A      4.496620 A       -3.011059E-16 a.u.
  |    C      0     4.496620 A      4.551928 A        2.873903E-17 a.u.
  |    C      2     4.551928 A      4.551928 A       -4.610785E-16 a.u.
  |    C      2     4.551928 A      4.551928 A        7.440584E-16 a.u.
  |    C      2     4.551928 A      4.551928 A       -7.110458E-16 a.u.
  |    C      2     4.551928 A      4.551928 A       -1.935424E-16 a.u.
  |    C      0     4.551928 A      4.607917 A        2.067142E-16 a.u.
  |    C      0     4.551928 A      4.607917 A       -1.109786E-16 a.u.
  |    C      1     4.551928 A      4.607917 A       -9.951742E-17 a.u.
  |    C      1     4.551928 A      4.607917 A        1.937809E-16 a.u.
  |    C      1     4.607917 A      4.607917 A       -2.813308E-16 a.u.
  |    C      1     4.607917 A      4.607917 A       -7.330363E-17 a.u.
  |    C      2     4.607917 A      4.607917 A        1.318462E-15 a.u.
  |    C      2     4.607917 A      4.607917 A       -1.318397E-15 a.u.
  |    C      0     4.607917 A      4.664595 A        3.157826E-16 a.u.
  |    C      1     4.607917 A      4.664595 A        7.356967E-16 a.u.
  |    C      4     3.835889 A  2.962973E+02 A            4.379483 a.u.
  |    C      3     4.127827 A  1.725964E+03 A            9.005588 a.u.
  |    C      2     4.607917 A  2.608475E+04 A            9.531178 a.u.
  |    C      1     4.607917 A  2.736013E+06 A            2.127278 a.u.
  |    C      0     4.607917 A  4.399765E+12 A            0.661635 a.u.

  | Shrink_full_auxil_basis : there are       36  radial auxiliary wave functions
                            accepted and       7 rejected.
  | Shrink_full_auxil_basis : there are totally                8992 partial auxiliary wave functions.
 
  | Maximal number of product basis functions per thread :   512   512
 
  | Minimal total memory requirement for three-center overlap :      72.476 Gbs
  | Number of local auxiliary basis functions on task:      0   512
  | Number of local auxiliary basis functions on task:      1   512
  | Number of local auxiliary basis functions on task:      2   512
  | Number of local auxiliary basis functions on task:      3   512
  | Number of local auxiliary basis functions on task:      4   496
  | Number of local auxiliary basis functions on task:      5   496
  | Number of local auxiliary basis functions on task:      6   496
  | Number of local auxiliary basis functions on task:      7   496
  | Number of local auxiliary basis functions on task:      8   496
  | Number of local auxiliary basis functions on task:      9   496
  | Number of local auxiliary basis functions on task:     10   496
  | Number of local auxiliary basis functions on task:     11   496
  | Number of local auxiliary basis functions on task:     12   496
  | Number of local auxiliary basis functions on task:     13   496
  | Number of local auxiliary basis functions on task:     14   496
  | Number of local auxiliary basis functions on task:     15   496
  | Number of local auxiliary basis functions on task:     16   496
  | Number of local auxiliary basis functions on task:     17   496
  | 2D aux task distribution:      3 X      6
  | 2D block size (nb_aux_2d):     64
 
  Basis pair condensation :   1037520  -->     549583
 
 --------------------------------------------
  Constructing auxiliary basis (full product) ...
 
  Product basis:
  | charge radius: extent of product basis function
  | field radius: extent of its Coulomb potential
  | Species   l  charge radius    field radius  multipol momen
  |    H      1     3.910002 A      3.910002 A       -2.487223E-16 a.u.
  |    H      1     3.958095 A      3.958095 A       -2.441841E-16 a.u.
  |    H      0     4.527807 A      4.527807 A        1.268855E-16 a.u.
  |    H      0     4.527807 A      4.583499 A       -4.900954E-17 a.u.
  |    H      0     4.527807 A      4.583499 A        4.713786E-16 a.u.
  |    H      2     3.678162 A  1.011968E+04 A            0.556529 a.u.
  |    H      1     3.958095 A  1.721251E+06 A            0.841931 a.u.
  |    H      0     4.527807 A  3.866455E+12 A            0.581436 a.u.
  |    C      0     2.562483 A      2.562483 A        6.563029E-17 a.u.
  |    C      0     2.967371 A      2.967371 A        1.352164E-16 a.u.
  |    C      0     3.003870 A      3.003870 A        2.312640E-17 a.u.
  |    C      1     3.272245 A      3.272245 A       -3.835259E-17 a.u.
  |    C      0     3.312494 A      3.312494 A       -2.710381E-16 a.u.
  |    C      3     4.077671 A      4.077671 A       -1.683752E-15 a.u.
  |    C      3     4.077671 A      4.077671 A        1.412852E-15 a.u.
  |    C      1     4.496620 A      4.496620 A       -3.011059E-16 a.u.
  |    C      0     4.496620 A      4.551928 A        2.873903E-17 a.u.
  |    C      2     4.551928 A      4.551928 A       -4.610785E-16 a.u.
  |    C      2     4.551928 A      4.551928 A        7.440584E-16 a.u.
  |    C      2     4.551928 A      4.551928 A       -7.110458E-16 a.u.
  |    C      2     4.551928 A      4.551928 A       -1.935424E-16 a.u.
  |    C      0     4.551928 A      4.607917 A        2.067142E-16 a.u.
  |    C      0     4.551928 A      4.607917 A       -1.109786E-16 a.u.
  |    C      1     4.551928 A      4.607917 A       -9.951742E-17 a.u.
  |    C      1     4.551928 A      4.607917 A        1.937809E-16 a.u.
  |    C      1     4.607917 A      4.607917 A       -2.813308E-16 a.u.
  |    C      1     4.607917 A      4.607917 A       -7.330363E-17 a.u.
  |    C      2     4.607917 A      4.607917 A        1.318462E-15 a.u.
  |    C      2     4.607917 A      4.607917 A       -1.318397E-15 a.u.
  |    C      0     4.607917 A      4.664595 A        3.157826E-16 a.u.
  |    C      1     4.607917 A      4.664595 A        7.356967E-16 a.u.
  |    C      4     3.835889 A  2.962973E+02 A            4.379483 a.u.
  |    C      3     4.127827 A  1.725964E+03 A            9.005588 a.u.
  |    C      2     4.607917 A  2.608475E+04 A            9.531178 a.u.
  |    C      1     4.607917 A  2.736013E+06 A            2.127278 a.u.
  |    C      0     4.607917 A  4.399765E+12 A            0.661635 a.u.

  | Shrink_full_auxil_basis : there are       36  radial auxiliary wave functions
                            accepted and       7 rejected.
  | Shrink_full_auxil_basis : there are totally                8992 partial auxiliary wave functions.
 
  | Maximal number of product basis functions per thread :   512   512
 
  | Minimal total memory requirement for three-center overlap :      72.476 Gbs
  | Number of local auxiliary basis functions on task:      0   512
  | Number of local auxiliary basis functions on task:      1   512
  | Number of local auxiliary basis functions on task:      2   512
  | Number of local auxiliary basis functions on task:      3   512
  | Number of local auxiliary basis functions on task:      4   496
  | Number of local auxiliary basis functions on task:      5   496
  | Number of local auxiliary basis functions on task:      6   496
  | Number of local auxiliary basis functions on task:      7   496
  | Number of local auxiliary basis functions on task:      8   496
  | Number of local auxiliary basis functions on task:      9   496
  | Number of local auxiliary basis functions on task:     10   496
  | Number of local auxiliary basis functions on task:     11   496
  | Number of local auxiliary basis functions on task:     12   496
  | Number of local auxiliary basis functions on task:     13   496
  | Number of local auxiliary basis functions on task:     14   496
  | Number of local auxiliary basis functions on task:     15   496
  | Number of local auxiliary basis functions on task:     16   496
  | Number of local auxiliary basis functions on task:     17   496
  | 2D aux task distribution:      3 X      6
  | 2D block size (nb_aux_2d):     64
 
  Basis pair condensation :   1037520  -->     549583
  Allocating        0.069 MB for t_coeff
  Allocating        0.034 MB for basbas_idx
  Allocating        0.069 MB for wave
  Allocating        0.069 MB for total_wave
  Allocating        0.206 MB for wave_gradient
  Allocating        0.206 MB for total_wave_grad
 HERE1
 HERE2
  Deallocating        0.069 MB for t_coeff
  Deallocating        0.034 MB for basbas_idx
  Deallocating        0.069 MB for wave
  Deallocating        0.206 MB for wave_gradient
  Deallocating        0.206 MB for total_wave_grad
dP_dE (Bohr^3) at every cycle:--->
 (998.182460237438,0.000000000000000E+000) (-13.3776301777967,0.000000000000000E+000) (-458.040941308764,0.000000000000000E+000)
 (-13.3880836821518,0.000000000000000E+000) (1356.47253435649,0.000000000000000E+000) (3.65347186611930,0.000000000000000E+000)
 (-458.249127664697,0.000000000000000E+000) (3.64077050052965,0.000000000000000E+000) (1698.78617582530,0.000000000000000E+000)
DFPT polarizability (Bohr^3)        xx        yy        zz        xy        xz        yz
  | Polarizability:--->                       998.182460237                 1356.472534356                 1698.786175825                  -13.377630178                 -458.040941309                    3.653471866

DFPT for dielectric_constant:--->  # PARSE DFPT_dielectric_tensor
               2.354512306877505            -0.018153158800618            -0.621551787144103
              -0.018167343983050             2.840704294974425             0.004957683392185
              -0.621834291588400             0.004940447910005             3.305216604749193

                                               :  max(cpu_time)    wall_clock(cpu1)
  | Time for  dielectric calculation            :        0.000 s           0.000 s
===========================================================================

------------------------------------------------------------------------------
  Final output of selected total energy values:

  The following output summarizes some interesting total energy values
  at the end of a run (AFTER all relaxation, molecular dynamics, etc.).

  | Total energy of the DFT / Hartree-Fock s.c.f. calculation      :         -83267.589346742 eV
  | Final zero-broadening corrected energy (caution - metals only) :         -83267.589346742 eV
  | For reference only, the value of 1 Hartree used in FHI-aims is :             27.211384500 eV
  | For reference only, the overall average (free atom contribution
  | + realspace contribution) of the electrostatic potential after
  | s.c.f. convergence is                                          :             -7.700565500 eV

  Before relying on these values, please be sure to understand exactly which
  total energy value is referred to by a given number. Different objects may
  all carry the same name 'total energy'. Definitions:

  Total energy of the DFT / Hartree-Fock s.c.f. calculation:
  | Note that this energy does not include ANY quantities calculated after the
  | s.c.f. cycle, in particular not ANY RPA, MP2, etc. many-body perturbation terms.

  Final zero-broadening corrected energy:
  | For metallic systems only, a broadening of the occupation numbers at the Fermi
  | level can be extrapolated back to zero broadening by an electron-gas inspired
  | formula. For all systems that are not real metals, this value can be
  | meaningless and should be avoided.

------------------------------------------------------------------------------
  Methods described in the following list of references were used in this FHI-aims run.
  If you publish the results, please make sure to cite these reference if they apply.
  FHI-aims is an academic code, and for our developers (often, Ph.D. students
  and postdocs), scientific credit in the community is essential.
  Thank you for helping us!

  For any use of FHI-aims, please cite:

    Volker Blum, Ralf Gehrke, Felix Hanke, Paula Havu, Ville Havu,
    Xinguo Ren, Karsten Reuter, and Matthias Scheffler
    'Ab initio molecular simulations with numeric atom-centered orbitals'
    Computer Physics Communications 180, 2175-2196 (2009)
    http://doi.org/10.1016/j.cpc.2009.06.022


  For Hartree-Fock, hybrid functionals, or many-body perturbation theory used in your run, please cite:

    Xinguo Ren, Patrick Rinke, Volker Blum, Juergen Wieferink, Alex Tkatchenko,
    Andrea Sanfilippo, Karsten Reuter, and Matthias Scheffler,
    'Resolution-of-identity approach to Hartree-Fock, hybrid density functionals,
    RPA, MP2, and GW with numeric atom-centered orbital basis functions'
    New Journal of Physics 14, 053020 (2012).
    http://doi.org/10.1088/1367-2630/14/5/053020


  The provided symmetry information was generated with SPGlib:

    Atsushi Togo, Yusuke Seto, Dimitar Pashov
    SPGlib 1.7.3 obtained from http://spglib.sourceforge.net
    Copyright (C) 2008 Atsushi Togo


  The DFPT (perturbation by an electric field) part of the code was used.
  Here is the corresponding reference:

    Honghui Shang, Nathaniel Raimbault, Mariana Rossi,
    Christian Carbogno, Patrick Rinke and Matthias Scheffler,
    'All-Electron, Real-Space Perturbation Theory for Homogeneous
    Electric Fields: Theory, Implementation, and Application within dft'
    New Journal of Physics, 20(7):073040, 2018


  The ELSI infrastructure was used in your run to solve the Kohn-Sham electronic structure.
  Please check out http://elsi-interchange.org to learn more.
  If scalability is important for your project, please acknowledge ELSI by citing:

    V. W-z. Yu, F. Corsetti, A. Garcia, W. P. Huhn, M. Jacquelin, W. Jia,
    B. Lange, L. Lin, J. Lu, W. Mi, A. Seifitokaldani, A. Vazquez-Mayagoitia,
    C. Yang, H. Yang, and V. Blum
    'ELSI: A unified software interface for Kohn-Sham electronic structure solvers'
    Computer Physics Communications 222, 267-285 (2018).
    http://doi.org/10.1016/j.cpc.2017.09.007


  For the real-space grid partitioning and parallelization used in this calculation, please cite:

    Ville Havu, Volker Blum, Paula Havu, and Matthias Scheffler,
    'Efficient O(N) integration for all-electron electronic structure calculation'
    'using numerically tabulated basis functions'
    Journal of Computational Physics 228, 8367-8379 (2009).
    http://doi.org/10.1016/j.jcp.2009.08.008


  The high-level electronic structure method used in your calculation
  employed our efficient localized resolution of identity for the Coulomb operator.
  Some calculations, especially large-scale hybrid density functional theory,
  are only possible thanks to this development. For this feature, please cite:

    Arvid Ihrig, Juergen Wieferink, Igor Ying Zhang, Matti Ropo, Xinguo Ren,
    Patrick Rinke, Matthias Scheffler, and Volker Blum,
    'Accurate localized resolution of identity approach for linear-scaling
    hybrid density functionals and for many-body perturbation theory'
    New Journal of Physics 117, 093020 (2015).
    http://doi.org/10.1088/1367-2630/17/9/093020

  Of course, there are many other important community references, e.g., those cited in the
  above references. Our list is limited to references that describe implementations in the
  FHI-aims code. The reason is purely practical (length of this list) - please credit others as well.

------------------------------------------------------------
          Leaving FHI-aims.
          Date     :  20230120, Time     :  155452.311

          Computational steps:
          | Number of self-consistency cycles          :           47
          | Number of SCF (re)initializations          :            1
          | Number of coupled perturbed self-consistency cycles          :            0
          | Number of CPSCF (re)initializations          :            0

          Detailed time accounting                     :  max(cpu_time)    wall_clock(cpu1)
          | Total time                                  :     1488.283 s        1502.424 s
          | GPU initialization                          :        2.816 s          16.032 s
          | Preparation time                            :        0.101 s           0.086 s
          | Boundary condition initalization            :        1.035 s           1.036 s
          | Grid partitioning                           :        1.272 s           1.271 s
          | Preloading free-atom quantities on grid     :        3.888 s           3.890 s
          | Free-atom superposition energy              :        0.500 s           0.500 s
          | Total time for integrations                 :       29.064 s          29.186 s
          | Product basis setup: Total time             :        0.000 s           0.000 s
          | Product basis: | 2-center integrations     :(       0.000 s)  (       0.000 s)
          | Product basis: | LVL 3-center & coefficient:(       0.000 s)  (       0.000 s)
          | Total time for solution of K.-S. equations  :        4.239 s           4.242 s
          | Total time for density update               :       21.980 s          22.148 s
          | Total time for mixing & preconditioning     :       11.621 s          11.627 s
          | Total time for Hartree multipole update     :        0.095 s           0.095 s
          | Total time for Hartree multipole sum        :       43.358 s          43.373 s
          | Total time for total energy evaluation      :        0.006 s           0.003 s
          | Total time first_order_DM                   :        1.925 s           1.923 s
          | Total time first_order_density              :      310.792 s         310.858 s
          | Total time first_order_potential            :      120.168 s         120.197 s
          | Total time first_order_H                    :      589.956 s         590.115 s
          | Total time solving of Sternheimer equations :        1.822 s           1.822 s
          | Total time for dielectric constant          :        0.000 s           0.000 s
          | Total time momentum matrix                  :        0.000 s           0.000 s

          GPU acceleration has been used for charge density update.
          GPU acceleration has been used for real-space Hamiltonian integration.
          Due to GPU usage, wall_clock(cpu1) will give a more reliable estimate for timings.

          Partial memory accounting:
          | Residual value for overall tracked memory usage across tasks:     1.234863 MB (should be 0.000000 MB)
          |
          | Largest tracked array allocation:
          |   Minimum:      103.161 MB (DFPT_pulay_mixing::initialize_pulay_mixing::X_in_diffs on task  0)
          |   Maximum:      103.161 MB (DFPT_pulay_mixing::initialize_pulay_mixing::X_in_diffs on task  0)
          |   Average:      103.161 MB
          |
          | Because the residual tracked memory usage was not zero, the peak value for overall
          | tracked memory usage was not output, as it is probably incorrect.  This is likely due
          | to a missing aims_deallocate statement in the source code, which should be otherwise
          | harmless.
          |
          Note:  These values currently only include a subset of arrays which are explicitly tracked.
          The "true" memory usage will be greater.

          Have a nice day.
------------------------------------------------------------
