------------------------------------------------------------
          Invoking FHI-aims ...

          When using FHI-aims, please cite the following reference:

            Volker Blum, Ralf Gehrke, Felix Hanke, Paula Havu,
            Ville Havu, Xinguo Ren, Karsten Reuter, and Matthias Scheffler,
            'Ab Initio Molecular Simulations with Numeric Atom-Centered Orbitals',
            Computer Physics Communications 180, 2175-2196 (2009)

          In addition, many other developments in FHI-aims are likely important for
          your particular application. A partial list of references is given at the end of
          this file. Thank you for giving credit to the authors of these developments.

          For any questions about FHI-aims, please visit our slack channel at

            https://fhi-aims.slack.com

          and our main development and support site at

            https://aims-git.rz-berlin.mpg.de .

          The latter site, in particular, has a wiki to collect information, as well
          as an issue tracker to log discussions, suggest improvements, and report issues
          or bugs. https://aims-git.rz-berlin.mpg.de is also the main development site
          of the project and all new and updated code versions can be obtained there.
          Please send an email to aims-coordinators@fhi-berlin.mpg.de and we will add
          you to these sites. They are for you and everyone is welcome there.

------------------------------------------------------------



  Date     :  20230120, Time     :  150317.132
  Time zero on CPU 1             :   0.422562000000000E+00  s.
  Internal wall clock time zero  :           443458997.132  s.

  FHI-aims created a unique identifier for this run for later identification
  aims_uuid : EEA3DA69-AEAC-4DBA-A33A-1856A31FA356

  Build configuration of the current instance of FHI-aims
  -------------------------------------------------------
  FHI-aims version      : 220829
  Commit number         : 9895fc21d
  CMake host system     : Linux-5.3.18-150300.59.68-default
  CMake version         : 3.17.0
  Fortran compiler      : /mpcdf/soft/SLE_15/packages/x86_64/intel_oneapi/2021.3/mpi/2021.3.0/bin/mpiifort (Intel) version 20.2.3.20210609
  Fortran compiler flags: -O3 -ip -fp-model precise
  C compiler            : /mpcdf/soft/SLE_15/packages/x86_64/intel/2021.3.0/bin/icc (Intel) version 20.2.3.20210609
  C compiler flags      : -O3 -ip -fp-model precise -std=gnu99
  CUDA compiler         : /mpcdf/soft/SLE_15/packages/x86_64/cuda/11.6.2/bin/nvcc
  CUDA compiler flags   : -O3 -DAdd_ -lcublas
  ELPA2 kernel          : AVX512
  Using MPI
  Using ScaLAPACK
  Using LibXC
  Using CUDA
  Using i-PI
  Using RLSY
  Linking against: /mpcdf/soft/SLE_15/packages/x86_64/cuda/11.6.2/lib64/libcublas.so
                   /mpcdf/soft/SLE_15/packages/x86_64/cuda/11.6.2/lib64/libcudart.so
                   /mpcdf/soft/SLE_15/packages/x86_64/intel_oneapi/2021.3/mkl/latest/lib/intel64/libmkl_intel_lp64.so
                   /mpcdf/soft/SLE_15/packages/x86_64/intel_oneapi/2021.3/mkl/latest/lib/intel64/libmkl_sequential.so
                   /mpcdf/soft/SLE_15/packages/x86_64/intel_oneapi/2021.3/mkl/latest/lib/intel64/libmkl_core.so
                   /mpcdf/soft/SLE_15/packages/x86_64/intel_oneapi/2021.3/mkl/latest/lib/intel64/libmkl_blacs_intelmpi_lp64.so
                   /mpcdf/soft/SLE_15/packages/x86_64/intel_oneapi/2021.3/mkl/latest/lib/intel64/libmkl_scalapack_lp64.so

  Using       18 parallel tasks.
  Task        0 on host adag003 reporting.
  Task        1 on host adag003 reporting.
  Task        2 on host adag003 reporting.
  Task        3 on host adag003 reporting.
  Task        4 on host adag003 reporting.
  Task        5 on host adag003 reporting.
  Task        6 on host adag003 reporting.
  Task        7 on host adag003 reporting.
  Task        8 on host adag003 reporting.
  Task        9 on host adag003 reporting.
  Task       10 on host adag003 reporting.
  Task       11 on host adag003 reporting.
  Task       12 on host adag003 reporting.
  Task       13 on host adag003 reporting.
  Task       14 on host adag003 reporting.
  Task       15 on host adag003 reporting.
  Task       16 on host adag003 reporting.
  Task       17 on host adag003 reporting.

  Performing system and environment tests:
  | Environment variable OMP_NUM_THREADS correctly set to 1.
  | Checking for ScaLAPACK...
  | Testing pdtran()...
  | All pdtran() tests passed.

  Obtaining array dimensions for all initial allocations:
  
  -----------------------------------------------------------------------
  Parsing control.in (first pass over file, find array dimensions only).
  The contents of control.in will be repeated verbatim below
  unless switched off by setting 'verbatim_writeout .false.' .
  in the first line of control.in .
  -----------------------------------------------------------------------
  
  #
  # Input for polarizability replays on generic oligoacene molecular crystals (light settings,  LDA+MBD).
  #
  #########################################################################################
  #
  #  Physical model
  #
    xc                 pw-lda
    spin               none
    relativistic       none
    charge             0.0
    k_grid 	     2 1 1
    DFPT dielectric
  #
  #  GPU acceleration
  #
  # Turns on GPU acceleration everywhere
    use_gpu
  
  # Turns OFF GPU acceleration of ELPA - may be necessary if GPU ELPA is slow
    elsi_elpa_gpu 0
  #
  #  Relaxation
  #
  #  relax_geometry trm 1E-3
  #  relax_unit_cell fixed_angles
  #
  #  SCF convergence        #
    charge_mix_param   0.75
    #sc_accuracy_rho 1E-4
  #
  # i-PI communication
  #
  compute_forces .false.
  # use_pimd_wrapper 130.183.223.27 26118
  #communicate_pimd_wrapper polarizability
  #output_level MD_light
  #
  # Output SALTED info
    ri_density_restart write
    ri_rho1 write
    ri_full_output .true.
  #  sc_accuracy_rho    1d-6
    default_prodbas_acc 1e-6
    default_max_l_prodbas 6
  #
  #
  ################################################################################
  #
  #  FHI-aims code project
  #  VB, Fritz-Haber Institut, 2009
  #
  #  Suggested "light" defaults for H atom (to be pasted into control.in file)
  #  Be sure to double-check any results obtained with these settings for post-processing,
  #  e.g., with the "tight" defaults and larger basis sets.
  #
  ################################################################################
    species        H
  #     global species definitions
      nucleus             1
      mass                1.00794
  #
      l_hartree           4
  #
      cut_pot             3.5  1.5  1.0
      basis_dep_cutoff    1e-4
  #
      radial_base         24 5.0
      radial_multiplier   1
      angular_grids       specified
        division   0.2421   50
        division   0.3822  110
        division   0.4799  194
        division   0.5341  302
  #      division   0.5626  434
  #      division   0.5922  590
  #      division   0.6542  770
  #      division   0.6868 1202
  #      outer_grid  770
        outer_grid  302
  ################################################################################
  #
  #  Definition of "minimal" basis
  #
  ################################################################################
  #     valence basis states
      valence      1  s   1.
  #     ion occupancy
      ion_occ      1  s   0.5
  ################################################################################
  #
  #  Suggested additional basis functions. For production calculations,
  #  uncomment them one after another (the most important basis functions are
  #  listed first).
  #
  #  Basis constructed for dimers: 0.5 A, 0.7 A, 1.0 A, 1.5 A, 2.5 A
  #
  ################################################################################
  #  "First tier" - improvements: -1014.90 meV to -62.69 meV
       hydro 2 s 2.1
       hydro 2 p 3.5
  #  "Second tier" - improvements: -12.89 meV to -1.83 meV
  #     hydro 1 s 0.85
  #     hydro 2 p 3.7
  #     hydro 2 s 1.2
  #     hydro 3 d 7
  #  "Third tier" - improvements: -0.25 meV to -0.12 meV
  #     hydro 4 f 11.2
  #     hydro 3 p 4.8
  #     hydro 4 d 9
  #     hydro 3 s 3.2
  ################################################################################
  ################################################################################
  #
  #  FHI-aims code project
  #  VB, Fritz-Haber Institut, 2009
  #
  #  Suggested "light" defaults for C atom (to be pasted into control.in file)
  #  Be sure to double-check any results obtained with these settings for post-processing,
  #  e.g., with the "tight" defaults and larger basis sets.
  #
  ################################################################################
    species        C
  #     global species definitions
      nucleus             6
      mass                12.0107
  #
      l_hartree           4
  #
      cut_pot             3.5  1.5  1.0
      basis_dep_cutoff    1e-4
  #
      radial_base         34 5.0
      radial_multiplier   1
      angular_grids specified
        division   0.3326   50
        division   0.5710  110
        division   0.7727  194
        division   0.8772  302
  #      division   0.9334  434
  #      division   0.9625  590
  #      division   0.9924  770
  #      division   1.0230  974
  #      division   1.4589 1202
  #     outer_grid  974
       outer_grid 302
  ################################################################################
  #
  #  Definition of "minimal" basis
  #
  ################################################################################
  #     valence basis states
      valence      2  s   2.
      valence      2  p   2.
  #     ion occupancy
      ion_occ      2  s   1.
      ion_occ      2  p   1.
  ################################################################################
  #
  #  Suggested additional basis functions. For production calculations,
  #  uncomment them one after another (the most important basis functions are
  #  listed first).
  #
  #  Constructed for dimers: 1.0 A, 1.25 A, 1.5 A, 2.0 A, 3.0 A
  #
  ################################################################################
  #  "First tier" - improvements: -1214.57 meV to -155.61 meV
       hydro 2 p 1.7
       hydro 3 d 6
       hydro 2 s 4.9
  #  "Second tier" - improvements: -67.75 meV to -5.23 meV
  #     hydro 4 f 9.8
  #     hydro 3 p 5.2
  #     hydro 3 s 4.3
  #     hydro 5 g 14.4
  #     hydro 3 d 6.2
  #  "Third tier" - improvements: -2.43 meV to -0.60 meV
  #     hydro 2 p 5.6
  #     hydro 2 s 1.4
  #     hydro 3 d 4.9
  #     hydro 4 f 11.2
  #  "Fourth tier" - improvements: -0.39 meV to -0.18 meV
  #     hydro 2 p 2.1
  #     hydro 5 g 16.4
  #     hydro 4 d 13.2
  #     hydro 3 s 13.6
  #     hydro 4 f 17.6
  #  Further basis functions - improvements: -0.08 meV and below
  #     hydro 3 s 2
  #     hydro 3 p 6
  #     hydro 4 d 20
  
  -----------------------------------------------------------------------
  Completed first pass over input file control.in .
  -----------------------------------------------------------------------
  
  
  -----------------------------------------------------------------------
  Parsing geometry.in (first pass over file, find array dimensions only).
  The contents of geometry.in will be repeated verbatim below
  unless switched off by setting 'verbatim_writeout .false.' .
  in the first line of geometry.in .
  -----------------------------------------------------------------------
  
  #=======================================================
  # FHI-aims file: /ada/ptmp/mpsd/alewis/naphthalene/qmdata/data/geoms/394.in
  # Created using the Atomic Simulation Environment (ASE)
  # Thu Jan 19 15:19:17 2023
  #=======================================================
  lattice_vector 8.1020000000000003 0.0000000000000000 0.0000000000000000
  lattice_vector 0.0000000000000000 11.8800000000000008 0.0000000000000000
  lattice_vector -9.7850918486534706 0.0000000000000000 14.2571119625755713
  atom -0.6744850000000000 0.1113840000000000 2.3411200000000001 C
  atom 0.1269310000000000 3.2391600000000000 4.8816199999999998 C
  atom 4.0934200000000001 5.6613499999999997 4.7606099999999998 C
  atom 3.2100700000000000 2.7345400000000000 2.3812199999999999 C
  atom 0.1433280000000000 0.9137290000000000 1.5925600000000000 C
  atom -0.6182630000000000 4.0524600000000000 5.6921799999999996 C
  atom 3.3259400000000001 4.8489599999999999 5.5732799999999996 C
  atom 4.0278900000000002 1.8870800000000001 1.6759900000000001 C
  atom 0.4235360000000000 0.6010440000000000 0.2268490000000000 C
  atom -0.9700790000000000 3.6272000000000002 7.0069400000000002 C
  atom 3.0410900000000001 5.2954400000000001 6.9148100000000001 C
  atom 4.3982999999999999 2.2115499999999999 0.3239430000000000 C
  atom -3.7917700000000001 1.5296099999999999 6.6521600000000003 C
  atom 3.1142300000000001 4.3077399999999999 0.5415190000000000 C
  atom 7.2267000000000001 4.3420699999999997 0.5336649999999999 C
  atom 0.3095110000000000 1.5655500000000000 6.6580599999999999 C
  atom -3.4168200000000000 1.1765099999999999 5.3751199999999999 C
  atom 2.7606600000000001 3.9558800000000001 1.8158799999999999 C
  atom 6.8086500000000001 4.7489699999999999 1.7928200000000001 C
  atom 0.5689109999999999 1.9677199999999999 5.3414000000000001 C
  atom -1.0021500000000001 0.4522060000000000 3.3329599999999999 H
  atom 0.4019190000000000 3.5824799999999999 3.8834000000000000 H
  atom 4.3145600000000002 5.3023100000000003 3.7375799999999999 H
  atom 2.9049800000000001 2.4645899999999998 3.4131499999999999 H
  atom 0.4122430000000000 1.9004600000000000 1.9541900000000001 H
  atom -0.9857240000000000 5.0381200000000002 5.3941100000000004 H
  atom 3.0268600000000001 3.8520400000000001 5.2631199999999998 H
  atom 4.3783099999999999 0.9464110000000000 2.1007699999999998 H
  atom -3.3915299999999999 2.4432700000000001 7.1448000000000000 H
  atom 2.8813599999999999 5.2794499999999998 0.1261540000000000 H
  atom 6.8652300000000004 3.3999799999999998 0.1057260000000000 H
  atom 0.7097890000000000 0.5872340000000000 6.9664599999999997 H
  atom -2.7668900000000001 1.7686599999999999 4.7486600000000001 H
  atom 2.2267199999999998 4.6861699999999997 2.4389799999999999 H
  atom 6.1986200000000000 4.0990599999999997 2.4075400000000000 H
  atom 1.0959500000000000 1.2615799999999999 4.7123499999999998 H
  atom -5.7919000000000000 0.1629030000000000 9.4768000000000008 C
  atom -4.6792699999999998 2.9655700000000000 11.9550000000000001 C
  atom -0.5916460000000000 5.8388099999999996 11.9586000000000006 C
  atom -1.6486799999999999 2.7560799999999999 9.5785099999999996 C
  atom -5.0489899999999999 1.0352699999999999 8.7271400000000003 C
  atom -5.5071300000000001 3.8217200000000000 12.6723999999999997 C
  atom -1.3553800000000000 4.9324800000000000 12.6728000000000005 C
  atom -0.8207910000000000 1.9416700000000000 8.8022899999999993 C
  atom -4.6368999999999998 0.7028190000000000 7.4149000000000003 C
  atom -5.8558300000000001 3.4697300000000002 14.0090000000000003 C
  atom -1.7980200000000000 5.2527200000000001 13.9932999999999996 C
  atom -0.4898780000000000 2.3628700000000000 7.4957399999999996 C
  atom -8.6138300000000001 1.4781100000000000 13.6669999999999998 C
  atom -1.7064200000000000 4.4882200000000001 7.8765799999999997 C
  atom 2.2566000000000002 4.5360600000000000 7.7815899999999996 C
  atom -4.5293900000000002 1.3576600000000001 13.7995999999999999 C
  atom -8.3621099999999995 1.1430700000000000 12.3458000000000006 C
  atom -2.0644700000000000 4.0159399999999996 9.1240900000000007 C
  atom 1.9261600000000001 5.0133700000000001 9.0304800000000007 C
  atom -4.1604400000000004 1.7655500000000000 12.5153999999999996 C
  atom -6.0298100000000003 0.4482140000000000 10.4902999999999995 H
  atom -4.4896700000000003 3.2336399999999998 10.9111999999999991 H
  atom -0.2885280000000000 5.5143000000000004 10.9659999999999993 H
  atom -1.8656500000000000 2.4537200000000001 10.6273000000000000 H
  atom -4.7926599999999997 2.0260500000000001 9.1230600000000006 H
  atom -5.9202300000000001 4.7586500000000003 12.2581000000000007 H
  atom -1.6877000000000000 4.0039999999999996 12.2234999999999996 H
  atom -0.4727080000000000 0.9836360000000000 9.1899800000000003 H
  atom -8.2794299999999996 2.4267300000000001 14.0876999999999999 H
  atom -2.0183700000000000 5.4582699999999997 7.4981499999999999 H
  atom 1.8152800000000000 3.5584799999999999 7.4946299999999999 H
  atom -4.1801899999999996 0.4819960000000000 14.3064999999999998 H
  atom -7.8215199999999996 1.8702300000000001 11.7284000000000006 H
  atom -2.5848300000000002 4.6267300000000002 9.8451699999999995 H
  atom 1.3089299999999999 4.4348999999999998 9.6796299999999995 H
  atom -3.4956200000000002 1.1834499999999999 11.8720999999999997 H
  atom -0.9174740000000000 6.0145700000000000 2.3130999999999999 C
  atom 0.1179130000000000 9.0249000000000006 4.9939900000000002 C
  atom 4.2118700000000002 11.8146000000000004 4.8185700000000002 C
  atom 3.2511800000000002 8.9564800000000009 2.3982500000000000 C
  atom -0.1237010000000000 6.8754799999999996 1.5983600000000000 C
  atom -0.6856820000000000 9.8507899999999999 5.7389099999999997 C
  atom 3.4365700000000001 10.9765999999999995 5.5717699999999999 C
  atom 3.9841199999999999 8.0504499999999997 1.6502600000000001 C
  atom 0.2884120000000000 6.5187999999999997 0.2901400000000000 C
  atom -1.0195200000000000 9.5725099999999994 7.0981500000000004 C
  atom 3.0327700000000002 11.3012999999999995 6.8885199999999998 C
  atom 4.3659499999999998 8.3414900000000003 0.3163820000000000 C
  atom -3.8543799999999999 7.4244599999999998 6.4518700000000004 C
  atom 3.1481499999999998 10.4745000000000008 0.5249130000000000 C
  atom 7.2880799999999999 10.3576999999999995 0.5466440000000000 C
  atom 0.2377190000000000 7.4764200000000001 6.8378399999999999 C
  atom -3.5433300000000001 6.9618200000000003 5.1763500000000002 C
  atom 2.8293800000000000 10.1686999999999994 1.8446700000000000 C
  atom 6.9425299999999996 10.7554999999999996 1.8409700000000000 C
  atom 0.5757710000000000 7.7917699999999996 5.5501500000000004 C
  atom -1.2941000000000000 6.3226000000000004 3.2872900000000000 H
  atom 0.3673260000000000 9.3115400000000008 3.9905800000000000 H
  atom 4.4786999999999999 11.5122999999999998 3.8107500000000001 H
  atom 2.9755900000000000 8.6831600000000009 3.4285999999999999 H
  atom 0.0855247000000000 7.8562300000000000 1.9859400000000000 H
  atom -1.0320900000000000 10.7622000000000000 5.2919499999999999 H
  atom 3.2467899999999998 9.9703099999999996 5.1751600000000000 H
  atom 4.3001800000000001 7.1143200000000002 2.0780699999999999 H
  atom -3.5631900000000001 8.4344000000000001 6.8033500000000000 H
  atom 2.8739599999999998 11.4627999999999997 0.1522970000000000 H
  atom 6.8414000000000001 9.4629899999999996 0.1171580000000000 H
  atom 0.5942930000000000 6.5539800000000001 7.2913199999999998 H
  atom -3.0311800000000000 7.6807400000000001 4.5020699999999998 H
  atom 2.2691599999999998 10.9367999999999999 2.3614999999999999 H
  atom 6.2835700000000001 10.1135999999999999 2.4607500000000000 H
  atom 1.2835099999999999 7.1517099999999996 4.9741000000000000 H
  atom -5.6088100000000001 6.2361899999999997 9.5008599999999994 C
  atom -4.6684799999999997 9.0730599999999999 11.9400999999999993 C
  atom -0.6815500000000000 11.7715999999999994 11.8292999999999999 C
  atom -1.7083299999999999 8.7660499999999999 9.7439499999999999 C
  atom -4.8454400000000000 7.0198099999999997 8.6653800000000007 C
  atom -5.4696800000000003 9.9127100000000006 12.6686999999999994 C
  atom -1.4144099999999999 10.8865999999999996 12.6340000000000003 C
  atom -0.9253810000000000 7.9403499999999996 8.9836100000000005 C
  atom -4.5544599999999997 6.5592699999999997 7.3254200000000003 C
  atom -5.8516899999999996 9.6201500000000006 14.0164000000000009 C
  atom -1.7216300000000000 11.2182999999999993 13.9953000000000003 C
  atom -0.5500560000000000 8.3407099999999996 7.6651199999999999 C
  atom -8.7040400000000009 7.4046000000000003 13.7446000000000002 C
  atom -1.8174800000000000 10.3889999999999993 7.9147200000000000 C
  atom 2.3115999999999999 10.4193999999999996 7.7286900000000003 C
  atom -4.6382500000000002 7.4762399999999998 13.7719000000000005 C
  atom -8.3433899999999994 7.0906300000000000 12.4768000000000008 C
  atom -2.1611600000000002 9.9821200000000001 9.1688100000000006 C
  atom 1.9408799999999999 10.7683999999999997 9.0044299999999993 C
  atom -4.2584600000000004 7.8151599999999997 12.5044000000000004 C
  atom -5.7774500000000000 6.5176400000000001 10.5606000000000009 H
  atom -4.3772000000000002 9.3665099999999999 10.9252000000000002 H
  atom -0.5365550000000000 11.5704999999999991 10.8045000000000009 H
  atom -2.0606599999999999 8.5041300000000000 10.7253000000000007 H
  atom -4.4926800000000000 7.9681100000000002 9.0498899999999995 H
  atom -5.8453700000000000 10.8727000000000000 12.2567000000000004 H
  atom -1.8058500000000000 9.9312000000000005 12.2607999999999997 H
  atom -0.5433280000000000 6.9657600000000004 9.3712300000000006 H
  atom -8.3929500000000008 8.3747900000000008 14.1496999999999993 H
  atom -2.1872300000000000 11.3109000000000002 7.4889200000000002 H
  atom 2.0741299999999998 9.4381599999999999 7.3221499999999997 H
  atom -4.3193400000000004 6.5169499999999996 14.2026000000000003 H
  atom -7.6787000000000001 7.7766200000000003 11.9162999999999997 H
  atom -2.8057300000000001 10.6107999999999993 9.7761999999999993 H
  atom 1.4045399999999999 10.0279000000000007 9.5923300000000005 H
  atom -3.6419500000000000 7.1192399999999996 11.9284999999999997 H
  
  -----------------------------------------------------------------------
  Completed first pass over input file geometry.in .
  -----------------------------------------------------------------------
  

  Basic array size parameters:
  | Number of species                 :        2
  | Number of atoms                   :      144
  | Number of lattice vectors         :        3
  | Max. basis fn. angular momentum   :        2
  | Max. atomic/ionic basis occupied n:        2
  | Max. number of basis fn. types    :        2
  | Max. radial fns per species/type  :        3
  | Max. logarithmic grid size        :     1277
  | Max. radial integration grid size :       34
  | Max. angular integration grid size:      302
  | Max. angular grid division number :        8
  | Radial grid for Hartree potential :     1277
  | Number of spin channels           :        1

------------------------------------------------------------
          Reading file control.in.
------------------------------------------------------------
  XC: Using Perdew-Wang parametrisation of Ceperley-Alder LDA.
  Spin treatment: No spin polarisation.
  Non-relativistic treatment of kinetic energy.
  Charge =   0.000000E+00: Neutral system requested explicitly.
  Found k-point grid:         2         1         1
  DFPT calculation will begin after the DFT/HF calculation.
  Charge density mixing - mixing parameter:     0.7500
  Forces will not be computed.
 
  Reading configuration options for species H                   .
  | Found nuclear charge :   1.0000
  | Found atomic mass :    1.00794000000000      amu
  | Found l_max for Hartree potential  :   4
  | Found cutoff potl. onset [A], width [A], scale factor :    3.50000    1.50000    1.00000
  | Threshold for basis-dependent cutoff potential is   0.100000E-03
  | Found data for basic radial integration grid :    24 points, outermost radius =    5.000 A
  | Found multiplier for basic radial grid :   1
  | Found angular grid specification: user-specified.
  | Specified grid contains     5 separate shells.
  | Check grid settings after all constraints further below.
  | Found free-atom valence shell :  1 s   1.000
  | No ionic wave fns used. Skipping ion_occ.
  | Found hydrogenic basis function :  2 s   2.100
  | Found hydrogenic basis function :  2 p   3.500
  Species H                   : Missing cutoff potential type.
  Defaulting to exp(1/x)/(1-x)^2 type cutoff potential.
  Species H : No 'logarithmic' tag. Using default grid for free atom:
  | Default logarithmic grid data [bohr] : 0.1000E-03 0.1000E+03 0.1012E+01
  Species H : On-site basis accuracy parameter (for Gram-Schmidt orthonormalisation) not specified.
  Using default value basis_acc =  0.1000000E-03.
  Species H                   : Using default innermost maximum threshold i_radial=  2 for radial functions.
  Species H                   : Default cutoff onset for free atom density etc. : 0.35000000E+01 AA.
  Species H                   : Basic radial grid will be enhanced according to radial_multiplier =   1, to contain    24 grid points.
 
  Reading configuration options for species C                   .
  | Found nuclear charge :   6.0000
  | Found atomic mass :    12.0107000000000      amu
  | Found l_max for Hartree potential  :   4
  | Found cutoff potl. onset [A], width [A], scale factor :    3.50000    1.50000    1.00000
  | Threshold for basis-dependent cutoff potential is   0.100000E-03
  | Found data for basic radial integration grid :    34 points, outermost radius =    5.000 A
  | Found multiplier for basic radial grid :   1
  | Found angular grid specification: user-specified.
  | Specified grid contains     5 separate shells.
  | Check grid settings after all constraints further below.
  | Found free-atom valence shell :  2 s   2.000
  | Found free-atom valence shell :  2 p   2.000
  | No ionic wave fns used. Skipping ion_occ.
  | No ionic wave fns used. Skipping ion_occ.
  | Found hydrogenic basis function :  2 p   1.700
  | Found hydrogenic basis function :  3 d   6.000
  | Found hydrogenic basis function :  2 s   4.900
  Species C                   : Missing cutoff potential type.
  Defaulting to exp(1/x)/(1-x)^2 type cutoff potential.
  Species C : No 'logarithmic' tag. Using default grid for free atom:
  | Default logarithmic grid data [bohr] : 0.1000E-03 0.1000E+03 0.1012E+01
  Species C : On-site basis accuracy parameter (for Gram-Schmidt orthonormalisation) not specified.
  Using default value basis_acc =  0.1000000E-03.
  Species C                   : Using default innermost maximum threshold i_radial=  2 for radial functions.
  Species C                   : Default cutoff onset for free atom density etc. : 0.35000000E+01 AA.
  Species C                   : Basic radial grid will be enhanced according to radial_multiplier =   1, to contain    34 grid points.
 
  Finished reading input file 'control.in'.
 
------------------------------------------------------------


------------------------------------------------------------
          Reading geometry description geometry.in.
------------------------------------------------------------
  | The smallest distance between any two atoms is         1.05436227 AA.
  | The first atom of this pair is atom number                    111 .
  | The second atom of this pair is atom number                   131 .
  | Wigner-Seitz cell of the first atom image           0     0     0 .
  | (The Wigner-Seitz cell of the second atom is 0 0 0  by definition.)

  Symmetry information by spglib:
  | Precision set to  0.1E-04
  | Number of Operations  : 1
  | Space group           : 1
  | International         : P1
  | Schoenflies           : C1^1
  Input structure read successfully.
  The structure contains      144 atoms,  and a total of        544.000 electrons.

  Input geometry:
  | Unit cell:
  |        8.10200000        0.00000000        0.00000000
  |        0.00000000       11.88000000        0.00000000
  |       -9.78509185        0.00000000       14.25711196
  | Atomic structure:
  |       Atom                x [A]            y [A]            z [A]
  |    1: Species C            -0.67448500        0.11138400        2.34112000
  |    2: Species C             0.12693100        3.23916000        4.88162000
  |    3: Species C             4.09342000        5.66135000        4.76061000
  |    4: Species C             3.21007000        2.73454000        2.38122000
  |    5: Species C             0.14332800        0.91372900        1.59256000
  |    6: Species C            -0.61826300        4.05246000        5.69218000
  |    7: Species C             3.32594000        4.84896000        5.57328000
  |    8: Species C             4.02789000        1.88708000        1.67599000
  |    9: Species C             0.42353600        0.60104400        0.22684900
  |   10: Species C            -0.97007900        3.62720000        7.00694000
  |   11: Species C             3.04109000        5.29544000        6.91481000
  |   12: Species C             4.39830000        2.21155000        0.32394300
  |   13: Species C            -3.79177000        1.52961000        6.65216000
  |   14: Species C             3.11423000        4.30774000        0.54151900
  |   15: Species C             7.22670000        4.34207000        0.53366500
  |   16: Species C             0.30951100        1.56555000        6.65806000
  |   17: Species C            -3.41682000        1.17651000        5.37512000
  |   18: Species C             2.76066000        3.95588000        1.81588000
  |   19: Species C             6.80865000        4.74897000        1.79282000
  |   20: Species C             0.56891100        1.96772000        5.34140000
  |   21: Species H            -1.00215000        0.45220600        3.33296000
  |   22: Species H             0.40191900        3.58248000        3.88340000
  |   23: Species H             4.31456000        5.30231000        3.73758000
  |   24: Species H             2.90498000        2.46459000        3.41315000
  |   25: Species H             0.41224300        1.90046000        1.95419000
  |   26: Species H            -0.98572400        5.03812000        5.39411000
  |   27: Species H             3.02686000        3.85204000        5.26312000
  |   28: Species H             4.37831000        0.94641100        2.10077000
  |   29: Species H            -3.39153000        2.44327000        7.14480000
  |   30: Species H             2.88136000        5.27945000        0.12615400
  |   31: Species H             6.86523000        3.39998000        0.10572600
  |   32: Species H             0.70978900        0.58723400        6.96646000
  |   33: Species H            -2.76689000        1.76866000        4.74866000
  |   34: Species H             2.22672000        4.68617000        2.43898000
  |   35: Species H             6.19862000        4.09906000        2.40754000
  |   36: Species H             1.09595000        1.26158000        4.71235000
  |   37: Species C            -5.79190000        0.16290300        9.47680000
  |   38: Species C            -4.67927000        2.96557000       11.95500000
  |   39: Species C            -0.59164600        5.83881000       11.95860000
  |   40: Species C            -1.64868000        2.75608000        9.57851000
  |   41: Species C            -5.04899000        1.03527000        8.72714000
  |   42: Species C            -5.50713000        3.82172000       12.67240000
  |   43: Species C            -1.35538000        4.93248000       12.67280000
  |   44: Species C            -0.82079100        1.94167000        8.80229000
  |   45: Species C            -4.63690000        0.70281900        7.41490000
  |   46: Species C            -5.85583000        3.46973000       14.00900000
  |   47: Species C            -1.79802000        5.25272000       13.99330000
  |   48: Species C            -0.48987800        2.36287000        7.49574000
  |   49: Species C            -8.61383000        1.47811000       13.66700000
  |   50: Species C            -1.70642000        4.48822000        7.87658000
  |   51: Species C             2.25660000        4.53606000        7.78159000
  |   52: Species C            -4.52939000        1.35766000       13.79960000
  |   53: Species C            -8.36211000        1.14307000       12.34580000
  |   54: Species C            -2.06447000        4.01594000        9.12409000
  |   55: Species C             1.92616000        5.01337000        9.03048000
  |   56: Species C            -4.16044000        1.76555000       12.51540000
  |   57: Species H            -6.02981000        0.44821400       10.49030000
  |   58: Species H            -4.48967000        3.23364000       10.91120000
  |   59: Species H            -0.28852800        5.51430000       10.96600000
  |   60: Species H            -1.86565000        2.45372000       10.62730000
  |   61: Species H            -4.79266000        2.02605000        9.12306000
  |   62: Species H            -5.92023000        4.75865000       12.25810000
  |   63: Species H            -1.68770000        4.00400000       12.22350000
  |   64: Species H            -0.47270800        0.98363600        9.18998000
  |   65: Species H            -8.27943000        2.42673000       14.08770000
  |   66: Species H            -2.01837000        5.45827000        7.49815000
  |   67: Species H             1.81528000        3.55848000        7.49463000
  |   68: Species H            -4.18019000        0.48199600       14.30650000
  |   69: Species H            -7.82152000        1.87023000       11.72840000
  |   70: Species H            -2.58483000        4.62673000        9.84517000
  |   71: Species H             1.30893000        4.43490000        9.67963000
  |   72: Species H            -3.49562000        1.18345000       11.87210000
  |   73: Species C            -0.91747400        6.01457000        2.31310000
  |   74: Species C             0.11791300        9.02490000        4.99399000
  |   75: Species C             4.21187000       11.81460000        4.81857000
  |   76: Species C             3.25118000        8.95648000        2.39825000
  |   77: Species C            -0.12370100        6.87548000        1.59836000
  |   78: Species C            -0.68568200        9.85079000        5.73891000
  |   79: Species C             3.43657000       10.97660000        5.57177000
  |   80: Species C             3.98412000        8.05045000        1.65026000
  |   81: Species C             0.28841200        6.51880000        0.29014000
  |   82: Species C            -1.01952000        9.57251000        7.09815000
  |   83: Species C             3.03277000       11.30130000        6.88852000
  |   84: Species C             4.36595000        8.34149000        0.31638200
  |   85: Species C            -3.85438000        7.42446000        6.45187000
  |   86: Species C             3.14815000       10.47450000        0.52491300
  |   87: Species C             7.28808000       10.35770000        0.54664400
  |   88: Species C             0.23771900        7.47642000        6.83784000
  |   89: Species C            -3.54333000        6.96182000        5.17635000
  |   90: Species C             2.82938000       10.16870000        1.84467000
  |   91: Species C             6.94253000       10.75550000        1.84097000
  |   92: Species C             0.57577100        7.79177000        5.55015000
  |   93: Species H            -1.29410000        6.32260000        3.28729000
  |   94: Species H             0.36732600        9.31154000        3.99058000
  |   95: Species H             4.47870000       11.51230000        3.81075000
  |   96: Species H             2.97559000        8.68316000        3.42860000
  |   97: Species H             0.08552470        7.85623000        1.98594000
  |   98: Species H            -1.03209000       10.76220000        5.29195000
  |   99: Species H             3.24679000        9.97031000        5.17516000
  |  100: Species H             4.30018000        7.11432000        2.07807000
  |  101: Species H            -3.56319000        8.43440000        6.80335000
  |  102: Species H             2.87396000       11.46280000        0.15229700
  |  103: Species H             6.84140000        9.46299000        0.11715800
  |  104: Species H             0.59429300        6.55398000        7.29132000
  |  105: Species H            -3.03118000        7.68074000        4.50207000
  |  106: Species H             2.26916000       10.93680000        2.36150000
  |  107: Species H             6.28357000       10.11360000        2.46075000
  |  108: Species H             1.28351000        7.15171000        4.97410000
  |  109: Species C            -5.60881000        6.23619000        9.50086000
  |  110: Species C            -4.66848000        9.07306000       11.94010000
  |  111: Species C            -0.68155000       11.77160000       11.82930000
  |  112: Species C            -1.70833000        8.76605000        9.74395000
  |  113: Species C            -4.84544000        7.01981000        8.66538000
  |  114: Species C            -5.46968000        9.91271000       12.66870000
  |  115: Species C            -1.41441000       10.88660000       12.63400000
  |  116: Species C            -0.92538100        7.94035000        8.98361000
  |  117: Species C            -4.55446000        6.55927000        7.32542000
  |  118: Species C            -5.85169000        9.62015000       14.01640000
  |  119: Species C            -1.72163000       11.21830000       13.99530000
  |  120: Species C            -0.55005600        8.34071000        7.66512000
  |  121: Species C            -8.70404000        7.40460000       13.74460000
  |  122: Species C            -1.81748000       10.38900000        7.91472000
  |  123: Species C             2.31160000       10.41940000        7.72869000
  |  124: Species C            -4.63825000        7.47624000       13.77190000
  |  125: Species C            -8.34339000        7.09063000       12.47680000
  |  126: Species C            -2.16116000        9.98212000        9.16881000
  |  127: Species C             1.94088000       10.76840000        9.00443000
  |  128: Species C            -4.25846000        7.81516000       12.50440000
  |  129: Species H            -5.77745000        6.51764000       10.56060000
  |  130: Species H            -4.37720000        9.36651000       10.92520000
  |  131: Species H            -0.53655500       11.57050000       10.80450000
  |  132: Species H            -2.06066000        8.50413000       10.72530000
  |  133: Species H            -4.49268000        7.96811000        9.04989000
  |  134: Species H            -5.84537000       10.87270000       12.25670000
  |  135: Species H            -1.80585000        9.93120000       12.26080000
  |  136: Species H            -0.54332800        6.96576000        9.37123000
  |  137: Species H            -8.39295000        8.37479000       14.14970000
  |  138: Species H            -2.18723000       11.31090000        7.48892000
  |  139: Species H             2.07413000        9.43816000        7.32215000
  |  140: Species H            -4.31934000        6.51695000       14.20260000
  |  141: Species H            -7.67870000        7.77662000       11.91630000
  |  142: Species H            -2.80573000       10.61080000        9.77620000
  |  143: Species H             1.40454000       10.02790000        9.59233000
  |  144: Species H            -3.64195000        7.11924000       11.92850000

  Lattice parameters for 3D lattice (in Angstroms) :     8.102000   11.880000   17.292000
  Angle(s) between unit vectors (in degrees)       :    90.000000  124.463000   90.000000


  Quantities derived from the lattice vectors (in Angstrom^-1):
  | Reciprocal lattice vector 1:  0.775510  0.000000  0.532257
  | Reciprocal lattice vector 2:  0.000000  0.528888  0.000000
  | Reciprocal lattice vector 3: -0.000000  0.000000  0.440705
  | Unit cell volume                               :   0.137227E+04  Angstrom^3

  Fractional coordinates:
                         L1                L2                L3
       atom_frac         0.11507001        0.00937576        0.16420717  C
       atom_frac         0.42919477        0.27265657        0.34239894  C
       atom_frac         0.90851298        0.47654461        0.33391124  C
       atom_frac         0.59792324        0.23018013        0.16701980  C
       atom_frac         0.15259820        0.07691322        0.11170285  C
       atom_frac         0.40588178        0.34111616        0.39925197  C
       atom_frac         0.88262805        0.40816162        0.39091227  C
       atom_frac         0.63912283        0.15884512        0.11755466  C
       atom_frac         0.07149215        0.05059293        0.01591129  C
       atom_frac         0.47383339        0.30531987        0.49146980  C
       atom_frac         0.96111275        0.44574411        0.48500776  C
       atom_frac         0.57030758        0.18615741        0.02272150  C
       atom_frac         0.09550861        0.12875505        0.46658538  C
       atom_frac         0.43025068        0.36260438        0.03798238  C
       atom_frac         0.93717238        0.36549411        0.03743149  C
       atom_frac         0.60221441        0.13178030        0.46699921  C
       atom_frac         0.03360765        0.09903283        0.37701324  C
       atom_frac         0.49456356        0.33298653        0.12736661  C
       atom_frac         0.99223861        0.39974495        0.12574917  C
       atom_frac         0.52269528        0.16563300        0.37464811  C
       atom_frac         0.15864754        0.03806448        0.23377526  H
       atom_frac         0.37857506        0.30155556        0.27238336  H
       atom_frac         0.84914533        0.44632239        0.26215548  H
       atom_frac         0.64768319        0.20745707        0.23939982  H
       atom_frac         0.21642352        0.15997138        0.13706773  H
       atom_frac         0.33527754        0.42408418        0.37834521  H
       atom_frac         0.81943967        0.32424579        0.36915751  H
       atom_frac         0.71835753        0.07966423        0.14734892  H
       atom_frac         0.18664091        0.20566246        0.50113936  H
       atom_frac         0.36632231        0.44439815        0.00884850  H
       atom_frac         0.85630622        0.28619360        0.00741567  H
       atom_frac         0.67774420        0.04943047        0.48863052  H
       atom_frac         0.06075791        0.14887710        0.33307307  H
       atom_frac         0.48144490        0.39445875        0.17107111  H
       atom_frac         0.96901855        0.34503872        0.16886590  H
       atom_frac         0.53445814        0.10619360        0.33052627  H
       atom_frac         0.08791874        0.01371237        0.66470685  C
       atom_frac         0.43517798        0.24962710        0.83852887  C
       atom_frac         0.94000331        0.49148232        0.83878138  C
       atom_frac         0.60791709        0.23199327        0.67184083  C
       atom_frac         0.11610874        0.08714394        0.61212537  C
       atom_frac         0.39377013        0.32169360        0.88884762  C
       atom_frac         0.90623921        0.41519192        0.88887567  C
       atom_frac         0.64434581        0.16344024        0.61739643  C
       atom_frac         0.05580999        0.05915985        0.52008429  C
       atom_frac         0.46395643        0.29206481        0.98259732  C
       atom_frac         0.96346700        0.44214815        0.98149611  C
       atom_frac         0.57450969        0.19889478        0.52575445  C
       atom_frac         0.09457541        0.12442003        0.95860929  C
       atom_frac         0.45661783        0.37779630        0.55246673  C
       atom_frac         0.93771206        0.38182323        0.54580409  C
       atom_frac         0.60993550        0.11428114        0.96790991  C
       atom_frac         0.01372377        0.09621801        0.86593975  C
       atom_frac         0.51810318        0.33804209        0.63996762  C
       atom_frac         1.00272211        0.42200084        0.63340177  C
       atom_frac         0.54668744        0.14861532        0.87783557  C
       atom_frac         0.14440924        0.03772845        0.73579418  H
       atom_frac         0.37015801        0.27219192        0.76531629  H
       atom_frac         0.89333166        0.46416667        0.76915998  H
       atom_frac         0.66998160        0.20654209        0.74540342  H
       atom_frac         0.18128549        0.17054293        0.63989537  H
       atom_frac         0.30768685        0.40055976        0.85978844  H
       atom_frac         0.82716141        0.33703704        0.85736158  H
       atom_frac         0.72015012        0.08279764        0.64458917  H
       atom_frac         0.17148719        0.20427020        0.98811737  H
       atom_frac         0.38605771        0.45945034        0.52592348  H
       atom_frac         0.85893282        0.29953535        0.52567659  H
       atom_frac         0.69597610        0.04057205        1.00346410  H
       atom_frac         0.02814608        0.15742677        0.82263505  H
       atom_frac         0.51496065        0.38945539        0.69054448  H
       atom_frac         0.98153000        0.37330808        0.67893344  H
       atom_frac         0.57424898        0.09961700        0.83271423  H
       atom_frac         0.08270517        0.50627694        0.16224183  C
       atom_frac         0.43760072        0.75967172        0.35028062  C
       atom_frac         0.92804270        0.99449495        0.33797658  C
       atom_frac         0.60443993        0.75391246        0.16821429  C
       atom_frac         0.12013112        0.57874411        0.11210966  C
       atom_frac         0.40151906        0.82919108        0.40252963  C
       atom_frac         0.89615479        0.92395623        0.39080636  C
       atom_frac         0.63154084        0.67764731        0.11574995  C
       atom_frac         0.06017575        0.54872054        0.02035055  C
       atom_frac         0.47545759        0.80576684        0.49786731  C
       atom_frac         0.95785879        0.95128788        0.48316377  C
       atom_frac         0.56567423        0.70214562        0.02219117  C
       atom_frac         0.07081408        0.62495455        0.45253695  C
       atom_frac         0.43303059        0.88169192        0.03681762  C
       atom_frac         0.94584775        0.87186027        0.03834185  C
       atom_frac         0.60858278        0.62932828        0.47960906  C
       atom_frac         0.00115493        0.58601178        0.36307143  C
       atom_frac         0.50548425        0.85595118        0.12938595  C
       atom_frac         1.01284177        0.90534512        0.12912643  C
       atom_frac         0.54122546        0.65587290        0.38928992  C
       atom_frac         0.11874446        0.53220539        0.23057194  H
       atom_frac         0.38338473        0.78379966        0.27990101  H
       atom_frac         0.87560284        0.96904882        0.26728765  H
       atom_frac         0.65770711        0.73090572        0.24048349  H
       atom_frac         0.17878747        0.66129882        0.13929469  H
       atom_frac         0.32090065        0.90590909        0.37117966  H
       atom_frac         0.83913361        0.83925168        0.36298796  H
       atom_frac         0.70679128        0.59884848        0.14575673  H
       atom_frac         0.13652890        0.70996633        0.47718991  H
       atom_frac         0.36762356        0.96488215        0.01068218  H
       atom_frac         0.85433339        0.79654798        0.00821751  H
       atom_frac         0.69100825        0.55168182        0.51141634  H
       atom_frac         0.00724862        0.64652694        0.31577714  H
       atom_frac         0.48011968        0.92060606        0.16563663  H
       atom_frac         0.98401110        0.85131313        0.17259807  H
       atom_frac         0.57978115        0.60199579        0.34888553  H
       atom_frac         0.11255501        0.52493182        0.66639443  C
       atom_frac         0.43524756        0.76372559        0.83748378  C
       atom_frac         0.91795362        0.99087542        0.82971222  C
       atom_frac         0.61456934        0.73788300        0.68344487  C
       atom_frac         0.13600040        0.59089310        0.60779350  C
       atom_frac         0.39807901        0.83440320        0.88858810  C
       atom_frac         0.89566656        0.91638047        0.88615422  C
       atom_frac         0.64679650        0.66837963        0.63011429  C
       atom_frac         0.05840530        0.55212710        0.51380813  C
       atom_frac         0.46509428        0.80977694        0.98311636  C
       atom_frac         0.97306496        0.94430135        0.98163640  C
       atom_frac         0.58143054        0.70207997        0.53763483  C
       atom_frac         0.09001471        0.62328283        0.96405219  C
       atom_frac         0.44614099        0.87449495        0.55514188  C
       atom_frac         0.94001929        0.87705387        0.54209366  C
       atom_frac         0.59415281        0.62931313        0.96596702  C
       atom_frac         0.02713149        0.59685438        0.87512815  C
       atom_frac         0.50995737        0.84024579        0.64310430  C
       atom_frac         1.00233222        0.90643098        0.63157462  C
       atom_frac         0.53365737        0.65784175        0.87706402  C
       atom_frac         0.18151230        0.54862290        0.74072505  H
       atom_frac         0.38522572        0.78842677        0.76629825  H
       atom_frac         0.84903773        0.97394781        0.75783230  H
       atom_frac         0.65421394        0.71583586        0.75227718  H
       atom_frac         0.21211259        0.67071633        0.63476320  H
       atom_frac         0.31680794        0.91521044        0.85969024  H
       atom_frac         0.81573833        0.83595960        0.85997782  H
       atom_frac         0.72678767        0.58634343        0.65730213  H
       atom_frac         0.16272794        0.70494865        0.99246608  H
       atom_frac         0.36443406        0.95209596        0.52527609  H
       atom_frac         0.87627073        0.79445791        0.51357877  H
       atom_frac         0.66999983        0.54856481        0.99617651  H
       atom_frac         0.06169107        0.65459764        0.83581444  H
       atom_frac         0.48185324        0.89316498        0.68570690  H
       atom_frac         0.98593549        0.84409933        0.67281018  H
       atom_frac         0.56096572        0.59926263        0.83667015  H

 
  Finished reading input file 'geometry.in'.
 

 
  Consistency checks for stacksize environment parameter are next.
 
  | Maximum stacksize for task 0: unlimited
  | Maximum stacksize for task 1: unlimited
  | Maximum stacksize for task 2: unlimited
  | Maximum stacksize for task 3: unlimited
  | Maximum stacksize for task 4: unlimited
  | Maximum stacksize for task 5: unlimited
  | Maximum stacksize for task 6: unlimited
  | Maximum stacksize for task 7: unlimited
  | Maximum stacksize for task 8: unlimited
  | Maximum stacksize for task 9: unlimited
  | Maximum stacksize for task 10: unlimited
  | Maximum stacksize for task 11: unlimited
  | Maximum stacksize for task 12: unlimited
  | Maximum stacksize for task 13: unlimited
  | Maximum stacksize for task 14: unlimited
  | Maximum stacksize for task 15: unlimited
  | Maximum stacksize for task 16: unlimited
  | Maximum stacksize for task 17: unlimited
  | Current stacksize for task 0: unlimited
  | Current stacksize for task 1: unlimited
  | Current stacksize for task 2: unlimited
  | Current stacksize for task 3: unlimited
  | Current stacksize for task 4: unlimited
  | Current stacksize for task 5: unlimited
  | Current stacksize for task 6: unlimited
  | Current stacksize for task 7: unlimited
  | Current stacksize for task 8: unlimited
  | Current stacksize for task 9: unlimited
  | Current stacksize for task 10: unlimited
  | Current stacksize for task 11: unlimited
  | Current stacksize for task 12: unlimited
  | Current stacksize for task 13: unlimited
  | Current stacksize for task 14: unlimited
  | Current stacksize for task 15: unlimited
  | Current stacksize for task 16: unlimited
  | Current stacksize for task 17: unlimited
 
  Consistency checks for the contents of control.in are next.
 
  MPI_IN_PLACE appears to work with this MPI implementation.
  | Keeping use_mpi_in_place .true. (see manual).
  Explicit treatment of the Coulomb operator is needed, but the RI method is not specified.
  Coulomb operator: Defaulting to 'LVL fast' resolution of identity - RI_type = LVL_fast
  Species H: Using default value for prodbas_acc =   1.000000E-06.
  Species H: Using default value max_l_prodbas =     6.
  Species C: Using default value for prodbas_acc =   1.000000E-06.
  Species C: Using default value max_l_prodbas =     6.
  Target number of points in a grid batch is not set.  Since GPU acceleration is enabled, defaulting to  200
  Method for grid partitioning is not set. Defaulting to parallel hash+maxmin partitioning.
  Batch size limit is not set. Defaulting to    200
  By default, will store active basis functions for each batch.
  If in need of memory, prune_basis_once .false. can be used to disable this option.
  communication_type for Hartree potential was not specified.
  Defaulting to calc_hartree .
  Defaulting to Pulay charge density mixer.
  Pulay mixer: Number of relevant iterations not set.
  Defaulting to    8 iterations.
  Pulay mixer: Number of initial linear mixing iterations not set.
  Defaulting to    0 iterations.
  Work space size for distributed Hartree potential not set.
  Defaulting to   0.200000E+03 MB.
  Algorithm-dependent basis array size parameters:
  | n_max_pulay                         :        8
  Maximum number of self-consistency iterations not provided.
  Presetting  1000 iterations.
  Presetting      1001 iterations before the initial mixing cycle
  is restarted anyway using the sc_init_iter criterion / keyword.
  Presetting a factor      1.000 between actual scf density residual
  and density convergence criterion sc_accuracy_rho below which sc_init_iter
  takes no effect.
 * No s.c.f. convergence criteria (sc_accuracy_*) were provided in control.in.
 * The run will proceed with a reasonable default guess, but please check whether.
 * the s.c.f. cycles seem to take too much or too little time.
  Geometry relaxation not requested: no relaxation will be performed.
 * Notice: The s.c.f. convergence criterion sc_accuracy_rho was not provided.
 * We used to stop in this case, and ask the user to provide reasonable
 * scf convergence criteria. However, this led some users to employ criteria
 * that led to extremely long run times, e.g., for simple relaxation.
 * We now preset a default value for sc_accuracy_rho if it is not set.
 * You may still wish to check if this setting is too tight or too loose for your needs.
 * Based on n_atoms and forces and force-correction status, FHI-aims chose sc_accuracy_rho =  0.391918E-04 .
  No accuracy limit for integral partition fn. given. Defaulting to  0.1000E-14.
  No threshold value for u(r) in integrations given. Defaulting to  0.1000E-05.
  No occupation type (smearing scheme) given. Defaulting to Gaussian broadening, width =  0.1000E-01 eV.
  The width will be adjusted in iteration number     2 of the first full s.c.f. cycle only.
  S.C.F. convergence parameters will be adjusted in iteration number     2 of the first full s.c.f. cycle only.
  No accuracy for occupation numbers given. Defaulting to  0.1000E-12.
  No threshold value for occupation numbers given. Defaulting to  0.0000E+00.
  No accuracy for fermi level given. Defaulting to  0.1000E-19.
  Maximum # of iterations to find E_F not set. Defaulting to  200.
  Preferred method for the eigenvalue solver ('KS_method') not specified in 'control.in'.
  Calling BLACS routine to test compilation state
  Since ScaLAPACK support is enabled, defaulting to ELPA (via ELSI).
  Will not use alltoall communication since running on < 1024 CPUs.
  Threshold for basis singularities not set.
  Default threshold for basis singularities:  0.1000E-04
  partition_type (choice of integration weights) for integrals was not specified.
  | Using a version of the partition function of Stratmann and coworkers ('stratmann_sparse').
  | At each grid point, the set of atoms used to build the partition table is smoothly restricted to
  | only those atoms whose free-atom density would be non-zero at that grid point.
  Partitioning for Hartree potential was not defined. Using partition_type for integrals.
  | Adjusted default value of keyword multip_moments_threshold to:       0.10000000E-11
  | This value may affect high angular momentum components of the Hartree potential in periodic systems.
  Angular momentum expansion for Kerker preconditioner not set explicitly.
  | Using default value of   0
  No explicit requirement for turning off preconditioner.
  | By default, it will be turned off when the charge convergence reaches
  | sc_accuracy_rho  =   0.391918E-04
  No special mixing parameter while Kerker preconditioner is on.
  Using default: charge_mix_param =     0.7500.
  Threshold for auxiliary basis singularities not set.
  Default threshold for auxiliary basis singularities:  0.1000E-04
  No q(lm)/r^(l+1) cutoff set for long-range Hartree potential.
  | Using default value of  0.100000E-09 .
  | Verify using the multipole_threshold keyword.
  Defaulting to new monopole extrapolation.
  Density update method: automatic selection selected.
  Using density matrix based charge density update.
  Using density matrix based charge density update.
  Using packed matrix style: index .
  Defaulting to use time-reversal symmetry for k-point grid.
  Charge integration errors on the 3D integration grid will be compensated
  by explicit normalization and distribution of residual charges.
  Use the "compensate_multipole_errors" flag to change this behaviour.
  Default to 1D ("use_logsbt") integrations for auxiliary 2-center integrals.
  Default onset of logarithmic r-grid for SBT is -38.000000000000
  Default onset of logarithmic k-grid for SBT is -25.000000000000
  Default range of logarithmic r- and k-grid for SBT is  45.000000000000
  Default number of logarithmic r- and k-grid for SBT is   4096
  Default of use_2d_corr is to use the efficient 2D distribution where possible
 
  Consistency checks for the contents of geometry.in are next.
 

  Range separation radius for Ewald summation (hartree_convergence_parameter):      2.91768261 bohr.
  Number of empty states per atom not set in control.in .
  | Since you are using a method that relies on the unoccupied spectrum
  | (MP2,GW,RPA et al.), will use the full Hamiltonian size (see below)
  | as the max. possible number of states (occupied plus empty).

  Structure-dependent array size parameters: 
  | Maximum number of distinct radial functions  :        9
  | Maximum number of basis functions            :     1440
  | Number of Kohn-Sham states (occupied + empty):     1440
------------------------------------------------------------
CUDA runtime version: 11060
CUDA driver version: 11060
  Initializing GPUs...

  Number of GPUs available to MPI task         0 :   1
  Number of GPUs available to MPI task         1 :   1
  Number of GPUs available to MPI task         2 :   1
  Number of GPUs available to MPI task         3 :   1
  Number of GPUs available to MPI task         4 :   1
  Number of GPUs available to MPI task         5 :   1
  Number of GPUs available to MPI task         6 :   1
  Number of GPUs available to MPI task         7 :   1
  Number of GPUs available to MPI task         8 :   1
  Number of GPUs available to MPI task         9 :   1
  Number of GPUs available to MPI task        10 :   1
  Number of GPUs available to MPI task        11 :   1
  Number of GPUs available to MPI task        12 :   1
  Number of GPUs available to MPI task        13 :   1
  Number of GPUs available to MPI task        14 :   1
  Number of GPUs available to MPI task        15 :   1
  Number of GPUs available to MPI task        16 :   1
  Number of GPUs available to MPI task        17 :   1

  | MPI task         0, GPU activated = T, Device Name = NVIDIA A100-SXM4-80GB
  | MPI task         1, GPU activated = T, Device Name = NVIDIA A100-SXM4-80GB
  | MPI task         2, GPU activated = T, Device Name = NVIDIA A100-SXM4-80GB
  | MPI task         3, GPU activated = T, Device Name = NVIDIA A100-SXM4-80GB
  | MPI task         4, GPU activated = T, Device Name = NVIDIA A100-SXM4-80GB
  | MPI task         5, GPU activated = T, Device Name = NVIDIA A100-SXM4-80GB
  | MPI task         6, GPU activated = T, Device Name = NVIDIA A100-SXM4-80GB
  | MPI task         7, GPU activated = T, Device Name = NVIDIA A100-SXM4-80GB
  | MPI task         8, GPU activated = T, Device Name = NVIDIA A100-SXM4-80GB
  | MPI task         9, GPU activated = T, Device Name = NVIDIA A100-SXM4-80GB
  | MPI task        10, GPU activated = T, Device Name = NVIDIA A100-SXM4-80GB
  | MPI task        11, GPU activated = T, Device Name = NVIDIA A100-SXM4-80GB
  | MPI task        12, GPU activated = T, Device Name = NVIDIA A100-SXM4-80GB
  | MPI task        13, GPU activated = T, Device Name = NVIDIA A100-SXM4-80GB
  | MPI task        14, GPU activated = T, Device Name = NVIDIA A100-SXM4-80GB
  | MPI task        15, GPU activated = T, Device Name = NVIDIA A100-SXM4-80GB
  | MPI task        16, GPU activated = T, Device Name = NVIDIA A100-SXM4-80GB
  | MPI task        17, GPU activated = T, Device Name = NVIDIA A100-SXM4-80GB

------------------------------------------------------------
          Preparing all fixed parts of the calculation.
------------------------------------------------------------
  Determining machine precision:
    2.225073858507201E-308
  Setting up grids for atomic and cluster calculations.

  Creating wave function, potential, and density for free atoms.
  Runtime choices for atomic solver:
  | atomic solver xc        : PW-LDA
  | compute density gradient: 0
  | compute kinetic density : F

  Species: H

  List of occupied orbitals and eigenvalues:
    n    l              occ      energy [Ha]    energy [eV]
    1    0           1.0000        -0.232375        -6.3233


  Species: C

  List of occupied orbitals and eigenvalues:
    n    l              occ      energy [Ha]    energy [eV]
    1    0           2.0000        -9.944615      -270.6068
    2    0           2.0000        -0.498807       -13.5732
    2    1           2.0000        -0.196968        -5.3598


  Adding cutoff potential to free-atom effective potential.
  Creating fixed part of basis set: Ionic, confined, hydrogenic.
 
  H                    hydrogenic:
 
  List of hydrogenic basis orbitals: 
    n    l      effective z      eigenvalue [eV]  inner max. [A]     outer max. [A]     outer radius [A]   
    2    0         2.100000       -14.9728           0.193243           1.317208           4.583499
    2    1         3.500000       -41.6669           0.602369           0.602369           3.723403
 
 
  C                    hydrogenic:
 
  List of hydrogenic basis orbitals: 
    n    l      effective z      eigenvalue [eV]  inner max. [A]     outer max. [A]     outer radius [A]   
    2    1         1.700000        -9.7616           1.230570           1.230570           4.607917
    3    2         6.000000       -54.4224           0.792453           0.792453           3.883070
    2    0         4.900000       -81.6679           0.082559           0.562749           3.078220
 
  Creating atomic-like basis functions for current effective potential.

  Species H                   :

  List of atomic basis orbitals and eigenvalues:
    n    l      energy [Ha]    energy [eV]    outer radius [A]
    1    0        -0.232375        -6.3233       4.527807


  Species C                   :

  List of atomic basis orbitals and eigenvalues:
    n    l      energy [Ha]    energy [eV]    outer radius [A]
    1    0        -9.944615      -270.6068       1.934409
    2    0        -0.498807       -13.5732       4.496620
    2    1        -0.196968        -5.3598       4.551928

  Assembling full basis from fixed parts.
  | Species H :   atomic orbital   1 s accepted.
  | Species H :    hydro orbital   2 s accepted.
  | Species H :    hydro orbital   2 p accepted.
  | Species C :   atomic orbital   1 s accepted.
  | Species C :    hydro orbital   2 s accepted.
  | Species C :   atomic orbital   2 s accepted.
  | Species C :   atomic orbital   2 p accepted.
  | Species C :    hydro orbital   2 p accepted.
  | Species C :    hydro orbital   3 d accepted.
 
  Basis size parameters after reduction:
  | Total number of radial functions:        9
  | Total number of basis functions :     1440
 
  Per-task memory consumption for arrays in subroutine allocate_ext:
  |           2.242384MB.
  Testing on-site integration grid accuracy.
  |  Species  Function  <phi|h_atom|phi> (log., in eV)  <phi|h_atom|phi> (rad., in eV)
           1        1                 -6.3245358373                 -6.3232436907
           1        2                 14.1326137532                 14.1384481100
           1        3                 25.3627025200                 25.3628451197
           2        4               -270.6067544938               -270.6067222788
           2        5                -10.5634280949                -10.5635685736
           2        6                 16.2089822398                 16.2052121796
           2        7                 -5.3613872565                 -5.3627872378
           2        8                  8.5292058327                  8.5051734780
           2        9                 27.4884461005                 27.4884542459

  Preparing densities etc. for the partition functions (integrals / Hartree potential).

  Preparations completed.
  max(cpu_time)          :      0.077 s.
  Wall clock time (cpu1) :      0.075 s.
------------------------------------------------------------

  Initializing index lists of integration centers etc. from given atomic structure:
  Mapping all atomic coordinates to central unit cell.

  Initializing the k-points
  Using symmetry for reducing the k-points
  | k-points reduced from:        2 to        2
  | Number of k-points                             :         2
  | Consuming          0 KiB for k_phase_exx.
  The eigenvectors in the calculations are REAL.
  | Number of basis functions in the Hamiltonian integrals :      8022
  | Number of basis functions in a single unit cell        :      1440
  | Number of centers in hartree potential         :      3316
  | Number of centers in hartree multipole         :      2521
  | Number of centers in electron density summation:      1986
  | Number of centers in basis integrals           :      2109
  | Number of centers in integrals                 :       965
  | Number of centers in hamiltonian               :      1991
  | Consuming          1 KiB for k_phase.
  | Number of super-cells (origin) [n_cells]                     :         175
  | Number of super-cells (after PM_index) [n_cells]             :          38
  | Number of super-cells in hamiltonian [n_cells_in_hamiltonian]:          38
  | Size of matrix packed + index [n_hamiltonian_matrix_size] :     1930581
  | Size of matrix packed + index (no_symmetry):     3858345

------------------------------------------------------------
          Begin self-consistency loop: Initialization.

          Date     :  20230120, Time     :  150330.797
------------------------------------------------------------
  | Estimated reciprocal-space cutoff momentum G_max:         3.24344278 bohr^-1 .
  | Reciprocal lattice points for long-range Hartree potential:    5310
  Using simple linear distribution as default method for k-point parallelism.
  * Using 18 tasks for Scalapack Eigenvalue solver.
  Detailed listing of tasks and assigned k-points:
   Task     0 k-point     1 on adag003
   Task     1 k-point     1 on adag003
   Task     2 k-point     1 on adag003
   Task     3 k-point     1 on adag003
   Task     4 k-point     1 on adag003
   Task     5 k-point     1 on adag003
   Task     6 k-point     1 on adag003
   Task     7 k-point     1 on adag003
   Task     8 k-point     1 on adag003
   Task     9 k-point     2 on adag003
   Task    10 k-point     2 on adag003
   Task    11 k-point     2 on adag003
   Task    12 k-point     2 on adag003
   Task    13 k-point     2 on adag003
   Task    14 k-point     2 on adag003
   Task    15 k-point     2 on adag003
   Task    16 k-point     2 on adag003
   Task    17 k-point     2 on adag003
  K-point:     1 Tasks:     9 split into      3 X      3 BLACS grid
  Calculating block size based on n_basis =         1440  max_nprow =            3  max_npcol =            3
  ScaLAPACK block size set to:           16
  Allocating        1.758 MB for ovlp
  Allocating        1.758 MB for ham
  Allocating        1.758 MB for eigenvec
  Required Scalapack workspace - INTEGER:            1  REAL:             1
  Partitioning the integration grid into batches with parallel hashing+maxmin method.
  | Number of batches:     5147
  | Maximal batch size:     200
  | Minimal batch size:      99
  | Average batch size:     148.405
  | Standard deviation of batch sizes:      30.393

  Integration load balanced across    18 MPI tasks.
  Work distribution over tasks is as follows:
  Task     0 has      42443 integration points.
  Task     1 has      42524 integration points.
  Task     2 has      42518 integration points.
  Task     3 has      42428 integration points.
  Task     4 has      42365 integration points.
  Task     5 has      42417 integration points.
  Task     6 has      42387 integration points.
  Task     7 has      42522 integration points.
  Task     8 has      42339 integration points.
  Task     9 has      42431 integration points.
  Task    10 has      42454 integration points.
  Task    11 has      42480 integration points.
  Task    12 has      42347 integration points.
  Task    13 has      42404 integration points.
  Task    14 has      42414 integration points.
  Task    15 has      42436 integration points.
  Task    16 has      42500 integration points.
  Task    17 has      42431 integration points.
  Initializing partition tables, free-atom densities, potentials, etc. across the integration grid (initialize_grid_storage).
  | initialize_grid_storage: Actual outermost partition radius vs. multipole_radius_free
  | (-- VB: in principle, multipole_radius_free should be larger, hence this output)
  | Species        1: Confinement radius =              4.999999999999999 AA, multipole_radius_free =              5.054417573612229 AA.
  | Species        1: outer_partition_radius set to              5.054417573612229 AA .
  | Species        2: Confinement radius =              4.999999999999999 AA, multipole_radius_free =              5.019602836301480 AA.
  | Species        2: outer_partition_radius set to              5.019602836301480 AA .
  | The sparse table of interatomic distances needs       7570.58 kbyte instead of     35583.05 kbyte of memory.
  | Net number of integration points:   763840
  | of which are non-zero points    :   605310
  | Numerical average free-atom electrostatic potential    :     -8.61470719 eV
  Renormalizing the initial density to the exact electron count on the 3D integration grid.
  | Initial density: Formal number of electrons (from input files) :     544.0000000000
  | Integrated number of electrons on 3D grid     :     543.9984587550
  | Charge integration error                      :      -0.0015412450
  | Normalization factor for density and gradient :       1.0000028332
  Renormalizing the free-atom superposition density to the exact electron count on the 3D integration grid.
  | Formal number of electrons (from input files) :     544.0000000000
  | Integrated number of electrons on 3D grid     :     543.9984587550
  | Charge integration error                      :      -0.0015412450
  | Normalization factor for density and gradient :       1.0000028332
  Obtaining max. number of non-zero basis functions in each batch (get_n_compute_maxes).
  | Maximal number of non-zero basis functions:      548 in task     0
  | Maximal number of non-zero basis functions:      554 in task     1
  | Maximal number of non-zero basis functions:      552 in task     2
  | Maximal number of non-zero basis functions:      554 in task     3
  | Maximal number of non-zero basis functions:      543 in task     4
  | Maximal number of non-zero basis functions:      540 in task     5
  | Maximal number of non-zero basis functions:      547 in task     6
  | Maximal number of non-zero basis functions:      547 in task     7
  | Maximal number of non-zero basis functions:      538 in task     8
  | Maximal number of non-zero basis functions:      544 in task     9
  | Maximal number of non-zero basis functions:      550 in task    10
  | Maximal number of non-zero basis functions:      546 in task    11
  | Maximal number of non-zero basis functions:      556 in task    12
  | Maximal number of non-zero basis functions:      547 in task    13
  | Maximal number of non-zero basis functions:      537 in task    14
  | Maximal number of non-zero basis functions:      560 in task    15
  | Maximal number of non-zero basis functions:      547 in task    16
  | Maximal number of non-zero basis functions:      540 in task    17
  Integrating Hamiltonian matrix: batch-based integration.
  GPU acceleration will be used when integrating the Hamiltonian matrix.
  Reporting GPU memory usage by myid 0.  Note that it is likely not the only MPI task binding to its GPU!
  Allocating        2.402 MB on GPU for hamiltonian_shell
  Allocating        0.877 MB on GPU for wave
  Allocating        0.002 MB on GPU for partition
  Allocating        0.877 MB on GPU for h_times_psi
  Time summed over all CPUs for integration: real work       24.843 s, elapsed       25.873 s
  Deallocating memory used on GPU for Hamiltonian integration.
  Integrating overlap matrix.
  Time summed over all CPUs for integration: real work       20.829 s, elapsed       21.437 s
  Deallocating overlap matrix.

  Updating Kohn-Sham eigenvalues and eigenvectors using ELSI and the ELPA eigensolver.
  Singularity check in k-point 1 (analysis for other k-points may follow below):
  Overlap matrix is not singular
  | Lowest and highest eigenvalues :  0.7865E-03,  0.8265E+01
  Finished singularity check of overlap matrix
  | Time :     0.102 s
  Starting ELPA eigensolver
  Finished Cholesky decomposition
  | Time :     0.017 s
  Finished transformation to standard eigenproblem
  | Time :     0.030 s
  Finished solving standard eigenproblem
  | Time :     0.235 s
  Finished back-transformation of eigenvectors
  | Time :     0.018 s

  Obtaining occupation numbers and electronic chemical potential using ELSI.
  | Note that, for insulating systems, the printed 'chemical potential' value is not uniquely defined.
  | It can be anywhere in the energy gap, as long as it correctly separates occupied and unoccupied states.
  | In systems with a gap, the physically relevant chemical potential is the VBM or HOMO.

  | Chemical potential (Fermi level):    -8.78274940 eV
  Writing Kohn-Sham eigenvalues.
  K-point:       1 at    0.000000    0.000000    0.000000 (in units of recip. lattice)

  State    Occupation    Eigenvalue [Ha]    Eigenvalue [eV]
      1       2.00000         -10.070505         -274.03238
      2       2.00000         -10.069012         -273.99175
      3       2.00000         -10.069002         -273.99147
      4       2.00000         -10.068414         -273.97548
      5       2.00000         -10.068215         -273.97007
      6       2.00000         -10.067870         -273.96069
      7       2.00000         -10.067853         -273.96023
      8       2.00000         -10.067647         -273.95461
      9       2.00000         -10.067115         -273.94013
     10       2.00000         -10.067057         -273.93855
     11       2.00000         -10.066924         -273.93495
     12       2.00000         -10.066912         -273.93462
     13       2.00000         -10.066803         -273.93164
     14       2.00000         -10.066368         -273.91982
     15       2.00000         -10.066364         -273.91971
     16       2.00000         -10.066040         -273.91088
     17       2.00000         -10.065918         -273.90757
     18       2.00000         -10.065762         -273.90331
     19       2.00000         -10.065703         -273.90170
     20       2.00000         -10.065694         -273.90147
     21       2.00000         -10.065657         -273.90047
     22       2.00000         -10.065617         -273.89936
     23       2.00000         -10.065576         -273.89826
     24       2.00000         -10.065562         -273.89788
     25       2.00000         -10.065421         -273.89403
     26       2.00000         -10.065270         -273.88993
     27       2.00000         -10.064986         -273.88220
     28       2.00000         -10.064810         -273.87741
     29       2.00000         -10.064808         -273.87737
     30       2.00000         -10.064628         -273.87247
     31       2.00000         -10.064420         -273.86681
     32       2.00000         -10.064090         -273.85782
     33       2.00000         -10.064058         -273.85696
     34       2.00000         -10.063910         -273.85291
     35       2.00000         -10.063433         -273.83994
     36       2.00000         -10.063426         -273.83974
     37       2.00000         -10.063050         -273.82953
     38       2.00000         -10.063009         -273.82842
     39       2.00000         -10.062945         -273.82668
     40       2.00000         -10.062841         -273.82383
     41       2.00000         -10.062589         -273.81698
     42       2.00000         -10.062480         -273.81400
     43       2.00000         -10.062341         -273.81024
     44       2.00000         -10.062305         -273.80924
     45       2.00000         -10.062278         -273.80852
     46       2.00000         -10.062116         -273.80410
     47       2.00000         -10.061713         -273.79313
     48       2.00000         -10.061591         -273.78982
     49       2.00000         -10.061482         -273.78685
     50       2.00000         -10.061369         -273.78379
     51       2.00000         -10.061345         -273.78313
     52       2.00000         -10.061308         -273.78212
     53       2.00000         -10.061215         -273.77960
     54       2.00000         -10.061131         -273.77730
     55       2.00000         -10.061106         -273.77662
     56       2.00000         -10.061026         -273.77445
     57       2.00000         -10.060433         -273.75830
     58       2.00000         -10.060363         -273.75640
     59       2.00000         -10.060238         -273.75301
     60       2.00000         -10.059635         -273.73660
     61       2.00000         -10.059507         -273.73311
     62       2.00000         -10.059386         -273.72981
     63       2.00000         -10.058999         -273.71929
     64       2.00000         -10.058447         -273.70427
     65       2.00000         -10.058374         -273.70229
     66       2.00000         -10.057689         -273.68365
     67       2.00000         -10.057629         -273.68201
     68       2.00000         -10.057495         -273.67836
     69       2.00000         -10.056768         -273.65857
     70       2.00000         -10.056654         -273.65547
     71       2.00000         -10.056423         -273.64919
     72       2.00000         -10.056215         -273.64353
     73       2.00000         -10.055995         -273.63755
[...]
  |    H      2     3.678162 A  1.011968E+04 A            0.556529 a.u.
  |    H      1     3.958095 A  1.721251E+06 A            0.841931 a.u.
  |    H      0     4.527807 A  3.866455E+12 A            0.581436 a.u.
  |    C      0     2.562483 A      2.562483 A        6.563029E-17 a.u.
  |    C      0     2.967371 A      2.967371 A        1.352164E-16 a.u.
  |    C      0     3.003870 A      3.003870 A        2.312640E-17 a.u.
  |    C      1     3.272245 A      3.272245 A       -3.835259E-17 a.u.
  |    C      0     3.312494 A      3.312494 A       -2.710381E-16 a.u.
  |    C      3     4.077671 A      4.077671 A       -1.683752E-15 a.u.
  |    C      3     4.077671 A      4.077671 A        1.412852E-15 a.u.
  |    C      1     4.496620 A      4.496620 A       -3.011059E-16 a.u.
  |    C      0     4.496620 A      4.551928 A        2.873903E-17 a.u.
  |    C      2     4.551928 A      4.551928 A       -4.610785E-16 a.u.
  |    C      2     4.551928 A      4.551928 A        7.440584E-16 a.u.
  |    C      2     4.551928 A      4.551928 A       -7.110458E-16 a.u.
  |    C      2     4.551928 A      4.551928 A       -1.935424E-16 a.u.
  |    C      0     4.551928 A      4.607917 A        2.067142E-16 a.u.
  |    C      0     4.551928 A      4.607917 A       -1.109786E-16 a.u.
  |    C      1     4.551928 A      4.607917 A       -9.951742E-17 a.u.
  |    C      1     4.551928 A      4.607917 A        1.937809E-16 a.u.
  |    C      1     4.607917 A      4.607917 A       -2.813308E-16 a.u.
  |    C      1     4.607917 A      4.607917 A       -7.330363E-17 a.u.
  |    C      2     4.607917 A      4.607917 A        1.318462E-15 a.u.
  |    C      2     4.607917 A      4.607917 A       -1.318397E-15 a.u.
  |    C      0     4.607917 A      4.664595 A        3.157826E-16 a.u.
  |    C      1     4.607917 A      4.664595 A        7.356967E-16 a.u.
  |    C      4     3.835889 A  2.962973E+02 A            4.379483 a.u.
  |    C      3     4.127827 A  1.725964E+03 A            9.005588 a.u.
  |    C      2     4.607917 A  2.608475E+04 A            9.531178 a.u.
  |    C      1     4.607917 A  2.736013E+06 A            2.127278 a.u.
  |    C      0     4.607917 A  4.399765E+12 A            0.661635 a.u.

  | Shrink_full_auxil_basis : there are       36  radial auxiliary wave functions
                            accepted and       7 rejected.
  | Shrink_full_auxil_basis : there are totally                8992 partial auxiliary wave functions.
 
  | Maximal number of product basis functions per thread :   512   512
 
  | Minimal total memory requirement for three-center overlap :      72.476 Gbs
  | Number of local auxiliary basis functions on task:      0   512
  | Number of local auxiliary basis functions on task:      1   512
  | Number of local auxiliary basis functions on task:      2   512
  | Number of local auxiliary basis functions on task:      3   512
  | Number of local auxiliary basis functions on task:      4   496
  | Number of local auxiliary basis functions on task:      5   496
  | Number of local auxiliary basis functions on task:      6   496
  | Number of local auxiliary basis functions on task:      7   496
  | Number of local auxiliary basis functions on task:      8   496
  | Number of local auxiliary basis functions on task:      9   496
  | Number of local auxiliary basis functions on task:     10   496
  | Number of local auxiliary basis functions on task:     11   496
  | Number of local auxiliary basis functions on task:     12   496
  | Number of local auxiliary basis functions on task:     13   496
  | Number of local auxiliary basis functions on task:     14   496
  | Number of local auxiliary basis functions on task:     15   496
  | Number of local auxiliary basis functions on task:     16   496
  | Number of local auxiliary basis functions on task:     17   496
  | 2D aux task distribution:      3 X      6
  | 2D block size (nb_aux_2d):     64
 
  Basis pair condensation :   1037520  -->     553925
 
 --------------------------------------------
  Constructing auxiliary basis (full product) ...
 
  Product basis:
  | charge radius: extent of product basis function
  | field radius: extent of its Coulomb potential
  | Species   l  charge radius    field radius  multipol momen
  |    H      1     3.910002 A      3.910002 A       -2.487223E-16 a.u.
  |    H      1     3.958095 A      3.958095 A       -2.441841E-16 a.u.
  |    H      0     4.527807 A      4.527807 A        1.268855E-16 a.u.
  |    H      0     4.527807 A      4.583499 A       -4.900954E-17 a.u.
  |    H      0     4.527807 A      4.583499 A        4.713786E-16 a.u.
  |    H      2     3.678162 A  1.011968E+04 A            0.556529 a.u.
  |    H      1     3.958095 A  1.721251E+06 A            0.841931 a.u.
  |    H      0     4.527807 A  3.866455E+12 A            0.581436 a.u.
  |    C      0     2.562483 A      2.562483 A        6.563029E-17 a.u.
  |    C      0     2.967371 A      2.967371 A        1.352164E-16 a.u.
  |    C      0     3.003870 A      3.003870 A        2.312640E-17 a.u.
  |    C      1     3.272245 A      3.272245 A       -3.835259E-17 a.u.
  |    C      0     3.312494 A      3.312494 A       -2.710381E-16 a.u.
  |    C      3     4.077671 A      4.077671 A       -1.683752E-15 a.u.
  |    C      3     4.077671 A      4.077671 A        1.412852E-15 a.u.
  |    C      1     4.496620 A      4.496620 A       -3.011059E-16 a.u.
  |    C      0     4.496620 A      4.551928 A        2.873903E-17 a.u.
  |    C      2     4.551928 A      4.551928 A       -4.610785E-16 a.u.
  |    C      2     4.551928 A      4.551928 A        7.440584E-16 a.u.
  |    C      2     4.551928 A      4.551928 A       -7.110458E-16 a.u.
  |    C      2     4.551928 A      4.551928 A       -1.935424E-16 a.u.
  |    C      0     4.551928 A      4.607917 A        2.067142E-16 a.u.
  |    C      0     4.551928 A      4.607917 A       -1.109786E-16 a.u.
  |    C      1     4.551928 A      4.607917 A       -9.951742E-17 a.u.
  |    C      1     4.551928 A      4.607917 A        1.937809E-16 a.u.
  |    C      1     4.607917 A      4.607917 A       -2.813308E-16 a.u.
  |    C      1     4.607917 A      4.607917 A       -7.330363E-17 a.u.
  |    C      2     4.607917 A      4.607917 A        1.318462E-15 a.u.
  |    C      2     4.607917 A      4.607917 A       -1.318397E-15 a.u.
  |    C      0     4.607917 A      4.664595 A        3.157826E-16 a.u.
  |    C      1     4.607917 A      4.664595 A        7.356967E-16 a.u.
  |    C      4     3.835889 A  2.962973E+02 A            4.379483 a.u.
  |    C      3     4.127827 A  1.725964E+03 A            9.005588 a.u.
  |    C      2     4.607917 A  2.608475E+04 A            9.531178 a.u.
  |    C      1     4.607917 A  2.736013E+06 A            2.127278 a.u.
  |    C      0     4.607917 A  4.399765E+12 A            0.661635 a.u.

  | Shrink_full_auxil_basis : there are       36  radial auxiliary wave functions
                            accepted and       7 rejected.
  | Shrink_full_auxil_basis : there are totally                8992 partial auxiliary wave functions.
 
  | Maximal number of product basis functions per thread :   512   512
 
  | Minimal total memory requirement for three-center overlap :      72.476 Gbs
  | Number of local auxiliary basis functions on task:      0   512
  | Number of local auxiliary basis functions on task:      1   512
  | Number of local auxiliary basis functions on task:      2   512
  | Number of local auxiliary basis functions on task:      3   512
  | Number of local auxiliary basis functions on task:      4   496
  | Number of local auxiliary basis functions on task:      5   496
  | Number of local auxiliary basis functions on task:      6   496
  | Number of local auxiliary basis functions on task:      7   496
  | Number of local auxiliary basis functions on task:      8   496
  | Number of local auxiliary basis functions on task:      9   496
  | Number of local auxiliary basis functions on task:     10   496
  | Number of local auxiliary basis functions on task:     11   496
  | Number of local auxiliary basis functions on task:     12   496
  | Number of local auxiliary basis functions on task:     13   496
  | Number of local auxiliary basis functions on task:     14   496
  | Number of local auxiliary basis functions on task:     15   496
  | Number of local auxiliary basis functions on task:     16   496
  | Number of local auxiliary basis functions on task:     17   496
  | 2D aux task distribution:      3 X      6
  | 2D block size (nb_aux_2d):     64
 
  Basis pair condensation :   1037520  -->     553925
  Allocating        0.069 MB for t_coeff
  Allocating        0.034 MB for basbas_idx
  Allocating        0.069 MB for wave
  Allocating        0.069 MB for total_wave
  Allocating        0.206 MB for wave_gradient
  Allocating        0.206 MB for total_wave_grad
 HERE1
 HERE2
  Deallocating        0.069 MB for t_coeff
  Deallocating        0.034 MB for basbas_idx
  Deallocating        0.069 MB for wave
  Deallocating        0.206 MB for wave_gradient
  Deallocating        0.206 MB for total_wave_grad
dP_dE (Bohr^3) at every cycle:--->
 (1007.24543767136,0.000000000000000E+000) (-8.10473927355288,0.000000000000000E+000) (-453.633605250939,0.000000000000000E+000)
 (-8.14694953332658,0.000000000000000E+000) (1350.54348015116,0.000000000000000E+000) (-5.98601936149157,0.000000000000000E+000)
 (-453.827930135718,0.000000000000000E+000) (-5.96315817238162,0.000000000000000E+000) (1694.07071574680,0.000000000000000E+000)
DFPT polarizability (Bohr^3)        xx        yy        zz        xy        xz        yz
  | Polarizability:--->                      1007.245437671                 1350.543480151                 1694.070715747                   -8.104739274                 -453.633605251                   -5.986019361

DFPT for dielectric_constant:--->  # PARSE DFPT_dielectric_tensor
               2.366810573938096            -0.010997958316608            -0.615571126124024
              -0.011055236738758             2.832658694887088            -0.008122900589155
              -0.615834820847636            -0.008091878443172             3.298817826005474

                                               :  max(cpu_time)    wall_clock(cpu1)
  | Time for  dielectric calculation            :        0.001 s           0.001 s
===========================================================================

------------------------------------------------------------------------------
  Final output of selected total energy values:

  The following output summarizes some interesting total energy values
  at the end of a run (AFTER all relaxation, molecular dynamics, etc.).

  | Total energy of the DFT / Hartree-Fock s.c.f. calculation      :         -83267.518189797 eV
  | Final zero-broadening corrected energy (caution - metals only) :         -83267.518189797 eV
  | For reference only, the value of 1 Hartree used in FHI-aims is :             27.211384500 eV
  | For reference only, the overall average (free atom contribution
  | + realspace contribution) of the electrostatic potential after
  | s.c.f. convergence is                                          :             -7.702544583 eV

  Before relying on these values, please be sure to understand exactly which
  total energy value is referred to by a given number. Different objects may
  all carry the same name 'total energy'. Definitions:

  Total energy of the DFT / Hartree-Fock s.c.f. calculation:
  | Note that this energy does not include ANY quantities calculated after the
  | s.c.f. cycle, in particular not ANY RPA, MP2, etc. many-body perturbation terms.

  Final zero-broadening corrected energy:
  | For metallic systems only, a broadening of the occupation numbers at the Fermi
  | level can be extrapolated back to zero broadening by an electron-gas inspired
  | formula. For all systems that are not real metals, this value can be
  | meaningless and should be avoided.

------------------------------------------------------------------------------
  Methods described in the following list of references were used in this FHI-aims run.
  If you publish the results, please make sure to cite these reference if they apply.
  FHI-aims is an academic code, and for our developers (often, Ph.D. students
  and postdocs), scientific credit in the community is essential.
  Thank you for helping us!

  For any use of FHI-aims, please cite:

    Volker Blum, Ralf Gehrke, Felix Hanke, Paula Havu, Ville Havu,
    Xinguo Ren, Karsten Reuter, and Matthias Scheffler
    'Ab initio molecular simulations with numeric atom-centered orbitals'
    Computer Physics Communications 180, 2175-2196 (2009)
    http://doi.org/10.1016/j.cpc.2009.06.022


  For Hartree-Fock, hybrid functionals, or many-body perturbation theory used in your run, please cite:

    Xinguo Ren, Patrick Rinke, Volker Blum, Juergen Wieferink, Alex Tkatchenko,
    Andrea Sanfilippo, Karsten Reuter, and Matthias Scheffler,
    'Resolution-of-identity approach to Hartree-Fock, hybrid density functionals,
    RPA, MP2, and GW with numeric atom-centered orbital basis functions'
    New Journal of Physics 14, 053020 (2012).
    http://doi.org/10.1088/1367-2630/14/5/053020


  The provided symmetry information was generated with SPGlib:

    Atsushi Togo, Yusuke Seto, Dimitar Pashov
    SPGlib 1.7.3 obtained from http://spglib.sourceforge.net
    Copyright (C) 2008 Atsushi Togo


  The DFPT (perturbation by an electric field) part of the code was used.
  Here is the corresponding reference:

    Honghui Shang, Nathaniel Raimbault, Mariana Rossi,
    Christian Carbogno, Patrick Rinke and Matthias Scheffler,
    'All-Electron, Real-Space Perturbation Theory for Homogeneous
    Electric Fields: Theory, Implementation, and Application within dft'
    New Journal of Physics, 20(7):073040, 2018


  The ELSI infrastructure was used in your run to solve the Kohn-Sham electronic structure.
  Please check out http://elsi-interchange.org to learn more.
  If scalability is important for your project, please acknowledge ELSI by citing:

    V. W-z. Yu, F. Corsetti, A. Garcia, W. P. Huhn, M. Jacquelin, W. Jia,
    B. Lange, L. Lin, J. Lu, W. Mi, A. Seifitokaldani, A. Vazquez-Mayagoitia,
    C. Yang, H. Yang, and V. Blum
    'ELSI: A unified software interface for Kohn-Sham electronic structure solvers'
    Computer Physics Communications 222, 267-285 (2018).
    http://doi.org/10.1016/j.cpc.2017.09.007


  For the real-space grid partitioning and parallelization used in this calculation, please cite:

    Ville Havu, Volker Blum, Paula Havu, and Matthias Scheffler,
    'Efficient O(N) integration for all-electron electronic structure calculation'
    'using numerically tabulated basis functions'
    Journal of Computational Physics 228, 8367-8379 (2009).
    http://doi.org/10.1016/j.jcp.2009.08.008


  The high-level electronic structure method used in your calculation
  employed our efficient localized resolution of identity for the Coulomb operator.
  Some calculations, especially large-scale hybrid density functional theory,
  are only possible thanks to this development. For this feature, please cite:

    Arvid Ihrig, Juergen Wieferink, Igor Ying Zhang, Matti Ropo, Xinguo Ren,
    Patrick Rinke, Matthias Scheffler, and Volker Blum,
    'Accurate localized resolution of identity approach for linear-scaling
    hybrid density functionals and for many-body perturbation theory'
    New Journal of Physics 117, 093020 (2015).
    http://doi.org/10.1088/1367-2630/17/9/093020

  Of course, there are many other important community references, e.g., those cited in the
  above references. Our list is limited to references that describe implementations in the
  FHI-aims code. The reason is purely practical (length of this list) - please credit others as well.

------------------------------------------------------------
          Leaving FHI-aims.
          Date     :  20230120, Time     :  152612.033

          Computational steps:
          | Number of self-consistency cycles          :           46
          | Number of SCF (re)initializations          :            1
          | Number of coupled perturbed self-consistency cycles          :            0
          | Number of CPSCF (re)initializations          :            0

          Detailed time accounting                     :  max(cpu_time)    wall_clock(cpu1)
          | Total time                                  :     1363.737 s        1374.901 s
          | GPU initialization                          :        2.423 s          12.502 s
          | Preparation time                            :        0.077 s           0.075 s
          | Boundary condition initalization            :        1.003 s           1.003 s
          | Grid partitioning                           :        1.272 s           1.272 s
          | Preloading free-atom quantities on grid     :        3.960 s           3.961 s
          | Free-atom superposition energy              :        0.526 s           0.526 s
          | Total time for integrations                 :       18.233 s          18.335 s
          | Product basis setup: Total time             :        0.000 s           0.000 s
          | Product basis: | 2-center integrations     :(       0.000 s)  (       0.000 s)
          | Product basis: | LVL 3-center & coefficient:(       0.000 s)  (       0.000 s)
          | Total time for solution of K.-S. equations  :        3.439 s           3.439 s
          | Total time for density update               :       12.949 s          13.070 s
          | Total time for mixing & preconditioning     :       12.125 s          12.128 s
          | Total time for Hartree multipole update     :        0.089 s           0.089 s
          | Total time for Hartree multipole sum        :       43.620 s          43.633 s
          | Total time for total energy evaluation      :        0.007 s           0.008 s
          | Total time first_order_DM                   :        1.958 s           1.958 s
          | Total time first_order_density              :      287.553 s         287.620 s
          | Total time first_order_potential            :      121.217 s         121.247 s
          | Total time first_order_H                    :      546.717 s         546.867 s
          | Total time solving of Sternheimer equations :        1.934 s           1.938 s
          | Total time for dielectric constant          :        0.001 s           0.001 s
          | Total time momentum matrix                  :        0.000 s           0.000 s

          GPU acceleration has been used for charge density update.
          GPU acceleration has been used for real-space Hamiltonian integration.
          Due to GPU usage, wall_clock(cpu1) will give a more reliable estimate for timings.

          Partial memory accounting:
          | Residual value for overall tracked memory usage across tasks:     1.234863 MB (should be 0.000000 MB)
          |
          | Largest tracked array allocation:
          |   Minimum:      103.104 MB (DFPT_pulay_mixing::initialize_pulay_mixing::X_in_diffs on task  0)
          |   Maximum:      103.104 MB (DFPT_pulay_mixing::initialize_pulay_mixing::X_in_diffs on task  0)
          |   Average:      103.104 MB
          |
          | Because the residual tracked memory usage was not zero, the peak value for overall
          | tracked memory usage was not output, as it is probably incorrect.  This is likely due
          | to a missing aims_deallocate statement in the source code, which should be otherwise
          | harmless.
          |
          Note:  These values currently only include a subset of arrays which are explicitly tracked.
          The "true" memory usage will be greater.

          Have a nice day.
------------------------------------------------------------
