------------------------------------------------------------
          Invoking FHI-aims ...

          When using FHI-aims, please cite the following reference:

            Volker Blum, Ralf Gehrke, Felix Hanke, Paula Havu,
            Ville Havu, Xinguo Ren, Karsten Reuter, and Matthias Scheffler,
            'Ab Initio Molecular Simulations with Numeric Atom-Centered Orbitals',
            Computer Physics Communications 180, 2175-2196 (2009)

          In addition, many other developments in FHI-aims are likely important for
          your particular application. A partial list of references is given at the end of
          this file. Thank you for giving credit to the authors of these developments.

          For any questions about FHI-aims, please visit our slack channel at

            https://fhi-aims.slack.com

          and our main development and support site at

            https://aims-git.rz-berlin.mpg.de .

          The latter site, in particular, has a wiki to collect information, as well
          as an issue tracker to log discussions, suggest improvements, and report issues
          or bugs. https://aims-git.rz-berlin.mpg.de is also the main development site
          of the project and all new and updated code versions can be obtained there.
          Please send an email to aims-coordinators@fhi-berlin.mpg.de and we will add
          you to these sites. They are for you and everyone is welcome there.

------------------------------------------------------------



  Date     :  20230120, Time     :  152622.549
  Time zero on CPU 1             :   0.366704000000000E+00  s.
  Internal wall clock time zero  :           443460382.549  s.

  FHI-aims created a unique identifier for this run for later identification
  aims_uuid : 2355C2C0-7452-4E85-AA6A-4563F9CD6911

  Build configuration of the current instance of FHI-aims
  -------------------------------------------------------
  FHI-aims version      : 220829
  Commit number         : 9895fc21d
  CMake host system     : Linux-5.3.18-150300.59.68-default
  CMake version         : 3.17.0
  Fortran compiler      : /mpcdf/soft/SLE_15/packages/x86_64/intel_oneapi/2021.3/mpi/2021.3.0/bin/mpiifort (Intel) version 20.2.3.20210609
  Fortran compiler flags: -O3 -ip -fp-model precise
  C compiler            : /mpcdf/soft/SLE_15/packages/x86_64/intel/2021.3.0/bin/icc (Intel) version 20.2.3.20210609
  C compiler flags      : -O3 -ip -fp-model precise -std=gnu99
  CUDA compiler         : /mpcdf/soft/SLE_15/packages/x86_64/cuda/11.6.2/bin/nvcc
  CUDA compiler flags   : -O3 -DAdd_ -lcublas
  ELPA2 kernel          : AVX512
  Using MPI
  Using ScaLAPACK
  Using LibXC
  Using CUDA
  Using i-PI
  Using RLSY
  Linking against: /mpcdf/soft/SLE_15/packages/x86_64/cuda/11.6.2/lib64/libcublas.so
                   /mpcdf/soft/SLE_15/packages/x86_64/cuda/11.6.2/lib64/libcudart.so
                   /mpcdf/soft/SLE_15/packages/x86_64/intel_oneapi/2021.3/mkl/latest/lib/intel64/libmkl_intel_lp64.so
                   /mpcdf/soft/SLE_15/packages/x86_64/intel_oneapi/2021.3/mkl/latest/lib/intel64/libmkl_sequential.so
                   /mpcdf/soft/SLE_15/packages/x86_64/intel_oneapi/2021.3/mkl/latest/lib/intel64/libmkl_core.so
                   /mpcdf/soft/SLE_15/packages/x86_64/intel_oneapi/2021.3/mkl/latest/lib/intel64/libmkl_blacs_intelmpi_lp64.so
                   /mpcdf/soft/SLE_15/packages/x86_64/intel_oneapi/2021.3/mkl/latest/lib/intel64/libmkl_scalapack_lp64.so

  Using       18 parallel tasks.
  Task        0 on host adag003 reporting.
  Task        1 on host adag003 reporting.
  Task        2 on host adag003 reporting.
  Task        3 on host adag003 reporting.
  Task        4 on host adag003 reporting.
  Task        5 on host adag003 reporting.
  Task        6 on host adag003 reporting.
  Task        7 on host adag003 reporting.
  Task        8 on host adag003 reporting.
  Task        9 on host adag003 reporting.
  Task       10 on host adag003 reporting.
  Task       11 on host adag003 reporting.
  Task       12 on host adag003 reporting.
  Task       13 on host adag003 reporting.
  Task       14 on host adag003 reporting.
  Task       15 on host adag003 reporting.
  Task       16 on host adag003 reporting.
  Task       17 on host adag003 reporting.

  Performing system and environment tests:
  | Environment variable OMP_NUM_THREADS correctly set to 1.
  | Checking for ScaLAPACK...
  | Testing pdtran()...
  | All pdtran() tests passed.

  Obtaining array dimensions for all initial allocations:
  
  -----------------------------------------------------------------------
  Parsing control.in (first pass over file, find array dimensions only).
  The contents of control.in will be repeated verbatim below
  unless switched off by setting 'verbatim_writeout .false.' .
  in the first line of control.in .
  -----------------------------------------------------------------------
  
  #
  # Input for polarizability replays on generic oligoacene molecular crystals (light settings,  LDA+MBD).
  #
  #########################################################################################
  #
  #  Physical model
  #
    xc                 pw-lda
    spin               none
    relativistic       none
    charge             0.0
    k_grid 	     2 1 1
    DFPT dielectric
  #
  #  GPU acceleration
  #
  # Turns on GPU acceleration everywhere
    use_gpu
  
  # Turns OFF GPU acceleration of ELPA - may be necessary if GPU ELPA is slow
    elsi_elpa_gpu 0
  #
  #  Relaxation
  #
  #  relax_geometry trm 1E-3
  #  relax_unit_cell fixed_angles
  #
  #  SCF convergence        #
    charge_mix_param   0.75
    #sc_accuracy_rho 1E-4
  #
  # i-PI communication
  #
  compute_forces .false.
  # use_pimd_wrapper 130.183.223.27 26118
  #communicate_pimd_wrapper polarizability
  #output_level MD_light
  #
  # Output SALTED info
    ri_density_restart write
    ri_rho1 write
    ri_full_output .true.
  #  sc_accuracy_rho    1d-6
    default_prodbas_acc 1e-6
    default_max_l_prodbas 6
  #
  #
  ################################################################################
  #
  #  FHI-aims code project
  #  VB, Fritz-Haber Institut, 2009
  #
  #  Suggested "light" defaults for H atom (to be pasted into control.in file)
  #  Be sure to double-check any results obtained with these settings for post-processing,
  #  e.g., with the "tight" defaults and larger basis sets.
  #
  ################################################################################
    species        H
  #     global species definitions
      nucleus             1
      mass                1.00794
  #
      l_hartree           4
  #
      cut_pot             3.5  1.5  1.0
      basis_dep_cutoff    1e-4
  #
      radial_base         24 5.0
      radial_multiplier   1
      angular_grids       specified
        division   0.2421   50
        division   0.3822  110
        division   0.4799  194
        division   0.5341  302
  #      division   0.5626  434
  #      division   0.5922  590
  #      division   0.6542  770
  #      division   0.6868 1202
  #      outer_grid  770
        outer_grid  302
  ################################################################################
  #
  #  Definition of "minimal" basis
  #
  ################################################################################
  #     valence basis states
      valence      1  s   1.
  #     ion occupancy
      ion_occ      1  s   0.5
  ################################################################################
  #
  #  Suggested additional basis functions. For production calculations,
  #  uncomment them one after another (the most important basis functions are
  #  listed first).
  #
  #  Basis constructed for dimers: 0.5 A, 0.7 A, 1.0 A, 1.5 A, 2.5 A
  #
  ################################################################################
  #  "First tier" - improvements: -1014.90 meV to -62.69 meV
       hydro 2 s 2.1
       hydro 2 p 3.5
  #  "Second tier" - improvements: -12.89 meV to -1.83 meV
  #     hydro 1 s 0.85
  #     hydro 2 p 3.7
  #     hydro 2 s 1.2
  #     hydro 3 d 7
  #  "Third tier" - improvements: -0.25 meV to -0.12 meV
  #     hydro 4 f 11.2
  #     hydro 3 p 4.8
  #     hydro 4 d 9
  #     hydro 3 s 3.2
  ################################################################################
  ################################################################################
  #
  #  FHI-aims code project
  #  VB, Fritz-Haber Institut, 2009
  #
  #  Suggested "light" defaults for C atom (to be pasted into control.in file)
  #  Be sure to double-check any results obtained with these settings for post-processing,
  #  e.g., with the "tight" defaults and larger basis sets.
  #
  ################################################################################
    species        C
  #     global species definitions
      nucleus             6
      mass                12.0107
  #
      l_hartree           4
  #
      cut_pot             3.5  1.5  1.0
      basis_dep_cutoff    1e-4
  #
      radial_base         34 5.0
      radial_multiplier   1
      angular_grids specified
        division   0.3326   50
        division   0.5710  110
        division   0.7727  194
        division   0.8772  302
  #      division   0.9334  434
  #      division   0.9625  590
  #      division   0.9924  770
  #      division   1.0230  974
  #      division   1.4589 1202
  #     outer_grid  974
       outer_grid 302
  ################################################################################
  #
  #  Definition of "minimal" basis
  #
  ################################################################################
  #     valence basis states
      valence      2  s   2.
      valence      2  p   2.
  #     ion occupancy
      ion_occ      2  s   1.
      ion_occ      2  p   1.
  ################################################################################
  #
  #  Suggested additional basis functions. For production calculations,
  #  uncomment them one after another (the most important basis functions are
  #  listed first).
  #
  #  Constructed for dimers: 1.0 A, 1.25 A, 1.5 A, 2.0 A, 3.0 A
  #
  ################################################################################
  #  "First tier" - improvements: -1214.57 meV to -155.61 meV
       hydro 2 p 1.7
       hydro 3 d 6
       hydro 2 s 4.9
  #  "Second tier" - improvements: -67.75 meV to -5.23 meV
  #     hydro 4 f 9.8
  #     hydro 3 p 5.2
  #     hydro 3 s 4.3
  #     hydro 5 g 14.4
  #     hydro 3 d 6.2
  #  "Third tier" - improvements: -2.43 meV to -0.60 meV
  #     hydro 2 p 5.6
  #     hydro 2 s 1.4
  #     hydro 3 d 4.9
  #     hydro 4 f 11.2
  #  "Fourth tier" - improvements: -0.39 meV to -0.18 meV
  #     hydro 2 p 2.1
  #     hydro 5 g 16.4
  #     hydro 4 d 13.2
  #     hydro 3 s 13.6
  #     hydro 4 f 17.6
  #  Further basis functions - improvements: -0.08 meV and below
  #     hydro 3 s 2
  #     hydro 3 p 6
  #     hydro 4 d 20
  
  -----------------------------------------------------------------------
  Completed first pass over input file control.in .
  -----------------------------------------------------------------------
  
  
  -----------------------------------------------------------------------
  Parsing geometry.in (first pass over file, find array dimensions only).
  The contents of geometry.in will be repeated verbatim below
  unless switched off by setting 'verbatim_writeout .false.' .
  in the first line of geometry.in .
  -----------------------------------------------------------------------
  
  #=======================================================
  # FHI-aims file: /ada/ptmp/mpsd/alewis/naphthalene/qmdata/data/geoms/398.in
  # Created using the Atomic Simulation Environment (ASE)
  # Thu Jan 19 15:19:17 2023
  #=======================================================
  lattice_vector 8.1020000000000003 0.0000000000000000 0.0000000000000000
  lattice_vector 0.0000000000000000 11.8800000000000008 0.0000000000000000
  lattice_vector -9.7850918486534706 0.0000000000000000 14.2571119625755713
  atom -0.9587860000000000 0.0118284000000000 2.4098000000000002 C
  atom 0.1534150000000000 2.8466900000000002 4.9056499999999996 C
  atom 4.3393199999999998 5.9660900000000003 5.0216000000000003 C
  atom 3.3295300000000001 2.7826000000000000 2.3710100000000001 C
  atom -0.2063060000000000 0.9142500000000000 1.6793199999999999 C
  atom -0.5433920000000000 3.7890700000000002 5.6209199999999999 C
  atom 3.5809199999999999 5.0303500000000003 5.7188800000000004 C
  atom 3.9971600000000000 1.9159700000000000 1.5584899999999999 C
  atom 0.2316550000000000 0.6236790000000000 0.3791970000000000 C
  atom -0.9405620000000000 3.5191300000000001 6.9506100000000002 C
  atom 3.1868099999999999 5.3379300000000001 7.0588499999999996 C
  atom 4.3478599999999998 2.3016200000000002 0.2489080000000000 C
  atom -3.8716300000000001 1.5155400000000001 6.6903800000000002 C
  atom 3.2979400000000001 4.5134100000000004 0.6696990000000000 C
  atom 7.2196800000000003 4.4958299999999998 0.6160320000000000 C
  atom 0.2072160000000000 1.3246500000000001 6.8103699999999998 C
  atom -3.5809400000000000 1.2953399999999999 5.3665000000000003 C
  atom 2.9244800000000000 4.0780399999999997 1.9254700000000000 C
  atom 6.8275399999999999 4.9160500000000003 1.8726499999999999 C
  atom 0.5769550000000000 1.6408300000000000 5.5057700000000001 C
  atom -1.1993799999999999 0.2029040000000000 3.4597300000000000 H
  atom 0.3270800000000000 2.9730799999999999 3.8408000000000002 H
  atom 4.6640300000000003 5.6940299999999997 3.9930300000000001 H
  atom 2.9597799999999999 2.4469400000000001 3.3701300000000001 H
  atom 0.1290260000000000 1.8186100000000001 2.1722999999999999 H
  atom -0.7587050000000000 4.7923900000000001 5.2461399999999996 H
  atom 3.2620700000000000 4.0859899999999998 5.2821999999999996 H
  atom 4.2168500000000000 0.9189970000000000 1.9373499999999999 H
  atom -3.5624500000000001 2.4621700000000000 7.1798500000000001 H
  atom 2.9731100000000001 5.5145600000000004 0.3675370000000000 H
  atom 6.9539900000000001 3.4868800000000002 0.2708410000000000 H
  atom 0.5125810000000000 0.3837230000000000 7.2627600000000001 H
  atom -3.0397099999999999 2.0146799999999998 4.7649900000000001 H
  atom 2.3703500000000002 4.7343400000000004 2.6175299999999999 H
  atom 6.2182800000000000 4.2951300000000003 2.5205199999999999 H
  atom 1.2385400000000000 0.9713320000000000 4.9735500000000004 H
  atom -5.6043399999999997 -0.0516734000000000 9.6079699999999999 C
  atom -4.6807299999999996 3.1462300000000001 11.9292999999999996 C
  atom -0.7018280000000000 5.7849399999999997 11.8678000000000008 C
  atom -1.7560000000000000 2.8665200000000000 9.6103199999999998 C
  atom -4.8071000000000002 0.8103830000000000 8.8872000000000000 C
  atom -5.4179500000000003 4.0179700000000000 12.7149000000000001 C
  atom -1.4156000000000000 4.9021800000000004 12.6973000000000003 C
  atom -0.9379150000000001 1.9612499999999999 8.9051799999999997 C
  atom -4.5753100000000000 0.5982110000000000 7.4800899999999997 C
  atom -5.8304299999999998 3.6158800000000002 14.0327999999999999 C
  atom -1.7776400000000001 5.2986800000000001 14.0397999999999996 C
  atom -0.5918140000000000 2.2458700000000000 7.5584899999999999 C
  atom -8.7739799999999999 1.5396000000000001 13.8314000000000004 C
  atom -1.7112099999999999 4.4381599999999999 7.7231300000000003 C
  atom 2.3968799999999999 4.4434800000000001 7.8536400000000004 C
  atom -4.7433800000000002 1.4147900000000000 13.6415000000000006 C
  atom -8.3948900000000002 1.2055600000000000 12.5352999999999994 C
  atom -2.1312199999999999 4.0837599999999998 8.9949499999999993 C
  atom 2.0582400000000001 4.7750599999999999 9.1312300000000004 C
  atom -4.3517099999999997 1.8667400000000001 12.3934999999999995 C
  atom -5.7921100000000001 0.1894830000000000 10.6370000000000005 H
  atom -4.2654800000000002 3.3940800000000002 10.9499999999999993 H
  atom -0.4833030000000000 5.4773899999999998 10.8437000000000001 H
  atom -2.1396500000000001 2.5626099999999998 10.6001999999999992 H
  atom -4.4028299999999998 1.6828799999999999 9.3823000000000008 H
  atom -5.7249900000000000 5.0030500000000000 12.3610000000000007 H
  atom -1.7101400000000000 3.9386299999999999 12.3102000000000000 H
  atom -0.6247180000000000 1.0021199999999999 9.3043899999999997 H
  atom -8.4078099999999996 2.5082399999999998 14.2483000000000004 H
  atom -1.9751600000000000 5.3871099999999998 7.2804700000000002 H
  atom 2.0513200000000000 3.5310600000000001 7.3569599999999999 H
  atom -4.3862399999999999 0.4648810000000000 14.0302000000000007 H
  atom -7.7884300000000000 1.9161699999999999 11.9884000000000004 H
  atom -2.8332799999999998 4.7619100000000003 9.4699399999999994 H
  atom 1.4509500000000000 4.0562500000000004 9.7604699999999998 H
  atom -3.7218100000000001 1.2536600000000000 11.7718000000000007 H
  atom -0.8000110000000000 6.1730700000000001 2.3708200000000001 C
  atom 0.1578480000000000 8.9767399999999995 4.6100800000000000 C
  atom 4.0805300000000004 11.9171999999999993 4.8303700000000003 C
  atom 3.1303700000000001 8.8386200000000006 2.3464600000000000 C
  atom -0.0319770000000000 6.9964700000000004 1.5714300000000001 C
  atom -0.5395370000000000 9.8723700000000001 5.3627500000000001 C
  atom 3.4028100000000001 10.9885999999999999 5.6026899999999999 C
  atom 3.9093000000000000 7.9936299999999996 1.6203300000000000 C
  atom 0.3610680000000000 6.5899999999999999 0.2640900000000000 C
  atom -0.8752400000000000 9.5645699999999998 6.7229500000000000 C
  atom 3.0642999999999998 11.2545000000000002 6.9209399999999999 C
  atom 4.3000999999999996 8.3157099999999993 0.2949980000000000 C
  atom -3.7015400000000001 7.4955800000000004 6.8767500000000004 C
  atom 3.0666799999999999 10.4656000000000002 0.5412540000000000 C
  atom 7.1426499999999997 10.3665000000000003 0.5599490000000000 C
  atom 0.2756240000000000 7.4223699999999999 6.5126099999999996 C
  atom -3.3172000000000001 7.1730499999999999 5.6105400000000003 C
  atom 2.6860900000000001 10.0770999999999997 1.8115300000000001 C
  atom 6.7402699999999998 10.6745000000000001 1.8283400000000001 C
  atom 0.6100350000000000 7.7518900000000004 5.2129799999999999 C
  atom -1.1019500000000000 6.4999000000000002 3.3743900000000000 H
  atom 0.3823240000000000 9.1820100000000000 3.5741600000000000 H
  atom 4.3752700000000004 11.7103999999999999 3.7950200000000001 H
  atom 2.7829299999999999 8.5786700000000007 3.3600099999999999 H
  atom 0.3173090000000000 7.9762199999999996 1.8576699999999999 H
  atom -0.9709220000000000 10.7722999999999995 4.9333400000000003 H
  atom 3.0817399999999999 10.0321999999999996 5.1491199999999999 H
  atom 4.2236099999999999 7.0493499999999996 2.0296500000000002 H
  atom -3.4697700000000000 8.4888800000000000 7.3129799999999996 H
  atom 2.7592200000000000 11.3998000000000008 0.0602458000000000 H
  atom 6.8883200000000002 9.3936700000000002 0.1367710000000000 H
  atom 0.5887430000000000 6.4385599999999998 6.8861999999999997 H
  atom -2.7029399999999999 7.8871300000000000 5.0525300000000000 H
  atom 1.9841400000000000 10.6660000000000004 2.3849000000000000 H
  atom 6.2007199999999996 9.9074100000000005 2.4301400000000002 H
  atom 1.1286799999999999 6.9608499999999998 4.6262800000000004 H
  atom -5.6989599999999996 6.0432199999999998 9.6516000000000002 C
  atom -4.7525599999999999 8.9994999999999994 11.9338999999999995 C
  atom -0.7079000000000000 11.8473000000000006 11.9838000000000005 C
  atom -1.5523300000000000 8.9057600000000008 9.4141800000000000 C
  atom -4.9256200000000003 6.9511799999999999 8.9177800000000005 C
  atom -5.5311800000000000 9.8960299999999997 12.6811000000000007 C
  atom -1.4945999999999999 10.9733999999999998 12.7169000000000008 C
  atom -0.8206590000000000 8.0364799999999992 8.6646800000000006 C
  atom -4.4746100000000002 6.5987200000000001 7.6647299999999996 C
  atom -5.8997500000000000 9.5849899999999995 13.9999000000000002 C
  atom -1.8696600000000001 11.2780000000000005 14.0348000000000006 C
  atom -0.4841980000000000 8.3073700000000006 7.3095800000000004 C
  atom -8.6572200000000006 7.4252799999999999 13.6699000000000002 C
  atom -1.6741200000000001 10.4215999999999998 7.5400999999999998 C
  atom 2.3671899999999999 10.3059999999999992 7.7279400000000003 C
  atom -4.6874599999999997 7.4268500000000000 13.7800999999999991 C
  atom -8.3614400000000000 7.0474800000000002 12.3688000000000002 C
  atom -1.9711799999999999 10.1470000000000002 8.8611500000000003 C
  atom 2.0227400000000002 10.6258999999999997 9.0175500000000000 C
  atom -4.3230800000000000 7.7852800000000002 12.5031999999999996 C
  atom -6.0595400000000001 6.3771100000000001 10.6270000000000007 H
  atom -4.4276499999999999 9.2214100000000006 10.8986999999999998 H
  atom -0.4465190000000000 11.5683000000000007 10.9740000000000002 H
  atom -1.8653400000000000 8.6921900000000001 10.4296000000000006 H
  atom -4.6821200000000003 7.8941900000000000 9.3688599999999997 H
  atom -5.9177200000000001 10.8043999999999993 12.1821000000000002 H
  atom -1.7958900000000000 10.0131999999999994 12.2782000000000000 H
  atom -0.5372530000000000 7.0657500000000004 9.1015800000000002 H
  atom -8.3023699999999998 8.3993599999999997 14.0626999999999995 H
  atom -1.9832099999999999 11.3751999999999995 7.1010799999999996 H
  atom 2.0418699999999999 9.3716699999999999 7.2688100000000002 H
  atom -4.4198700000000004 6.4688100000000004 14.2377000000000002 H
  atom -7.8059900000000004 7.7533000000000003 11.7041000000000004 H
  atom -2.5318000000000001 10.8138000000000005 9.4846900000000005 H
  atom 1.4026700000000001 9.9585299999999997 9.6247699999999998 H
  atom -3.6189900000000002 7.1276700000000002 11.9949999999999992 H
  
  -----------------------------------------------------------------------
  Completed first pass over input file geometry.in .
  -----------------------------------------------------------------------
  

  Basic array size parameters:
  | Number of species                 :        2
  | Number of atoms                   :      144
  | Number of lattice vectors         :        3
  | Max. basis fn. angular momentum   :        2
  | Max. atomic/ionic basis occupied n:        2
  | Max. number of basis fn. types    :        2
  | Max. radial fns per species/type  :        3
  | Max. logarithmic grid size        :     1277
  | Max. radial integration grid size :       34
  | Max. angular integration grid size:      302
  | Max. angular grid division number :        8
  | Radial grid for Hartree potential :     1277
  | Number of spin channels           :        1

------------------------------------------------------------
          Reading file control.in.
------------------------------------------------------------
  XC: Using Perdew-Wang parametrisation of Ceperley-Alder LDA.
  Spin treatment: No spin polarisation.
  Non-relativistic treatment of kinetic energy.
  Charge =   0.000000E+00: Neutral system requested explicitly.
  Found k-point grid:         2         1         1
  DFPT calculation will begin after the DFT/HF calculation.
  Charge density mixing - mixing parameter:     0.7500
  Forces will not be computed.
 
  Reading configuration options for species H                   .
  | Found nuclear charge :   1.0000
  | Found atomic mass :    1.00794000000000      amu
  | Found l_max for Hartree potential  :   4
  | Found cutoff potl. onset [A], width [A], scale factor :    3.50000    1.50000    1.00000
  | Threshold for basis-dependent cutoff potential is   0.100000E-03
  | Found data for basic radial integration grid :    24 points, outermost radius =    5.000 A
  | Found multiplier for basic radial grid :   1
  | Found angular grid specification: user-specified.
  | Specified grid contains     5 separate shells.
  | Check grid settings after all constraints further below.
  | Found free-atom valence shell :  1 s   1.000
  | No ionic wave fns used. Skipping ion_occ.
  | Found hydrogenic basis function :  2 s   2.100
  | Found hydrogenic basis function :  2 p   3.500
  Species H                   : Missing cutoff potential type.
  Defaulting to exp(1/x)/(1-x)^2 type cutoff potential.
  Species H : No 'logarithmic' tag. Using default grid for free atom:
  | Default logarithmic grid data [bohr] : 0.1000E-03 0.1000E+03 0.1012E+01
  Species H : On-site basis accuracy parameter (for Gram-Schmidt orthonormalisation) not specified.
  Using default value basis_acc =  0.1000000E-03.
  Species H                   : Using default innermost maximum threshold i_radial=  2 for radial functions.
  Species H                   : Default cutoff onset for free atom density etc. : 0.35000000E+01 AA.
  Species H                   : Basic radial grid will be enhanced according to radial_multiplier =   1, to contain    24 grid points.
 
  Reading configuration options for species C                   .
  | Found nuclear charge :   6.0000
  | Found atomic mass :    12.0107000000000      amu
  | Found l_max for Hartree potential  :   4
  | Found cutoff potl. onset [A], width [A], scale factor :    3.50000    1.50000    1.00000
  | Threshold for basis-dependent cutoff potential is   0.100000E-03
  | Found data for basic radial integration grid :    34 points, outermost radius =    5.000 A
  | Found multiplier for basic radial grid :   1
  | Found angular grid specification: user-specified.
  | Specified grid contains     5 separate shells.
  | Check grid settings after all constraints further below.
  | Found free-atom valence shell :  2 s   2.000
  | Found free-atom valence shell :  2 p   2.000
  | No ionic wave fns used. Skipping ion_occ.
  | No ionic wave fns used. Skipping ion_occ.
  | Found hydrogenic basis function :  2 p   1.700
  | Found hydrogenic basis function :  3 d   6.000
  | Found hydrogenic basis function :  2 s   4.900
  Species C                   : Missing cutoff potential type.
  Defaulting to exp(1/x)/(1-x)^2 type cutoff potential.
  Species C : No 'logarithmic' tag. Using default grid for free atom:
  | Default logarithmic grid data [bohr] : 0.1000E-03 0.1000E+03 0.1012E+01
  Species C : On-site basis accuracy parameter (for Gram-Schmidt orthonormalisation) not specified.
  Using default value basis_acc =  0.1000000E-03.
  Species C                   : Using default innermost maximum threshold i_radial=  2 for radial functions.
  Species C                   : Default cutoff onset for free atom density etc. : 0.35000000E+01 AA.
  Species C                   : Basic radial grid will be enhanced according to radial_multiplier =   1, to contain    34 grid points.
 
  Finished reading input file 'control.in'.
 
------------------------------------------------------------


------------------------------------------------------------
          Reading geometry description geometry.in.
------------------------------------------------------------
  | The smallest distance between any two atoms is         1.07131655 AA.
  | The first atom of this pair is atom number                    126 .
  | The second atom of this pair is atom number                   142 .
  | Wigner-Seitz cell of the first atom image           1     0     0 .
  | (The Wigner-Seitz cell of the second atom is 0 0 0  by definition.)

  Symmetry information by spglib:
  | Precision set to  0.1E-04
  | Number of Operations  : 1
  | Space group           : 1
  | International         : P1
  | Schoenflies           : C1^1
  Input structure read successfully.
  The structure contains      144 atoms,  and a total of        544.000 electrons.

  Input geometry:
  | Unit cell:
  |        8.10200000        0.00000000        0.00000000
  |        0.00000000       11.88000000        0.00000000
  |       -9.78509185        0.00000000       14.25711196
  | Atomic structure:
  |       Atom                x [A]            y [A]            z [A]
  |    1: Species C            -0.95878600        0.01182840        2.40980000
  |    2: Species C             0.15341500        2.84669000        4.90565000
  |    3: Species C             4.33932000        5.96609000        5.02160000
  |    4: Species C             3.32953000        2.78260000        2.37101000
  |    5: Species C            -0.20630600        0.91425000        1.67932000
  |    6: Species C            -0.54339200        3.78907000        5.62092000
  |    7: Species C             3.58092000        5.03035000        5.71888000
  |    8: Species C             3.99716000        1.91597000        1.55849000
  |    9: Species C             0.23165500        0.62367900        0.37919700
  |   10: Species C            -0.94056200        3.51913000        6.95061000
  |   11: Species C             3.18681000        5.33793000        7.05885000
  |   12: Species C             4.34786000        2.30162000        0.24890800
  |   13: Species C            -3.87163000        1.51554000        6.69038000
  |   14: Species C             3.29794000        4.51341000        0.66969900
  |   15: Species C             7.21968000        4.49583000        0.61603200
  |   16: Species C             0.20721600        1.32465000        6.81037000
  |   17: Species C            -3.58094000        1.29534000        5.36650000
  |   18: Species C             2.92448000        4.07804000        1.92547000
  |   19: Species C             6.82754000        4.91605000        1.87265000
  |   20: Species C             0.57695500        1.64083000        5.50577000
  |   21: Species H            -1.19938000        0.20290400        3.45973000
  |   22: Species H             0.32708000        2.97308000        3.84080000
  |   23: Species H             4.66403000        5.69403000        3.99303000
  |   24: Species H             2.95978000        2.44694000        3.37013000
  |   25: Species H             0.12902600        1.81861000        2.17230000
  |   26: Species H            -0.75870500        4.79239000        5.24614000
  |   27: Species H             3.26207000        4.08599000        5.28220000
  |   28: Species H             4.21685000        0.91899700        1.93735000
  |   29: Species H            -3.56245000        2.46217000        7.17985000
  |   30: Species H             2.97311000        5.51456000        0.36753700
  |   31: Species H             6.95399000        3.48688000        0.27084100
  |   32: Species H             0.51258100        0.38372300        7.26276000
  |   33: Species H            -3.03971000        2.01468000        4.76499000
  |   34: Species H             2.37035000        4.73434000        2.61753000
  |   35: Species H             6.21828000        4.29513000        2.52052000
  |   36: Species H             1.23854000        0.97133200        4.97355000
  |   37: Species C            -5.60434000       -0.05167340        9.60797000
  |   38: Species C            -4.68073000        3.14623000       11.92930000
  |   39: Species C            -0.70182800        5.78494000       11.86780000
  |   40: Species C            -1.75600000        2.86652000        9.61032000
  |   41: Species C            -4.80710000        0.81038300        8.88720000
  |   42: Species C            -5.41795000        4.01797000       12.71490000
  |   43: Species C            -1.41560000        4.90218000       12.69730000
  |   44: Species C            -0.93791500        1.96125000        8.90518000
  |   45: Species C            -4.57531000        0.59821100        7.48009000
  |   46: Species C            -5.83043000        3.61588000       14.03280000
  |   47: Species C            -1.77764000        5.29868000       14.03980000
  |   48: Species C            -0.59181400        2.24587000        7.55849000
  |   49: Species C            -8.77398000        1.53960000       13.83140000
  |   50: Species C            -1.71121000        4.43816000        7.72313000
  |   51: Species C             2.39688000        4.44348000        7.85364000
  |   52: Species C            -4.74338000        1.41479000       13.64150000
  |   53: Species C            -8.39489000        1.20556000       12.53530000
  |   54: Species C            -2.13122000        4.08376000        8.99495000
  |   55: Species C             2.05824000        4.77506000        9.13123000
  |   56: Species C            -4.35171000        1.86674000       12.39350000
  |   57: Species H            -5.79211000        0.18948300       10.63700000
  |   58: Species H            -4.26548000        3.39408000       10.95000000
  |   59: Species H            -0.48330300        5.47739000       10.84370000
  |   60: Species H            -2.13965000        2.56261000       10.60020000
  |   61: Species H            -4.40283000        1.68288000        9.38230000
  |   62: Species H            -5.72499000        5.00305000       12.36100000
  |   63: Species H            -1.71014000        3.93863000       12.31020000
  |   64: Species H            -0.62471800        1.00212000        9.30439000
  |   65: Species H            -8.40781000        2.50824000       14.24830000
  |   66: Species H            -1.97516000        5.38711000        7.28047000
  |   67: Species H             2.05132000        3.53106000        7.35696000
  |   68: Species H            -4.38624000        0.46488100       14.03020000
  |   69: Species H            -7.78843000        1.91617000       11.98840000
  |   70: Species H            -2.83328000        4.76191000        9.46994000
  |   71: Species H             1.45095000        4.05625000        9.76047000
  |   72: Species H            -3.72181000        1.25366000       11.77180000
  |   73: Species C            -0.80001100        6.17307000        2.37082000
  |   74: Species C             0.15784800        8.97674000        4.61008000
  |   75: Species C             4.08053000       11.91720000        4.83037000
  |   76: Species C             3.13037000        8.83862000        2.34646000
  |   77: Species C            -0.03197700        6.99647000        1.57143000
  |   78: Species C            -0.53953700        9.87237000        5.36275000
  |   79: Species C             3.40281000       10.98860000        5.60269000
  |   80: Species C             3.90930000        7.99363000        1.62033000
  |   81: Species C             0.36106800        6.59000000        0.26409000
  |   82: Species C            -0.87524000        9.56457000        6.72295000
  |   83: Species C             3.06430000       11.25450000        6.92094000
  |   84: Species C             4.30010000        8.31571000        0.29499800
  |   85: Species C            -3.70154000        7.49558000        6.87675000
  |   86: Species C             3.06668000       10.46560000        0.54125400
  |   87: Species C             7.14265000       10.36650000        0.55994900
  |   88: Species C             0.27562400        7.42237000        6.51261000
  |   89: Species C            -3.31720000        7.17305000        5.61054000
  |   90: Species C             2.68609000       10.07710000        1.81153000
  |   91: Species C             6.74027000       10.67450000        1.82834000
  |   92: Species C             0.61003500        7.75189000        5.21298000
  |   93: Species H            -1.10195000        6.49990000        3.37439000
  |   94: Species H             0.38232400        9.18201000        3.57416000
  |   95: Species H             4.37527000       11.71040000        3.79502000
  |   96: Species H             2.78293000        8.57867000        3.36001000
  |   97: Species H             0.31730900        7.97622000        1.85767000
  |   98: Species H            -0.97092200       10.77230000        4.93334000
  |   99: Species H             3.08174000       10.03220000        5.14912000
  |  100: Species H             4.22361000        7.04935000        2.02965000
  |  101: Species H            -3.46977000        8.48888000        7.31298000
  |  102: Species H             2.75922000       11.39980000        0.06024580
  |  103: Species H             6.88832000        9.39367000        0.13677100
  |  104: Species H             0.58874300        6.43856000        6.88620000
  |  105: Species H            -2.70294000        7.88713000        5.05253000
  |  106: Species H             1.98414000       10.66600000        2.38490000
  |  107: Species H             6.20072000        9.90741000        2.43014000
  |  108: Species H             1.12868000        6.96085000        4.62628000
  |  109: Species C            -5.69896000        6.04322000        9.65160000
  |  110: Species C            -4.75256000        8.99950000       11.93390000
  |  111: Species C            -0.70790000       11.84730000       11.98380000
  |  112: Species C            -1.55233000        8.90576000        9.41418000
  |  113: Species C            -4.92562000        6.95118000        8.91778000
  |  114: Species C            -5.53118000        9.89603000       12.68110000
  |  115: Species C            -1.49460000       10.97340000       12.71690000
  |  116: Species C            -0.82065900        8.03648000        8.66468000
  |  117: Species C            -4.47461000        6.59872000        7.66473000
  |  118: Species C            -5.89975000        9.58499000       13.99990000
  |  119: Species C            -1.86966000       11.27800000       14.03480000
  |  120: Species C            -0.48419800        8.30737000        7.30958000
  |  121: Species C            -8.65722000        7.42528000       13.66990000
  |  122: Species C            -1.67412000       10.42160000        7.54010000
  |  123: Species C             2.36719000       10.30600000        7.72794000
  |  124: Species C            -4.68746000        7.42685000       13.78010000
  |  125: Species C            -8.36144000        7.04748000       12.36880000
  |  126: Species C            -1.97118000       10.14700000        8.86115000
  |  127: Species C             2.02274000       10.62590000        9.01755000
  |  128: Species C            -4.32308000        7.78528000       12.50320000
  |  129: Species H            -6.05954000        6.37711000       10.62700000
  |  130: Species H            -4.42765000        9.22141000       10.89870000
  |  131: Species H            -0.44651900       11.56830000       10.97400000
  |  132: Species H            -1.86534000        8.69219000       10.42960000
  |  133: Species H            -4.68212000        7.89419000        9.36886000
  |  134: Species H            -5.91772000       10.80440000       12.18210000
  |  135: Species H            -1.79589000       10.01320000       12.27820000
  |  136: Species H            -0.53725300        7.06575000        9.10158000
  |  137: Species H            -8.30237000        8.39936000       14.06270000
  |  138: Species H            -1.98321000       11.37520000        7.10108000
  |  139: Species H             2.04187000        9.37167000        7.26881000
  |  140: Species H            -4.41987000        6.46881000       14.23770000
  |  141: Species H            -7.80599000        7.75330000       11.70410000
  |  142: Species H            -2.53180000       10.81380000        9.48469000
  |  143: Species H             1.40267000        9.95853000        9.62477000
  |  144: Species H            -3.61899000        7.12767000       11.99500000

  Lattice parameters for 3D lattice (in Angstroms) :     8.102000   11.880000   17.292000
  Angle(s) between unit vectors (in degrees)       :    90.000000  124.463000   90.000000


  Quantities derived from the lattice vectors (in Angstrom^-1):
  | Reciprocal lattice vector 1:  0.775510  0.000000  0.532257
  | Reciprocal lattice vector 2:  0.000000  0.528888  0.000000
  | Reciprocal lattice vector 3: -0.000000  0.000000  0.440705
  | Unit cell volume                               :   0.137227E+04  Angstrom^3

  Fractional coordinates:
                         L1                L2                L3
       atom_frac         0.08579776        0.00099566        0.16902441  C
       atom_frac         0.43449921        0.23962037        0.34408441  C
       atom_frac         0.96097230        0.50219613        0.35221720  C
       atom_frac         0.61180285        0.23422559        0.16630367  C
       atom_frac         0.11679371        0.07695707        0.11778823  C
       atom_frac         0.40908631        0.31894529        0.39425376  C
       atom_frac         0.92643325        0.42343013        0.40112472  C
       atom_frac         0.62537637        0.16127694        0.10931316  C
       atom_frac         0.06071458        0.05249823        0.02659704  C
       atom_frac         0.47270478        0.29622306        0.48751879  C
       atom_frac         0.99130024        0.44932071        0.49511079  C
       atom_frac         0.55772564        0.19373906        0.01745851  C
       atom_frac         0.08888945        0.12757071        0.46926615  C
       atom_frac         0.46378362        0.37991667        0.04697298  C
       atom_frac         0.94328334        0.37843687        0.04320875  C
       atom_frac         0.60249089        0.11150253        0.47768230  C
       atom_frac         0.01262071        0.10903535        0.37640863  C
       atom_frac         0.52406677        0.34326936        0.13505330  C
       atom_frac         1.00133263        0.41380892        0.13134848  C
       atom_frac         0.53761211        0.13811700        0.38617709  C
       atom_frac         0.14504301        0.01707946        0.24266696  H
       atom_frac         0.36572926        0.25025926        0.26939537  H
       atom_frac         0.91391861        0.47929545        0.28007285  H
       atom_frac         0.65080267        0.20597138        0.23638238  H
       atom_frac         0.19994346        0.15308165        0.15236606  H
       atom_frac         0.35076293        0.40339983        0.36796653  H
       atom_frac         0.85008706        0.34393855        0.37049579  H
       atom_frac         0.68458560        0.07735665        0.13588657  H
       atom_frac         0.16851402        0.20725337        0.50359778  H
       atom_frac         0.39809453        0.46418855        0.02577920  H
       atom_frac         0.88124864        0.29350842        0.01899690  H
       atom_frac         0.67850349        0.03229992        0.50941313  H
       atom_frac         0.02846807        0.16958586        0.33421846  H
       atom_frac         0.51429781        0.39851347        0.18359469  H
       atom_frac         0.98101579        0.36154293        0.17679036  H
       atom_frac         0.57418408        0.08176195        0.34884695  H
       atom_frac         0.12218015       -0.00434961        0.67390717  C
       atom_frac         0.43282070        0.26483418        0.83672626  C
       atom_frac         0.91871217        0.48694781        0.83241263  C
       atom_frac         0.59736564        0.24128956        0.67407200  C
       atom_frac         0.15952321        0.06821406        0.62335205  C
       atom_frac         0.40837751        0.33821296        0.89182859  C
       atom_frac         0.90088191        0.41264141        0.89059411  C
       atom_frac         0.63860557        0.16508838        0.62461318  C
       atom_frac         0.06893415        0.05035446        0.52465675  C
       atom_frac         0.46910759        0.30436700        0.98426666  C
       atom_frac         0.96992150        0.44601684        0.98475764  C
       atom_frac         0.56724374        0.18904630        0.53015576  C
       atom_frac         0.08873522        0.12959596        0.97014038  C
       atom_frac         0.44302768        0.37358249        0.54170368  C
       atom_frac         0.96112975        0.37403030        0.55085771  C
       atom_frac         0.57013065        0.11909007        0.95682071  C
       atom_frac         0.02573064        0.10147811        0.87923136  C
       atom_frac         0.49892486        0.34375084        0.63090968  C
       atom_frac         1.02755892        0.40194108        0.64046842  C
       atom_frac         0.51275339        0.15713300        0.86928545  C
       atom_frac         0.18617481        0.01594975        0.74608378  H
       atom_frac         0.40111575        0.28569697        0.76803774  H
       atom_frac         0.85893111        0.46105976        0.76058181  H
       atom_frac         0.63386711        0.21570791        0.74350261  H
       atom_frac         0.25136131        0.14165657        0.65807858  H
       atom_frac         0.34050139        0.42113215        0.86700589  H
       atom_frac         0.83173619        0.33153451        0.86344275  H
       atom_frac         0.71107990        0.08435354        0.65261394  H
       atom_frac         0.16924635        0.21113131        0.99938193  H
       atom_frac         0.37295102        0.45346044        0.51065531  H
       atom_frac         0.87640417        0.29722727        0.51602036  H
       atom_frac         0.64713839        0.03913140        0.98408430  H
       atom_frac         0.05425518        0.16129377        0.84087156  H
       atom_frac         0.45250918        0.40083418        0.66422569  H
       atom_frac         1.00590706        0.34143519        0.68460359  H
       atom_frac         0.53783464        0.10552694        0.82567914  H
       atom_frac         0.10209272        0.51961869        0.16629034  C
       atom_frac         0.41000825        0.75561785        0.32335301  C
       atom_frac         0.91283148        1.00313131        0.33880424  C
       atom_frac         0.58514160        0.74399158        0.16458172  C
       atom_frac         0.12917100        0.58892845        0.11022078  C
       atom_frac         0.38769221        0.83100758        0.37614560  C
       atom_frac         0.89460719        0.92496633        0.39297510  C
       atom_frac         0.61977068        0.67286448        0.11365065  C
       atom_frac         0.06693669        0.55471380        0.01852339  C
       atom_frac         0.46148187        0.80509848        0.47155062  C
       atom_frac         0.96449676        0.94734848        0.48543773  C
       atom_frac         0.55573515        0.69997559        0.02069129  C
       atom_frac         0.12567067        0.63094108        0.48233822  C
       atom_frac         0.42435931        0.88094276        0.03796379  C
       atom_frac         0.92902495        0.87260101        0.03927507  C
       atom_frac         0.58571061        0.62477862        0.45679728  C
       atom_frac         0.06584611        0.60379209        0.39352570  C
       atom_frac         0.48499117        0.84824074        0.12706150  C
       atom_frac         0.98680766        0.89852694        0.12824056  C
       atom_frac         0.51689244        0.65251599        0.36564067  C
       atom_frac         0.14983918        0.54712963        0.23668117  H
       atom_frac         0.34996042        0.77289646        0.25069313  H
       atom_frac         0.86150435        0.98572391        0.26618434  H
       atom_frac         0.62811745        0.72211027        0.23567255  H
       atom_frac         0.19652983        0.67139899        0.13029778  H
       atom_frac         0.29807209        0.90675926        0.34602660  H
       atom_frac         0.81655622        0.84446128        0.36116150  H
       atom_frac         0.69323881        0.59337963        0.14236053  H
       atom_frac         0.19123078        0.71455219        0.51293558  H
       atom_frac         0.34566385        0.95957912        0.00422567  H
       atom_frac         0.86178599        0.79071296        0.00959318  H
       atom_frac         0.65600501        0.54196633        0.48300105  H
       atom_frac         0.09439223        0.66389983        0.35438664  H
       atom_frac         0.44692296        0.89781145        0.16727792  H
       atom_frac         0.97119222        0.83395707        0.17045107  H
       atom_frac         0.53120679        0.58593013        0.32448928  H
       atom_frac         0.11419750        0.50868855        0.67696740  C
       atom_frac         0.42434466        0.75753367        0.83704891  C
       atom_frac         0.92778923        0.99724747        0.84054892  C
       atom_frac         0.60588862        0.74964310        0.66031466  C
       atom_frac         0.14748520        0.58511616        0.62549695  C
       atom_frac         0.39153871        0.83299916        0.88945784  C
       atom_frac         0.89279157        0.92368687        0.89196887  C
       atom_frac         0.63270499        0.67647138        0.60774440  C
       atom_frac         0.09700426        0.55544781        0.53760748  C
       atom_frac         0.45776468        0.80681734        0.98195904  C
       atom_frac         0.95814026        0.94932660        0.98440694  C
       atom_frac         0.55944091        0.69927357        0.51269710  C
       atom_frac         0.08946560        0.62502357        0.95881270  C
       atom_frac         0.43210086        0.87723906        0.52886588  C
       atom_frac         0.94681702        0.86750842        0.54204105  C
       atom_frac         0.58877363        0.62515572        0.96654217  C
       atom_frac         0.01575483        0.59322222        0.86755298  C
       atom_frac         0.50734364        0.85412458        0.62152489  C
       atom_frac         1.01354731        0.89443603        0.63249486  C
       atom_frac         0.52557991        0.65532660        0.87697986  C
       atom_frac         0.15231980        0.53679377        0.74538238  H
       atom_frac         0.37675402        0.77621296        0.76443953  H
       atom_frac         0.87450910        0.97376263        0.76972111  H
       atom_frac         0.65327245        0.73166582        0.73153666  H
       atom_frac         0.21575106        0.66449411        0.65713589  H
       atom_frac         0.30155859        0.90946128        0.85445776  H
       atom_frac         0.81844163        0.84286195        0.86119826  H
       atom_frac         0.70469509        0.59476010        0.63838876  H
       atom_frac         0.16653801        0.70701684        0.98636386  H
       atom_frac         0.35676109        0.95750842        0.49807282  H
       atom_frac         0.86777049        0.78886111        0.50983748  H
       atom_frac         0.66056515        0.54451263        0.99863844  H
       atom_frac         0.02800440        0.65263468        0.82093064  H
       atom_frac         0.49096923        0.91025253        0.66526026  H
       atom_frac         0.98845272        0.83826010        0.67508553  H
       atom_frac         0.56943289        0.59997222        0.84133449  H

 
  Finished reading input file 'geometry.in'.
 

 
  Consistency checks for stacksize environment parameter are next.
 
  | Maximum stacksize for task 0: unlimited
  | Maximum stacksize for task 1: unlimited
  | Maximum stacksize for task 2: unlimited
  | Maximum stacksize for task 3: unlimited
  | Maximum stacksize for task 4: unlimited
  | Maximum stacksize for task 5: unlimited
  | Maximum stacksize for task 6: unlimited
  | Maximum stacksize for task 7: unlimited
  | Maximum stacksize for task 8: unlimited
  | Maximum stacksize for task 9: unlimited
  | Maximum stacksize for task 10: unlimited
  | Maximum stacksize for task 11: unlimited
  | Maximum stacksize for task 12: unlimited
  | Maximum stacksize for task 13: unlimited
  | Maximum stacksize for task 14: unlimited
  | Maximum stacksize for task 15: unlimited
  | Maximum stacksize for task 16: unlimited
  | Maximum stacksize for task 17: unlimited
  | Current stacksize for task 0: unlimited
  | Current stacksize for task 1: unlimited
  | Current stacksize for task 2: unlimited
  | Current stacksize for task 3: unlimited
  | Current stacksize for task 4: unlimited
  | Current stacksize for task 5: unlimited
  | Current stacksize for task 6: unlimited
  | Current stacksize for task 7: unlimited
  | Current stacksize for task 8: unlimited
  | Current stacksize for task 9: unlimited
  | Current stacksize for task 10: unlimited
  | Current stacksize for task 11: unlimited
  | Current stacksize for task 12: unlimited
  | Current stacksize for task 13: unlimited
  | Current stacksize for task 14: unlimited
  | Current stacksize for task 15: unlimited
  | Current stacksize for task 16: unlimited
  | Current stacksize for task 17: unlimited
 
  Consistency checks for the contents of control.in are next.
 
  MPI_IN_PLACE appears to work with this MPI implementation.
  | Keeping use_mpi_in_place .true. (see manual).
  Explicit treatment of the Coulomb operator is needed, but the RI method is not specified.
  Coulomb operator: Defaulting to 'LVL fast' resolution of identity - RI_type = LVL_fast
  Species H: Using default value for prodbas_acc =   1.000000E-06.
  Species H: Using default value max_l_prodbas =     6.
  Species C: Using default value for prodbas_acc =   1.000000E-06.
  Species C: Using default value max_l_prodbas =     6.
  Target number of points in a grid batch is not set.  Since GPU acceleration is enabled, defaulting to  200
  Method for grid partitioning is not set. Defaulting to parallel hash+maxmin partitioning.
  Batch size limit is not set. Defaulting to    200
  By default, will store active basis functions for each batch.
  If in need of memory, prune_basis_once .false. can be used to disable this option.
  communication_type for Hartree potential was not specified.
  Defaulting to calc_hartree .
  Defaulting to Pulay charge density mixer.
  Pulay mixer: Number of relevant iterations not set.
  Defaulting to    8 iterations.
  Pulay mixer: Number of initial linear mixing iterations not set.
  Defaulting to    0 iterations.
  Work space size for distributed Hartree potential not set.
  Defaulting to   0.200000E+03 MB.
  Algorithm-dependent basis array size parameters:
  | n_max_pulay                         :        8
  Maximum number of self-consistency iterations not provided.
  Presetting  1000 iterations.
  Presetting      1001 iterations before the initial mixing cycle
  is restarted anyway using the sc_init_iter criterion / keyword.
  Presetting a factor      1.000 between actual scf density residual
  and density convergence criterion sc_accuracy_rho below which sc_init_iter
  takes no effect.
 * No s.c.f. convergence criteria (sc_accuracy_*) were provided in control.in.
 * The run will proceed with a reasonable default guess, but please check whether.
 * the s.c.f. cycles seem to take too much or too little time.
  Geometry relaxation not requested: no relaxation will be performed.
 * Notice: The s.c.f. convergence criterion sc_accuracy_rho was not provided.
 * We used to stop in this case, and ask the user to provide reasonable
 * scf convergence criteria. However, this led some users to employ criteria
 * that led to extremely long run times, e.g., for simple relaxation.
 * We now preset a default value for sc_accuracy_rho if it is not set.
 * You may still wish to check if this setting is too tight or too loose for your needs.
 * Based on n_atoms and forces and force-correction status, FHI-aims chose sc_accuracy_rho =  0.391918E-04 .
  No accuracy limit for integral partition fn. given. Defaulting to  0.1000E-14.
  No threshold value for u(r) in integrations given. Defaulting to  0.1000E-05.
  No occupation type (smearing scheme) given. Defaulting to Gaussian broadening, width =  0.1000E-01 eV.
  The width will be adjusted in iteration number     2 of the first full s.c.f. cycle only.
  S.C.F. convergence parameters will be adjusted in iteration number     2 of the first full s.c.f. cycle only.
  No accuracy for occupation numbers given. Defaulting to  0.1000E-12.
  No threshold value for occupation numbers given. Defaulting to  0.0000E+00.
  No accuracy for fermi level given. Defaulting to  0.1000E-19.
  Maximum # of iterations to find E_F not set. Defaulting to  200.
  Preferred method for the eigenvalue solver ('KS_method') not specified in 'control.in'.
  Calling BLACS routine to test compilation state
  Since ScaLAPACK support is enabled, defaulting to ELPA (via ELSI).
  Will not use alltoall communication since running on < 1024 CPUs.
  Threshold for basis singularities not set.
  Default threshold for basis singularities:  0.1000E-04
  partition_type (choice of integration weights) for integrals was not specified.
  | Using a version of the partition function of Stratmann and coworkers ('stratmann_sparse').
  | At each grid point, the set of atoms used to build the partition table is smoothly restricted to
  | only those atoms whose free-atom density would be non-zero at that grid point.
  Partitioning for Hartree potential was not defined. Using partition_type for integrals.
  | Adjusted default value of keyword multip_moments_threshold to:       0.10000000E-11
  | This value may affect high angular momentum components of the Hartree potential in periodic systems.
  Angular momentum expansion for Kerker preconditioner not set explicitly.
  | Using default value of   0
  No explicit requirement for turning off preconditioner.
  | By default, it will be turned off when the charge convergence reaches
  | sc_accuracy_rho  =   0.391918E-04
  No special mixing parameter while Kerker preconditioner is on.
  Using default: charge_mix_param =     0.7500.
  Threshold for auxiliary basis singularities not set.
  Default threshold for auxiliary basis singularities:  0.1000E-04
  No q(lm)/r^(l+1) cutoff set for long-range Hartree potential.
  | Using default value of  0.100000E-09 .
  | Verify using the multipole_threshold keyword.
  Defaulting to new monopole extrapolation.
  Density update method: automatic selection selected.
  Using density matrix based charge density update.
  Using density matrix based charge density update.
  Using packed matrix style: index .
  Defaulting to use time-reversal symmetry for k-point grid.
  Charge integration errors on the 3D integration grid will be compensated
  by explicit normalization and distribution of residual charges.
  Use the "compensate_multipole_errors" flag to change this behaviour.
  Default to 1D ("use_logsbt") integrations for auxiliary 2-center integrals.
  Default onset of logarithmic r-grid for SBT is -38.000000000000
  Default onset of logarithmic k-grid for SBT is -25.000000000000
  Default range of logarithmic r- and k-grid for SBT is  45.000000000000
  Default number of logarithmic r- and k-grid for SBT is   4096
  Default of use_2d_corr is to use the efficient 2D distribution where possible
 
  Consistency checks for the contents of geometry.in are next.
 

  Range separation radius for Ewald summation (hartree_convergence_parameter):      2.91768261 bohr.
  Number of empty states per atom not set in control.in .
  | Since you are using a method that relies on the unoccupied spectrum
  | (MP2,GW,RPA et al.), will use the full Hamiltonian size (see below)
  | as the max. possible number of states (occupied plus empty).

  Structure-dependent array size parameters: 
  | Maximum number of distinct radial functions  :        9
  | Maximum number of basis functions            :     1440
  | Number of Kohn-Sham states (occupied + empty):     1440
------------------------------------------------------------
CUDA runtime version: 11060
CUDA driver version: 11060
  Initializing GPUs...

  Number of GPUs available to MPI task         0 :   1
  Number of GPUs available to MPI task         1 :   1
  Number of GPUs available to MPI task         2 :   1
  Number of GPUs available to MPI task         3 :   1
  Number of GPUs available to MPI task         4 :   1
  Number of GPUs available to MPI task         5 :   1
  Number of GPUs available to MPI task         6 :   1
  Number of GPUs available to MPI task         7 :   1
  Number of GPUs available to MPI task         8 :   1
  Number of GPUs available to MPI task         9 :   1
  Number of GPUs available to MPI task        10 :   1
  Number of GPUs available to MPI task        11 :   1
  Number of GPUs available to MPI task        12 :   1
  Number of GPUs available to MPI task        13 :   1
  Number of GPUs available to MPI task        14 :   1
  Number of GPUs available to MPI task        15 :   1
  Number of GPUs available to MPI task        16 :   1
  Number of GPUs available to MPI task        17 :   1

  | MPI task         0, GPU activated = T, Device Name = NVIDIA A100-SXM4-80GB
  | MPI task         1, GPU activated = T, Device Name = NVIDIA A100-SXM4-80GB
  | MPI task         2, GPU activated = T, Device Name = NVIDIA A100-SXM4-80GB
  | MPI task         3, GPU activated = T, Device Name = NVIDIA A100-SXM4-80GB
  | MPI task         4, GPU activated = T, Device Name = NVIDIA A100-SXM4-80GB
  | MPI task         5, GPU activated = T, Device Name = NVIDIA A100-SXM4-80GB
  | MPI task         6, GPU activated = T, Device Name = NVIDIA A100-SXM4-80GB
  | MPI task         7, GPU activated = T, Device Name = NVIDIA A100-SXM4-80GB
  | MPI task         8, GPU activated = T, Device Name = NVIDIA A100-SXM4-80GB
  | MPI task         9, GPU activated = T, Device Name = NVIDIA A100-SXM4-80GB
  | MPI task        10, GPU activated = T, Device Name = NVIDIA A100-SXM4-80GB
  | MPI task        11, GPU activated = T, Device Name = NVIDIA A100-SXM4-80GB
  | MPI task        12, GPU activated = T, Device Name = NVIDIA A100-SXM4-80GB
  | MPI task        13, GPU activated = T, Device Name = NVIDIA A100-SXM4-80GB
  | MPI task        14, GPU activated = T, Device Name = NVIDIA A100-SXM4-80GB
  | MPI task        15, GPU activated = T, Device Name = NVIDIA A100-SXM4-80GB
  | MPI task        16, GPU activated = T, Device Name = NVIDIA A100-SXM4-80GB
  | MPI task        17, GPU activated = T, Device Name = NVIDIA A100-SXM4-80GB

------------------------------------------------------------
          Preparing all fixed parts of the calculation.
------------------------------------------------------------
  Determining machine precision:
    2.225073858507201E-308
  Setting up grids for atomic and cluster calculations.

  Creating wave function, potential, and density for free atoms.
  Runtime choices for atomic solver:
  | atomic solver xc        : PW-LDA
  | compute density gradient: 0
  | compute kinetic density : F

  Species: H

  List of occupied orbitals and eigenvalues:
    n    l              occ      energy [Ha]    energy [eV]
    1    0           1.0000        -0.232375        -6.3233


  Species: C

  List of occupied orbitals and eigenvalues:
    n    l              occ      energy [Ha]    energy [eV]
    1    0           2.0000        -9.944615      -270.6068
    2    0           2.0000        -0.498807       -13.5732
    2    1           2.0000        -0.196968        -5.3598


  Adding cutoff potential to free-atom effective potential.
  Creating fixed part of basis set: Ionic, confined, hydrogenic.
 
  H                    hydrogenic:
 
  List of hydrogenic basis orbitals: 
    n    l      effective z      eigenvalue [eV]  inner max. [A]     outer max. [A]     outer radius [A]   
    2    0         2.100000       -14.9728           0.193243           1.317208           4.583499
    2    1         3.500000       -41.6669           0.602369           0.602369           3.723403
 
 
  C                    hydrogenic:
 
  List of hydrogenic basis orbitals: 
    n    l      effective z      eigenvalue [eV]  inner max. [A]     outer max. [A]     outer radius [A]   
    2    1         1.700000        -9.7616           1.230570           1.230570           4.607917
    3    2         6.000000       -54.4224           0.792453           0.792453           3.883070
    2    0         4.900000       -81.6679           0.082559           0.562749           3.078220
 
  Creating atomic-like basis functions for current effective potential.

  Species H                   :

  List of atomic basis orbitals and eigenvalues:
    n    l      energy [Ha]    energy [eV]    outer radius [A]
    1    0        -0.232375        -6.3233       4.527807


  Species C                   :

  List of atomic basis orbitals and eigenvalues:
    n    l      energy [Ha]    energy [eV]    outer radius [A]
    1    0        -9.944615      -270.6068       1.934409
    2    0        -0.498807       -13.5732       4.496620
    2    1        -0.196968        -5.3598       4.551928

  Assembling full basis from fixed parts.
  | Species H :   atomic orbital   1 s accepted.
  | Species H :    hydro orbital   2 s accepted.
  | Species H :    hydro orbital   2 p accepted.
  | Species C :   atomic orbital   1 s accepted.
  | Species C :    hydro orbital   2 s accepted.
  | Species C :   atomic orbital   2 s accepted.
  | Species C :   atomic orbital   2 p accepted.
  | Species C :    hydro orbital   2 p accepted.
  | Species C :    hydro orbital   3 d accepted.
 
  Basis size parameters after reduction:
  | Total number of radial functions:        9
  | Total number of basis functions :     1440
 
  Per-task memory consumption for arrays in subroutine allocate_ext:
  |           2.242384MB.
  Testing on-site integration grid accuracy.
  |  Species  Function  <phi|h_atom|phi> (log., in eV)  <phi|h_atom|phi> (rad., in eV)
           1        1                 -6.3245358373                 -6.3232436907
           1        2                 14.1326137532                 14.1384481100
           1        3                 25.3627025200                 25.3628451197
           2        4               -270.6067544938               -270.6067222788
           2        5                -10.5634280949                -10.5635685736
           2        6                 16.2089822398                 16.2052121796
           2        7                 -5.3613872565                 -5.3627872378
           2        8                  8.5292058327                  8.5051734780
           2        9                 27.4884461005                 27.4884542459

  Preparing densities etc. for the partition functions (integrals / Hartree potential).

  Preparations completed.
  max(cpu_time)          :      0.072 s.
  Wall clock time (cpu1) :      0.067 s.
------------------------------------------------------------

  Initializing index lists of integration centers etc. from given atomic structure:
  Mapping all atomic coordinates to central unit cell.

  Initializing the k-points
  Using symmetry for reducing the k-points
  | k-points reduced from:        2 to        2
  | Number of k-points                             :         2
  | Consuming          0 KiB for k_phase_exx.
  The eigenvectors in the calculations are REAL.
  | Number of basis functions in the Hamiltonian integrals :      8019
  | Number of basis functions in a single unit cell        :      1440
  | Number of centers in hartree potential         :      3332
  | Number of centers in hartree multipole         :      2559
  | Number of centers in electron density summation:      1986
  | Number of centers in basis integrals           :      2127
  | Number of centers in integrals                 :       966
  | Number of centers in hamiltonian               :      1997
  | Consuming          1 KiB for k_phase.
  | Number of super-cells (origin) [n_cells]                     :         175
  | Number of super-cells (after PM_index) [n_cells]             :          38
  | Number of super-cells in hamiltonian [n_cells_in_hamiltonian]:          38
  | Size of matrix packed + index [n_hamiltonian_matrix_size] :     1931961
  | Size of matrix packed + index (no_symmetry):     3861105

------------------------------------------------------------
          Begin self-consistency loop: Initialization.

          Date     :  20230120, Time     :  152633.430
------------------------------------------------------------
  | Estimated reciprocal-space cutoff momentum G_max:         3.24344278 bohr^-1 .
  | Reciprocal lattice points for long-range Hartree potential:    5310
  Using simple linear distribution as default method for k-point parallelism.
  * Using 18 tasks for Scalapack Eigenvalue solver.
  Detailed listing of tasks and assigned k-points:
   Task     0 k-point     1 on adag003
   Task     1 k-point     1 on adag003
   Task     2 k-point     1 on adag003
   Task     3 k-point     1 on adag003
   Task     4 k-point     1 on adag003
   Task     5 k-point     1 on adag003
   Task     6 k-point     1 on adag003
   Task     7 k-point     1 on adag003
   Task     8 k-point     1 on adag003
   Task     9 k-point     2 on adag003
   Task    10 k-point     2 on adag003
   Task    11 k-point     2 on adag003
   Task    12 k-point     2 on adag003
   Task    13 k-point     2 on adag003
   Task    14 k-point     2 on adag003
   Task    15 k-point     2 on adag003
   Task    16 k-point     2 on adag003
   Task    17 k-point     2 on adag003
  K-point:     1 Tasks:     9 split into      3 X      3 BLACS grid
  Calculating block size based on n_basis =         1440  max_nprow =            3  max_npcol =            3
  ScaLAPACK block size set to:           16
  Allocating        1.758 MB for ovlp
  Allocating        1.758 MB for ham
  Allocating        1.758 MB for eigenvec
  Required Scalapack workspace - INTEGER:            1  REAL:             1
  Partitioning the integration grid into batches with parallel hashing+maxmin method.
  | Number of batches:     5376
  | Maximal batch size:     198
  | Minimal batch size:     100
  | Average batch size:     142.083
  | Standard deviation of batch sizes:      31.286

  Integration load balanced across    18 MPI tasks.
  Work distribution over tasks is as follows:
  Task     0 has      42426 integration points.
  Task     1 has      42425 integration points.
  Task     2 has      42358 integration points.
  Task     3 has      42346 integration points.
  Task     4 has      42408 integration points.
  Task     5 has      42527 integration points.
  Task     6 has      42407 integration points.
  Task     7 has      42451 integration points.
  Task     8 has      42543 integration points.
  Task     9 has      42386 integration points.
  Task    10 has      42389 integration points.
  Task    11 has      42448 integration points.
  Task    12 has      42505 integration points.
  Task    13 has      42527 integration points.
  Task    14 has      42354 integration points.
  Task    15 has      42429 integration points.
  Task    16 has      42432 integration points.
  Task    17 has      42479 integration points.
  Initializing partition tables, free-atom densities, potentials, etc. across the integration grid (initialize_grid_storage).
  | initialize_grid_storage: Actual outermost partition radius vs. multipole_radius_free
  | (-- VB: in principle, multipole_radius_free should be larger, hence this output)
  | Species        1: Confinement radius =              4.999999999999999 AA, multipole_radius_free =              5.054417573612229 AA.
  | Species        1: outer_partition_radius set to              5.054417573612229 AA .
  | Species        2: Confinement radius =              4.999999999999999 AA, multipole_radius_free =              5.019602836301480 AA.
  | Species        2: outer_partition_radius set to              5.019602836301480 AA .
  | The sparse table of interatomic distances needs       7653.59 kbyte instead of     36193.03 kbyte of memory.
  | Net number of integration points:   763840
  | of which are non-zero points    :   605235
  | Numerical average free-atom electrostatic potential    :     -8.61467297 eV
  Renormalizing the initial density to the exact electron count on the 3D integration grid.
  | Initial density: Formal number of electrons (from input files) :     544.0000000000
  | Integrated number of electrons on 3D grid     :     543.9961361234
  | Charge integration error                      :      -0.0038638766
  | Normalization factor for density and gradient :       1.0000071028
  Renormalizing the free-atom superposition density to the exact electron count on the 3D integration grid.
  | Formal number of electrons (from input files) :     544.0000000000
  | Integrated number of electrons on 3D grid     :     543.9961361234
  | Charge integration error                      :      -0.0038638766
  | Normalization factor for density and gradient :       1.0000071028
  Obtaining max. number of non-zero basis functions in each batch (get_n_compute_maxes).
  | Maximal number of non-zero basis functions:      529 in task     0
  | Maximal number of non-zero basis functions:      536 in task     1
  | Maximal number of non-zero basis functions:      544 in task     2
  | Maximal number of non-zero basis functions:      547 in task     3
  | Maximal number of non-zero basis functions:      531 in task     4
  | Maximal number of non-zero basis functions:      537 in task     5
  | Maximal number of non-zero basis functions:      543 in task     6
  | Maximal number of non-zero basis functions:      541 in task     7
  | Maximal number of non-zero basis functions:      555 in task     8
  | Maximal number of non-zero basis functions:      531 in task     9
  | Maximal number of non-zero basis functions:      526 in task    10
  | Maximal number of non-zero basis functions:      533 in task    11
  | Maximal number of non-zero basis functions:      538 in task    12
  | Maximal number of non-zero basis functions:      549 in task    13
  | Maximal number of non-zero basis functions:      538 in task    14
  | Maximal number of non-zero basis functions:      545 in task    15
  | Maximal number of non-zero basis functions:      546 in task    16
  | Maximal number of non-zero basis functions:      540 in task    17
  Integrating Hamiltonian matrix: batch-based integration.
  GPU acceleration will be used when integrating the Hamiltonian matrix.
  Reporting GPU memory usage by myid 0.  Note that it is likely not the only MPI task binding to its GPU!
  Allocating        2.239 MB on GPU for hamiltonian_shell
  Allocating        0.838 MB on GPU for wave
  Allocating        0.002 MB on GPU for partition
  Allocating        0.838 MB on GPU for h_times_psi
  Time summed over all CPUs for integration: real work       22.344 s, elapsed       22.825 s
  Deallocating memory used on GPU for Hamiltonian integration.
  Integrating overlap matrix.
  Time summed over all CPUs for integration: real work       18.879 s, elapsed       19.107 s
  Deallocating overlap matrix.

  Updating Kohn-Sham eigenvalues and eigenvectors using ELSI and the ELPA eigensolver.
  Singularity check in k-point 1 (analysis for other k-points may follow below):
  Overlap matrix is not singular
  | Lowest and highest eigenvalues :  0.8054E-03,  0.8275E+01
  Finished singularity check of overlap matrix
  | Time :     0.100 s
  Starting ELPA eigensolver
  Finished Cholesky decomposition
  | Time :     0.016 s
  Finished transformation to standard eigenproblem
  | Time :     0.021 s
  Finished solving standard eigenproblem
  | Time :     0.214 s
  Finished back-transformation of eigenvectors
  | Time :     0.018 s

  Obtaining occupation numbers and electronic chemical potential using ELSI.
  | Note that, for insulating systems, the printed 'chemical potential' value is not uniquely defined.
  | It can be anywhere in the energy gap, as long as it correctly separates occupied and unoccupied states.
  | In systems with a gap, the physically relevant chemical potential is the VBM or HOMO.

  | Chemical potential (Fermi level):    -8.91296863 eV
  Writing Kohn-Sham eigenvalues.
  K-point:       1 at    0.000000    0.000000    0.000000 (in units of recip. lattice)

  State    Occupation    Eigenvalue [Ha]    Eigenvalue [eV]
      1       2.00000         -10.069513         -274.00540
      2       2.00000         -10.069488         -274.00470
      3       2.00000         -10.068432         -273.97599
      4       2.00000         -10.068375         -273.97442
      5       2.00000         -10.067977         -273.96360
      6       2.00000         -10.066928         -273.93504
      7       2.00000         -10.066816         -273.93201
      8       2.00000         -10.066775         -273.93088
      9       2.00000         -10.066654         -273.92760
     10       2.00000         -10.066581         -273.92562
     11       2.00000         -10.066196         -273.91513
     12       2.00000         -10.066028         -273.91056
     13       2.00000         -10.065986         -273.90942
     14       2.00000         -10.065971         -273.90900
     15       2.00000         -10.065663         -273.90062
     16       2.00000         -10.065614         -273.89929
     17       2.00000         -10.065505         -273.89633
     18       2.00000         -10.065441         -273.89457
     19       2.00000         -10.065292         -273.89052
     20       2.00000         -10.065258         -273.88959
     21       2.00000         -10.065190         -273.88776
     22       2.00000         -10.064997         -273.88251
     23       2.00000         -10.064949         -273.88120
     24       2.00000         -10.064841         -273.87826
     25       2.00000         -10.064667         -273.87353
     26       2.00000         -10.064645         -273.87292
     27       2.00000         -10.064594         -273.87153
     28       2.00000         -10.064506         -273.86915
     29       2.00000         -10.064402         -273.86631
     30       2.00000         -10.064371         -273.86547
     31       2.00000         -10.064322         -273.86414
     32       2.00000         -10.064235         -273.86176
     33       2.00000         -10.064030         -273.85619
     34       2.00000         -10.063933         -273.85355
     35       2.00000         -10.063782         -273.84945
     36       2.00000         -10.063775         -273.84925
     37       2.00000         -10.063682         -273.84672
     38       2.00000         -10.063561         -273.84342
     39       2.00000         -10.063464         -273.84078
     40       2.00000         -10.062759         -273.82160
     41       2.00000         -10.062747         -273.82128
     42       2.00000         -10.062608         -273.81750
     43       2.00000         -10.062504         -273.81468
     44       2.00000         -10.062420         -273.81239
     45       2.00000         -10.062135         -273.80464
     46       2.00000         -10.062117         -273.80415
     47       2.00000         -10.061651         -273.79145
     48       2.00000         -10.061024         -273.77438
     49       2.00000         -10.060945         -273.77224
     50       2.00000         -10.060899         -273.77098
     51       2.00000         -10.060731         -273.76643
     52       2.00000         -10.060647         -273.76414
     53       2.00000         -10.060447         -273.75869
     54       2.00000         -10.060361         -273.75636
     55       2.00000         -10.060152         -273.75068
     56       2.00000         -10.060096         -273.74914
     57       2.00000         -10.059899         -273.74378
     58       2.00000         -10.059886         -273.74343
     59       2.00000         -10.059810         -273.74136
     60       2.00000         -10.059273         -273.72674
     61       2.00000         -10.059221         -273.72533
     62       2.00000         -10.058754         -273.71263
     63       2.00000         -10.058538         -273.70675
     64       2.00000         -10.058524         -273.70638
     65       2.00000         -10.058234         -273.69849
     66       2.00000         -10.057974         -273.69139
     67       2.00000         -10.057733         -273.68484
     68       2.00000         -10.056812         -273.65978
     69       2.00000         -10.056728         -273.65750
     70       2.00000         -10.056519         -273.65181
     71       2.00000         -10.055903         -273.63505
     72       2.00000         -10.055381         -273.62083
[...]
  |    H      0     4.527807 A      4.583499 A        4.713786E-16 a.u.
  |    H      2     3.678162 A  1.011968E+04 A            0.556529 a.u.
  |    H      1     3.958095 A  1.721251E+06 A            0.841931 a.u.
  |    H      0     4.527807 A  3.866455E+12 A            0.581436 a.u.
  |    C      0     2.562483 A      2.562483 A        6.563029E-17 a.u.
  |    C      0     2.967371 A      2.967371 A        1.352164E-16 a.u.
  |    C      0     3.003870 A      3.003870 A        2.312640E-17 a.u.
  |    C      1     3.272245 A      3.272245 A       -3.835259E-17 a.u.
  |    C      0     3.312494 A      3.312494 A       -2.710381E-16 a.u.
  |    C      3     4.077671 A      4.077671 A       -1.683752E-15 a.u.
  |    C      3     4.077671 A      4.077671 A        1.412852E-15 a.u.
  |    C      1     4.496620 A      4.496620 A       -3.011059E-16 a.u.
  |    C      0     4.496620 A      4.551928 A        2.873903E-17 a.u.
  |    C      2     4.551928 A      4.551928 A       -4.610785E-16 a.u.
  |    C      2     4.551928 A      4.551928 A        7.440584E-16 a.u.
  |    C      2     4.551928 A      4.551928 A       -7.110458E-16 a.u.
  |    C      2     4.551928 A      4.551928 A       -1.935424E-16 a.u.
  |    C      0     4.551928 A      4.607917 A        2.067142E-16 a.u.
  |    C      0     4.551928 A      4.607917 A       -1.109786E-16 a.u.
  |    C      1     4.551928 A      4.607917 A       -9.951742E-17 a.u.
  |    C      1     4.551928 A      4.607917 A        1.937809E-16 a.u.
  |    C      1     4.607917 A      4.607917 A       -2.813308E-16 a.u.
  |    C      1     4.607917 A      4.607917 A       -7.330363E-17 a.u.
  |    C      2     4.607917 A      4.607917 A        1.318462E-15 a.u.
  |    C      2     4.607917 A      4.607917 A       -1.318397E-15 a.u.
  |    C      0     4.607917 A      4.664595 A        3.157826E-16 a.u.
  |    C      1     4.607917 A      4.664595 A        7.356967E-16 a.u.
  |    C      4     3.835889 A  2.962973E+02 A            4.379483 a.u.
  |    C      3     4.127827 A  1.725964E+03 A            9.005588 a.u.
  |    C      2     4.607917 A  2.608475E+04 A            9.531178 a.u.
  |    C      1     4.607917 A  2.736013E+06 A            2.127278 a.u.
  |    C      0     4.607917 A  4.399765E+12 A            0.661635 a.u.

  | Shrink_full_auxil_basis : there are       36  radial auxiliary wave functions
                            accepted and       7 rejected.
  | Shrink_full_auxil_basis : there are totally                8992 partial auxiliary wave functions.
 
  | Maximal number of product basis functions per thread :   512   512
 
  | Minimal total memory requirement for three-center overlap :      72.476 Gbs
  | Number of local auxiliary basis functions on task:      0   512
  | Number of local auxiliary basis functions on task:      1   512
  | Number of local auxiliary basis functions on task:      2   512
  | Number of local auxiliary basis functions on task:      3   512
  | Number of local auxiliary basis functions on task:      4   496
  | Number of local auxiliary basis functions on task:      5   496
  | Number of local auxiliary basis functions on task:      6   496
  | Number of local auxiliary basis functions on task:      7   496
  | Number of local auxiliary basis functions on task:      8   496
  | Number of local auxiliary basis functions on task:      9   496
  | Number of local auxiliary basis functions on task:     10   496
  | Number of local auxiliary basis functions on task:     11   496
  | Number of local auxiliary basis functions on task:     12   496
  | Number of local auxiliary basis functions on task:     13   496
  | Number of local auxiliary basis functions on task:     14   496
  | Number of local auxiliary basis functions on task:     15   496
  | Number of local auxiliary basis functions on task:     16   496
  | Number of local auxiliary basis functions on task:     17   496
  | 2D aux task distribution:      3 X      6
  | 2D block size (nb_aux_2d):     64
 
  Basis pair condensation :   1037520  -->     547742
 
 --------------------------------------------
  Constructing auxiliary basis (full product) ...
 
  Product basis:
  | charge radius: extent of product basis function
  | field radius: extent of its Coulomb potential
  | Species   l  charge radius    field radius  multipol momen
  |    H      1     3.910002 A      3.910002 A       -2.487223E-16 a.u.
  |    H      1     3.958095 A      3.958095 A       -2.441841E-16 a.u.
  |    H      0     4.527807 A      4.527807 A        1.268855E-16 a.u.
  |    H      0     4.527807 A      4.583499 A       -4.900954E-17 a.u.
  |    H      0     4.527807 A      4.583499 A        4.713786E-16 a.u.
  |    H      2     3.678162 A  1.011968E+04 A            0.556529 a.u.
  |    H      1     3.958095 A  1.721251E+06 A            0.841931 a.u.
  |    H      0     4.527807 A  3.866455E+12 A            0.581436 a.u.
  |    C      0     2.562483 A      2.562483 A        6.563029E-17 a.u.
  |    C      0     2.967371 A      2.967371 A        1.352164E-16 a.u.
  |    C      0     3.003870 A      3.003870 A        2.312640E-17 a.u.
  |    C      1     3.272245 A      3.272245 A       -3.835259E-17 a.u.
  |    C      0     3.312494 A      3.312494 A       -2.710381E-16 a.u.
  |    C      3     4.077671 A      4.077671 A       -1.683752E-15 a.u.
  |    C      3     4.077671 A      4.077671 A        1.412852E-15 a.u.
  |    C      1     4.496620 A      4.496620 A       -3.011059E-16 a.u.
  |    C      0     4.496620 A      4.551928 A        2.873903E-17 a.u.
  |    C      2     4.551928 A      4.551928 A       -4.610785E-16 a.u.
  |    C      2     4.551928 A      4.551928 A        7.440584E-16 a.u.
  |    C      2     4.551928 A      4.551928 A       -7.110458E-16 a.u.
  |    C      2     4.551928 A      4.551928 A       -1.935424E-16 a.u.
  |    C      0     4.551928 A      4.607917 A        2.067142E-16 a.u.
  |    C      0     4.551928 A      4.607917 A       -1.109786E-16 a.u.
  |    C      1     4.551928 A      4.607917 A       -9.951742E-17 a.u.
  |    C      1     4.551928 A      4.607917 A        1.937809E-16 a.u.
  |    C      1     4.607917 A      4.607917 A       -2.813308E-16 a.u.
  |    C      1     4.607917 A      4.607917 A       -7.330363E-17 a.u.
  |    C      2     4.607917 A      4.607917 A        1.318462E-15 a.u.
  |    C      2     4.607917 A      4.607917 A       -1.318397E-15 a.u.
  |    C      0     4.607917 A      4.664595 A        3.157826E-16 a.u.
  |    C      1     4.607917 A      4.664595 A        7.356967E-16 a.u.
  |    C      4     3.835889 A  2.962973E+02 A            4.379483 a.u.
  |    C      3     4.127827 A  1.725964E+03 A            9.005588 a.u.
  |    C      2     4.607917 A  2.608475E+04 A            9.531178 a.u.
  |    C      1     4.607917 A  2.736013E+06 A            2.127278 a.u.
  |    C      0     4.607917 A  4.399765E+12 A            0.661635 a.u.

  | Shrink_full_auxil_basis : there are       36  radial auxiliary wave functions
                            accepted and       7 rejected.
  | Shrink_full_auxil_basis : there are totally                8992 partial auxiliary wave functions.
 
  | Maximal number of product basis functions per thread :   512   512
 
  | Minimal total memory requirement for three-center overlap :      72.476 Gbs
  | Number of local auxiliary basis functions on task:      0   512
  | Number of local auxiliary basis functions on task:      1   512
  | Number of local auxiliary basis functions on task:      2   512
  | Number of local auxiliary basis functions on task:      3   512
  | Number of local auxiliary basis functions on task:      4   496
  | Number of local auxiliary basis functions on task:      5   496
  | Number of local auxiliary basis functions on task:      6   496
  | Number of local auxiliary basis functions on task:      7   496
  | Number of local auxiliary basis functions on task:      8   496
  | Number of local auxiliary basis functions on task:      9   496
  | Number of local auxiliary basis functions on task:     10   496
  | Number of local auxiliary basis functions on task:     11   496
  | Number of local auxiliary basis functions on task:     12   496
  | Number of local auxiliary basis functions on task:     13   496
  | Number of local auxiliary basis functions on task:     14   496
  | Number of local auxiliary basis functions on task:     15   496
  | Number of local auxiliary basis functions on task:     16   496
  | Number of local auxiliary basis functions on task:     17   496
  | 2D aux task distribution:      3 X      6
  | 2D block size (nb_aux_2d):     64
 
  Basis pair condensation :   1037520  -->     547742
  Allocating        0.069 MB for t_coeff
  Allocating        0.034 MB for basbas_idx
  Allocating        0.069 MB for wave
  Allocating        0.069 MB for total_wave
  Allocating        0.206 MB for wave_gradient
  Allocating        0.206 MB for total_wave_grad
 HERE1
 HERE2
  Deallocating        0.069 MB for t_coeff
  Deallocating        0.034 MB for basbas_idx
  Deallocating        0.069 MB for wave
  Deallocating        0.206 MB for wave_gradient
  Deallocating        0.206 MB for total_wave_grad
dP_dE (Bohr^3) at every cycle:--->
 (983.576543583844,0.000000000000000E+000) (11.3807490078417,0.000000000000000E+000) (-451.136182215959,0.000000000000000E+000)
 (11.4080808023795,0.000000000000000E+000) (1375.66405196173,0.000000000000000E+000) (-2.23249645119044,0.000000000000000E+000)
 (-451.313829847696,0.000000000000000E+000) (-2.22358424645768,0.000000000000000E+000) (1706.19360365487,0.000000000000000E+000)
DFPT polarizability (Bohr^3)        xx        yy        zz        xy        xz        yz
  | Polarizability:--->                       983.576543584                 1375.664051962                 1706.193603655                   11.380749008                 -451.136182216                   -2.232496451

DFPT for dielectric_constant:--->  # PARSE DFPT_dielectric_tensor
               2.334692389529113             0.015443433647330            -0.612182176336673
               0.015480522309519             2.866746775001344            -0.003029450064148
              -0.612423240383639            -0.003017356392427             3.315268326310267

                                               :  max(cpu_time)    wall_clock(cpu1)
  | Time for  dielectric calculation            :        0.000 s           0.000 s
===========================================================================

------------------------------------------------------------------------------
  Final output of selected total energy values:

  The following output summarizes some interesting total energy values
  at the end of a run (AFTER all relaxation, molecular dynamics, etc.).

  | Total energy of the DFT / Hartree-Fock s.c.f. calculation      :         -83267.443204710 eV
  | Final zero-broadening corrected energy (caution - metals only) :         -83267.443204710 eV
  | For reference only, the value of 1 Hartree used in FHI-aims is :             27.211384500 eV
  | For reference only, the overall average (free atom contribution
  | + realspace contribution) of the electrostatic potential after
  | s.c.f. convergence is                                          :             -7.695817568 eV

  Before relying on these values, please be sure to understand exactly which
  total energy value is referred to by a given number. Different objects may
  all carry the same name 'total energy'. Definitions:

  Total energy of the DFT / Hartree-Fock s.c.f. calculation:
  | Note that this energy does not include ANY quantities calculated after the
  | s.c.f. cycle, in particular not ANY RPA, MP2, etc. many-body perturbation terms.

  Final zero-broadening corrected energy:
  | For metallic systems only, a broadening of the occupation numbers at the Fermi
  | level can be extrapolated back to zero broadening by an electron-gas inspired
  | formula. For all systems that are not real metals, this value can be
  | meaningless and should be avoided.

------------------------------------------------------------------------------
  Methods described in the following list of references were used in this FHI-aims run.
  If you publish the results, please make sure to cite these reference if they apply.
  FHI-aims is an academic code, and for our developers (often, Ph.D. students
  and postdocs), scientific credit in the community is essential.
  Thank you for helping us!

  For any use of FHI-aims, please cite:

    Volker Blum, Ralf Gehrke, Felix Hanke, Paula Havu, Ville Havu,
    Xinguo Ren, Karsten Reuter, and Matthias Scheffler
    'Ab initio molecular simulations with numeric atom-centered orbitals'
    Computer Physics Communications 180, 2175-2196 (2009)
    http://doi.org/10.1016/j.cpc.2009.06.022


  For Hartree-Fock, hybrid functionals, or many-body perturbation theory used in your run, please cite:

    Xinguo Ren, Patrick Rinke, Volker Blum, Juergen Wieferink, Alex Tkatchenko,
    Andrea Sanfilippo, Karsten Reuter, and Matthias Scheffler,
    'Resolution-of-identity approach to Hartree-Fock, hybrid density functionals,
    RPA, MP2, and GW with numeric atom-centered orbital basis functions'
    New Journal of Physics 14, 053020 (2012).
    http://doi.org/10.1088/1367-2630/14/5/053020


  The provided symmetry information was generated with SPGlib:

    Atsushi Togo, Yusuke Seto, Dimitar Pashov
    SPGlib 1.7.3 obtained from http://spglib.sourceforge.net
    Copyright (C) 2008 Atsushi Togo


  The DFPT (perturbation by an electric field) part of the code was used.
  Here is the corresponding reference:

    Honghui Shang, Nathaniel Raimbault, Mariana Rossi,
    Christian Carbogno, Patrick Rinke and Matthias Scheffler,
    'All-Electron, Real-Space Perturbation Theory for Homogeneous
    Electric Fields: Theory, Implementation, and Application within dft'
    New Journal of Physics, 20(7):073040, 2018


  The ELSI infrastructure was used in your run to solve the Kohn-Sham electronic structure.
  Please check out http://elsi-interchange.org to learn more.
  If scalability is important for your project, please acknowledge ELSI by citing:

    V. W-z. Yu, F. Corsetti, A. Garcia, W. P. Huhn, M. Jacquelin, W. Jia,
    B. Lange, L. Lin, J. Lu, W. Mi, A. Seifitokaldani, A. Vazquez-Mayagoitia,
    C. Yang, H. Yang, and V. Blum
    'ELSI: A unified software interface for Kohn-Sham electronic structure solvers'
    Computer Physics Communications 222, 267-285 (2018).
    http://doi.org/10.1016/j.cpc.2017.09.007


  For the real-space grid partitioning and parallelization used in this calculation, please cite:

    Ville Havu, Volker Blum, Paula Havu, and Matthias Scheffler,
    'Efficient O(N) integration for all-electron electronic structure calculation'
    'using numerically tabulated basis functions'
    Journal of Computational Physics 228, 8367-8379 (2009).
    http://doi.org/10.1016/j.jcp.2009.08.008


  The high-level electronic structure method used in your calculation
  employed our efficient localized resolution of identity for the Coulomb operator.
  Some calculations, especially large-scale hybrid density functional theory,
  are only possible thanks to this development. For this feature, please cite:

    Arvid Ihrig, Juergen Wieferink, Igor Ying Zhang, Matti Ropo, Xinguo Ren,
    Patrick Rinke, Matthias Scheffler, and Volker Blum,
    'Accurate localized resolution of identity approach for linear-scaling
    hybrid density functionals and for many-body perturbation theory'
    New Journal of Physics 117, 093020 (2015).
    http://doi.org/10.1088/1367-2630/17/9/093020

  Of course, there are many other important community references, e.g., those cited in the
  above references. Our list is limited to references that describe implementations in the
  FHI-aims code. The reason is purely practical (length of this list) - please credit others as well.

------------------------------------------------------------
          Leaving FHI-aims.
          Date     :  20230120, Time     :  155013.887

          Computational steps:
          | Number of self-consistency cycles          :           46
          | Number of SCF (re)initializations          :            1
          | Number of coupled perturbed self-consistency cycles          :            0
          | Number of CPSCF (re)initializations          :            0

          Detailed time accounting                     :  max(cpu_time)    wall_clock(cpu1)
          | Total time                                  :     1422.573 s        1431.338 s
          | GPU initialization                          :        1.737 s           9.728 s
          | Preparation time                            :        0.072 s           0.067 s
          | Boundary condition initalization            :        1.000 s           1.000 s
          | Grid partitioning                           :        1.308 s           1.309 s
          | Preloading free-atom quantities on grid     :        5.276 s           5.275 s
          | Free-atom superposition energy              :        0.485 s           0.486 s
          | Total time for integrations                 :       19.707 s          19.828 s
          | Product basis setup: Total time             :        0.000 s           0.000 s
          | Product basis: | 2-center integrations     :(       0.000 s)  (       0.000 s)
          | Product basis: | LVL 3-center & coefficient:(       0.000 s)  (       0.000 s)
          | Total time for solution of K.-S. equations  :        3.592 s           3.595 s
          | Total time for density update               :       14.072 s          14.245 s
          | Total time for mixing & preconditioning     :       11.774 s          11.776 s
          | Total time for Hartree multipole update     :        0.089 s           0.089 s
          | Total time for Hartree multipole sum        :       44.480 s          44.495 s
          | Total time for total energy evaluation      :        0.014 s           0.006 s
          | Total time first_order_DM                   :        1.915 s           1.911 s
          | Total time first_order_density              :      295.033 s         295.098 s
          | Total time first_order_potential            :      118.388 s         118.421 s
          | Total time first_order_H                    :      569.790 s         569.953 s
          | Total time solving of Sternheimer equations :        1.830 s           1.829 s
          | Total time for dielectric constant          :        0.000 s           0.000 s
          | Total time momentum matrix                  :        0.000 s           0.000 s

          GPU acceleration has been used for charge density update.
          GPU acceleration has been used for real-space Hamiltonian integration.
          Due to GPU usage, wall_clock(cpu1) will give a more reliable estimate for timings.

          Partial memory accounting:
          | Residual value for overall tracked memory usage across tasks:     1.234863 MB (should be 0.000000 MB)
          |
          | Largest tracked array allocation:
          |   Minimum:      103.178 MB (DFPT_pulay_mixing::initialize_pulay_mixing::X_in_diffs on task  0)
          |   Maximum:      103.178 MB (DFPT_pulay_mixing::initialize_pulay_mixing::X_in_diffs on task  0)
          |   Average:      103.178 MB
          |
          | Because the residual tracked memory usage was not zero, the peak value for overall
          | tracked memory usage was not output, as it is probably incorrect.  This is likely due
          | to a missing aims_deallocate statement in the source code, which should be otherwise
          | harmless.
          |
          Note:  These values currently only include a subset of arrays which are explicitly tracked.
          The "true" memory usage will be greater.

          Have a nice day.
------------------------------------------------------------
