------------------------------------------------------------
          Invoking FHI-aims ...

          When using FHI-aims, please cite the following reference:

            Volker Blum, Ralf Gehrke, Felix Hanke, Paula Havu,
            Ville Havu, Xinguo Ren, Karsten Reuter, and Matthias Scheffler,
            'Ab Initio Molecular Simulations with Numeric Atom-Centered Orbitals',
            Computer Physics Communications 180, 2175-2196 (2009)

          In addition, many other developments in FHI-aims are likely important for
          your particular application. A partial list of references is given at the end of
          this file. Thank you for giving credit to the authors of these developments.

          For any questions about FHI-aims, please visit our slack channel at

            https://fhi-aims.slack.com

          and our main development and support site at

            https://aims-git.rz-berlin.mpg.de .

          The latter site, in particular, has a wiki to collect information, as well
          as an issue tracker to log discussions, suggest improvements, and report issues
          or bugs. https://aims-git.rz-berlin.mpg.de is also the main development site
          of the project and all new and updated code versions can be obtained there.
          Please send an email to aims-coordinators@fhi-berlin.mpg.de and we will add
          you to these sites. They are for you and everyone is welcome there.

------------------------------------------------------------



  Date     :  20230120, Time     :  134951.649
  Time zero on CPU 1             :   0.433993000000000E+00  s.
  Internal wall clock time zero  :           443454591.649  s.

  FHI-aims created a unique identifier for this run for later identification
  aims_uuid : 0A4B544C-30F9-48A3-ADFE-83644A0BF0EB

  Build configuration of the current instance of FHI-aims
  -------------------------------------------------------
  FHI-aims version      : 220829
  Commit number         : 9895fc21d
  CMake host system     : Linux-5.3.18-150300.59.68-default
  CMake version         : 3.17.0
  Fortran compiler      : /mpcdf/soft/SLE_15/packages/x86_64/intel_oneapi/2021.3/mpi/2021.3.0/bin/mpiifort (Intel) version 20.2.3.20210609
  Fortran compiler flags: -O3 -ip -fp-model precise
  C compiler            : /mpcdf/soft/SLE_15/packages/x86_64/intel/2021.3.0/bin/icc (Intel) version 20.2.3.20210609
  C compiler flags      : -O3 -ip -fp-model precise -std=gnu99
  CUDA compiler         : /mpcdf/soft/SLE_15/packages/x86_64/cuda/11.6.2/bin/nvcc
  CUDA compiler flags   : -O3 -DAdd_ -lcublas
  ELPA2 kernel          : AVX512
  Using MPI
  Using ScaLAPACK
  Using LibXC
  Using CUDA
  Using i-PI
  Using RLSY
  Linking against: /mpcdf/soft/SLE_15/packages/x86_64/cuda/11.6.2/lib64/libcublas.so
                   /mpcdf/soft/SLE_15/packages/x86_64/cuda/11.6.2/lib64/libcudart.so
                   /mpcdf/soft/SLE_15/packages/x86_64/intel_oneapi/2021.3/mkl/latest/lib/intel64/libmkl_intel_lp64.so
                   /mpcdf/soft/SLE_15/packages/x86_64/intel_oneapi/2021.3/mkl/latest/lib/intel64/libmkl_sequential.so
                   /mpcdf/soft/SLE_15/packages/x86_64/intel_oneapi/2021.3/mkl/latest/lib/intel64/libmkl_core.so
                   /mpcdf/soft/SLE_15/packages/x86_64/intel_oneapi/2021.3/mkl/latest/lib/intel64/libmkl_blacs_intelmpi_lp64.so
                   /mpcdf/soft/SLE_15/packages/x86_64/intel_oneapi/2021.3/mkl/latest/lib/intel64/libmkl_scalapack_lp64.so

  Using       18 parallel tasks.
  Task        0 on host adag005 reporting.
  Task        1 on host adag005 reporting.
  Task        2 on host adag005 reporting.
  Task        3 on host adag005 reporting.
  Task        4 on host adag005 reporting.
  Task        5 on host adag005 reporting.
  Task        6 on host adag005 reporting.
  Task        7 on host adag005 reporting.
  Task        8 on host adag005 reporting.
  Task        9 on host adag005 reporting.
  Task       10 on host adag005 reporting.
  Task       11 on host adag005 reporting.
  Task       12 on host adag005 reporting.
  Task       13 on host adag005 reporting.
  Task       14 on host adag005 reporting.
  Task       15 on host adag005 reporting.
  Task       16 on host adag005 reporting.
  Task       17 on host adag005 reporting.

  Performing system and environment tests:
  | Environment variable OMP_NUM_THREADS correctly set to 1.
  | Checking for ScaLAPACK...
  | Testing pdtran()...
  | All pdtran() tests passed.

  Obtaining array dimensions for all initial allocations:
  
  -----------------------------------------------------------------------
  Parsing control.in (first pass over file, find array dimensions only).
  The contents of control.in will be repeated verbatim below
  unless switched off by setting 'verbatim_writeout .false.' .
  in the first line of control.in .
  -----------------------------------------------------------------------
  
  #
  # Input for polarizability replays on generic oligoacene molecular crystals (light settings,  LDA+MBD).
  #
  #########################################################################################
  #
  #  Physical model
  #
    xc                 pw-lda
    spin               none
    relativistic       none
    charge             0.0
    k_grid 	     2 1 1
    DFPT dielectric
  #
  #  GPU acceleration
  #
  # Turns on GPU acceleration everywhere
    use_gpu
  
  # Turns OFF GPU acceleration of ELPA - may be necessary if GPU ELPA is slow
    elsi_elpa_gpu 0
  #
  #  Relaxation
  #
  #  relax_geometry trm 1E-3
  #  relax_unit_cell fixed_angles
  #
  #  SCF convergence        #
    charge_mix_param   0.75
    #sc_accuracy_rho 1E-4
  #
  # i-PI communication
  #
  compute_forces .false.
  # use_pimd_wrapper 130.183.223.27 26118
  #communicate_pimd_wrapper polarizability
  #output_level MD_light
  #
  # Output SALTED info
    ri_density_restart write
    ri_rho1 write
    ri_full_output .true.
  #  sc_accuracy_rho    1d-6
    default_prodbas_acc 1e-6
    default_max_l_prodbas 6
  #
  #
  ################################################################################
  #
  #  FHI-aims code project
  #  VB, Fritz-Haber Institut, 2009
  #
  #  Suggested "light" defaults for H atom (to be pasted into control.in file)
  #  Be sure to double-check any results obtained with these settings for post-processing,
  #  e.g., with the "tight" defaults and larger basis sets.
  #
  ################################################################################
    species        H
  #     global species definitions
      nucleus             1
      mass                1.00794
  #
      l_hartree           4
  #
      cut_pot             3.5  1.5  1.0
      basis_dep_cutoff    1e-4
  #
      radial_base         24 5.0
      radial_multiplier   1
      angular_grids       specified
        division   0.2421   50
        division   0.3822  110
        division   0.4799  194
        division   0.5341  302
  #      division   0.5626  434
  #      division   0.5922  590
  #      division   0.6542  770
  #      division   0.6868 1202
  #      outer_grid  770
        outer_grid  302
  ################################################################################
  #
  #  Definition of "minimal" basis
  #
  ################################################################################
  #     valence basis states
      valence      1  s   1.
  #     ion occupancy
      ion_occ      1  s   0.5
  ################################################################################
  #
  #  Suggested additional basis functions. For production calculations,
  #  uncomment them one after another (the most important basis functions are
  #  listed first).
  #
  #  Basis constructed for dimers: 0.5 A, 0.7 A, 1.0 A, 1.5 A, 2.5 A
  #
  ################################################################################
  #  "First tier" - improvements: -1014.90 meV to -62.69 meV
       hydro 2 s 2.1
       hydro 2 p 3.5
  #  "Second tier" - improvements: -12.89 meV to -1.83 meV
  #     hydro 1 s 0.85
  #     hydro 2 p 3.7
  #     hydro 2 s 1.2
  #     hydro 3 d 7
  #  "Third tier" - improvements: -0.25 meV to -0.12 meV
  #     hydro 4 f 11.2
  #     hydro 3 p 4.8
  #     hydro 4 d 9
  #     hydro 3 s 3.2
  ################################################################################
  ################################################################################
  #
  #  FHI-aims code project
  #  VB, Fritz-Haber Institut, 2009
  #
  #  Suggested "light" defaults for C atom (to be pasted into control.in file)
  #  Be sure to double-check any results obtained with these settings for post-processing,
  #  e.g., with the "tight" defaults and larger basis sets.
  #
  ################################################################################
    species        C
  #     global species definitions
      nucleus             6
      mass                12.0107
  #
      l_hartree           4
  #
      cut_pot             3.5  1.5  1.0
      basis_dep_cutoff    1e-4
  #
      radial_base         34 5.0
      radial_multiplier   1
      angular_grids specified
        division   0.3326   50
        division   0.5710  110
        division   0.7727  194
        division   0.8772  302
  #      division   0.9334  434
  #      division   0.9625  590
  #      division   0.9924  770
  #      division   1.0230  974
  #      division   1.4589 1202
  #     outer_grid  974
       outer_grid 302
  ################################################################################
  #
  #  Definition of "minimal" basis
  #
  ################################################################################
  #     valence basis states
      valence      2  s   2.
      valence      2  p   2.
  #     ion occupancy
      ion_occ      2  s   1.
      ion_occ      2  p   1.
  ################################################################################
  #
  #  Suggested additional basis functions. For production calculations,
  #  uncomment them one after another (the most important basis functions are
  #  listed first).
  #
  #  Constructed for dimers: 1.0 A, 1.25 A, 1.5 A, 2.0 A, 3.0 A
  #
  ################################################################################
  #  "First tier" - improvements: -1214.57 meV to -155.61 meV
       hydro 2 p 1.7
       hydro 3 d 6
       hydro 2 s 4.9
  #  "Second tier" - improvements: -67.75 meV to -5.23 meV
  #     hydro 4 f 9.8
  #     hydro 3 p 5.2
  #     hydro 3 s 4.3
  #     hydro 5 g 14.4
  #     hydro 3 d 6.2
  #  "Third tier" - improvements: -2.43 meV to -0.60 meV
  #     hydro 2 p 5.6
  #     hydro 2 s 1.4
  #     hydro 3 d 4.9
  #     hydro 4 f 11.2
  #  "Fourth tier" - improvements: -0.39 meV to -0.18 meV
  #     hydro 2 p 2.1
  #     hydro 5 g 16.4
  #     hydro 4 d 13.2
  #     hydro 3 s 13.6
  #     hydro 4 f 17.6
  #  Further basis functions - improvements: -0.08 meV and below
  #     hydro 3 s 2
  #     hydro 3 p 6
  #     hydro 4 d 20
  
  -----------------------------------------------------------------------
  Completed first pass over input file control.in .
  -----------------------------------------------------------------------
  
  
  -----------------------------------------------------------------------
  Parsing geometry.in (first pass over file, find array dimensions only).
  The contents of geometry.in will be repeated verbatim below
  unless switched off by setting 'verbatim_writeout .false.' .
  in the first line of geometry.in .
  -----------------------------------------------------------------------
  
  #=======================================================
  # FHI-aims file: /ada/ptmp/mpsd/alewis/naphthalene/qmdata/data/geoms/404.in
  # Created using the Atomic Simulation Environment (ASE)
  # Thu Jan 19 15:19:17 2023
  #=======================================================
  lattice_vector 8.1020000000000003 0.0000000000000000 0.0000000000000000
  lattice_vector 0.0000000000000000 11.8800000000000008 0.0000000000000000
  lattice_vector -9.7850918486534706 0.0000000000000000 14.2571119625755713
  atom -0.6230290000000001 0.1683530000000000 2.4427300000000001 C
  atom 0.2481020000000000 3.0227700000000000 4.8046600000000002 C
  atom 4.2777000000000003 5.8804499999999997 4.9006499999999997 C
  atom 3.1284500000000000 2.7896700000000001 2.2901099999999999 C
  atom 0.0422130000000000 1.0450200000000001 1.6182799999999999 C
  atom -0.5382500000000000 3.8737100000000000 5.5196500000000004 C
  atom 3.5791200000000001 4.9577799999999996 5.6346800000000004 C
  atom 3.8830399999999998 1.9505800000000000 1.4950600000000001 C
  atom 0.3853250000000000 0.6907980000000000 0.2393410000000000 C
  atom -0.9308480000000000 3.5829000000000000 6.8585000000000003 C
  atom 3.1300500000000002 5.2889699999999999 6.9635499999999997 C
  atom 4.3106700000000000 2.3623300000000000 0.1926610000000000 C
  atom -3.8396900000000000 1.5765000000000000 6.7987500000000001 C
  atom 3.1683900000000000 4.4812399999999997 0.5385860000000000 C
  atom 7.1362399999999999 4.3249100000000000 0.5294370000000000 C
  atom 0.2736800000000000 1.4688900000000000 6.6584599999999998 C
  atom -3.4378400000000000 1.2468800000000000 5.5284000000000004 C
  atom 2.7859099999999999 4.0756600000000001 1.8216399999999999 C
  atom 6.7440899999999999 4.6448600000000004 1.8046400000000000 C
  atom 0.6679840000000000 1.7841899999999999 5.3832300000000002 C
  atom -0.8150250000000000 0.5302220000000000 3.4485000000000001 H
  atom 0.4793750000000000 3.3021300000000000 3.7800699999999998 H
  atom 4.6060100000000004 5.6392899999999999 3.8672599999999999 H
  atom 2.9082400000000002 2.4892900000000000 3.3187099999999998 H
  atom 0.2946320000000000 2.0482999999999998 1.9813200000000000 H
  atom -0.8435160000000000 4.8365600000000004 5.0767899999999999 H
  atom 3.2850600000000001 3.9748199999999998 5.2659200000000004 H
  atom 4.2358700000000002 0.9733470000000000 1.8115600000000001 H
  atom -3.4525100000000002 2.5158700000000001 7.2377799999999999 H
  atom 2.8339900000000000 5.4595000000000002 0.1585930000000000 H
  atom 6.7748799999999996 3.3622899999999998 0.0554285000000000 H
  atom 0.6365040000000000 0.5446470000000000 7.0739799999999997 H
  atom -2.7371900000000000 1.9117999999999999 5.0228200000000003 H
  atom 2.1482999999999999 4.7278200000000004 2.4033099999999998 H
  atom 6.1506600000000002 3.9587699999999999 2.4048400000000001 H
  atom 1.2415200000000000 1.0535099999999999 4.7869999999999999 H
  atom -5.7696699999999996 0.0107327000000000 9.6047600000000006 C
  atom -4.6807400000000001 3.1727500000000002 11.8742999999999999 C
  atom -0.7343990000000000 5.9512400000000003 11.9422999999999995 C
  atom -1.7940199999999999 2.9155400000000000 9.4342000000000006 C
  atom -5.0530799999999996 0.9768330000000000 8.8866200000000006 C
  atom -5.5031100000000004 4.0078399999999998 12.6434999999999995 C
  atom -1.4802400000000000 5.0218100000000003 12.6606000000000005 C
  atom -0.9715859999999999 2.0265800000000000 8.7504200000000001 C
  atom -4.6543200000000002 0.6768960000000001 7.5715100000000000 C
  atom -5.8698499999999996 3.6312600000000002 13.9427000000000003 C
  atom -1.8801200000000000 5.2728500000000000 13.9914000000000005 C
  atom -0.5296060000000000 2.3361299999999998 7.4507800000000000 C
  atom -8.7293900000000004 1.5694600000000001 13.6170000000000009 C
  atom -1.7476400000000001 4.4557099999999998 7.5779100000000001 C
  atom 2.3464100000000001 4.4062500000000000 7.7665499999999996 C
  atom -4.6416500000000003 1.5574200000000000 13.6379999999999999 C
  atom -8.4246099999999995 1.1515899999999999 12.3351000000000006 C
  atom -2.1674699999999998 4.1397899999999996 8.8508999999999993 C
  atom 1.9598400000000000 4.7355299999999998 9.0456000000000003 C
  atom -4.2985899999999999 1.9383800000000000 12.3453999999999997 C
  atom -6.1634200000000003 0.3016420000000000 10.5928000000000004 H
  atom -4.4128600000000002 3.4653800000000001 10.8560999999999996 H
  atom -0.3935340000000000 5.6886200000000002 10.9410000000000007 H
  atom -2.1612399999999998 2.6064300000000000 10.4056999999999995 H
  atom -4.9476500000000003 1.9635700000000000 9.2975200000000005 H
  atom -5.8371300000000002 4.9745600000000003 12.2330000000000005 H
  atom -1.7971699999999999 4.1245000000000003 12.1433000000000000 H
  atom -0.6387410000000000 1.1133200000000001 9.2178799999999992 H
  atom -8.5108499999999996 2.5861399999999999 13.9253000000000000 H
  atom -2.0174699999999999 5.4052800000000003 7.1455000000000002 H
  atom 2.1234400000000000 3.4359099999999998 7.3325899999999997 H
  atom -4.3364200000000004 0.5709959999999999 14.0121000000000002 H
  atom -7.9068699999999996 1.8435299999999999 11.6290999999999993 H
  atom -2.7336900000000002 4.8602900000000000 9.4343699999999995 H
  atom 1.3484600000000000 4.0625200000000001 9.6462900000000005 H
  atom -3.6764800000000002 1.2669500000000000 11.7124000000000006 H
  atom -0.8588430000000000 5.8379500000000002 2.4025500000000002 C
  atom 0.2116550000000000 8.9545999999999992 4.7105899999999998 C
  atom 4.2667599999999997 11.9298999999999999 4.9264299999999999 C
  atom 3.2757700000000001 8.7591900000000003 2.5643099999999999 C
  atom -0.0924649000000000 6.7573900000000000 1.6853000000000000 C
  atom -0.4977910000000000 9.8665199999999995 5.4649299999999998 C
  atom 3.5110600000000001 11.0108999999999995 5.6337500000000000 C
  atom 4.0676399999999999 7.9190699999999996 1.8053500000000000 C
  atom 0.2707970000000000 6.4820300000000000 0.3357160000000000 C
  atom -0.9039210000000000 9.5539000000000005 6.8193400000000004 C
  atom 3.0866600000000002 11.3018999999999998 6.9778200000000004 C
  atom 4.4325000000000001 8.3150800000000000 0.4853690000000000 C
  atom -3.8444500000000001 7.4693899999999998 6.7482400000000000 C
  atom 3.2466699999999999 10.4367000000000001 0.8068170000000000 C
  atom 7.3524900000000004 10.3992000000000004 0.6875620000000000 C
  atom 0.1400680000000000 7.3557300000000003 6.5445799999999998 C
  atom -3.4575700000000000 7.1318900000000003 5.4609199999999998 C
  atom 2.8931900000000002 10.0134000000000007 2.0741800000000001 C
  atom 7.0134900000000000 10.7995000000000001 1.9807699999999999 C
  atom 0.5195580000000000 7.6896100000000001 5.2528800000000002 C
  atom -1.1236200000000001 6.1005599999999998 3.4178799999999998 H
  atom 0.4766410000000000 9.2149000000000001 3.6977500000000001 H
  atom 4.5715199999999996 11.7683999999999997 3.8912100000000001 H
  atom 2.9925099999999998 8.4160799999999991 3.5606499999999999 H
  atom 0.2336510000000000 7.7006399999999999 2.1096300000000001 H
  atom -0.7564230000000000 10.8285999999999998 5.0451499999999996 H
  atom 3.2058599999999999 10.0507000000000009 5.1630399999999996 H
  atom 4.4306000000000001 6.9993200000000000 2.2279900000000001 H
  atom -3.6009300000000000 8.4148099999999992 7.2353500000000004 H
  atom 2.9305200000000000 11.3998000000000008 0.4325110000000000 H
  atom 6.9511599999999998 9.4784000000000006 0.2545060000000000 H
  atom 0.3578270000000000 6.3460099999999997 6.9058599999999997 H
  atom -2.8751799999999998 7.8356100000000000 4.8605000000000000 H
  atom 2.2741199999999999 10.6211000000000002 2.7431999999999999 H
  atom 6.4341299999999997 10.1544000000000008 2.5724600000000000 H
  atom 1.1516000000000000 6.9854099999999999 4.7012799999999997 H
  atom -5.8412300000000004 6.0153800000000004 9.5478199999999998 C
  atom -4.7568599999999996 9.0093200000000007 12.0597999999999992 C
  atom -0.6728450000000000 11.7029999999999994 11.9179999999999993 C
  atom -1.6126799999999999 8.9114100000000001 9.4723199999999999 C
  atom -5.0792000000000002 6.9038300000000001 8.8109099999999998 C
  atom -5.4480700000000004 9.8916299999999993 12.8469999999999995 C
  atom -1.3228200000000001 10.8264999999999993 12.7665000000000006 C
  atom -0.9304810000000000 7.9734499999999997 8.7237600000000004 C
  atom -4.6017799999999998 6.5540399999999996 7.5106299999999999 C
  atom -5.8097200000000004 9.5545000000000009 14.1931999999999992 C
  atom -1.7116000000000000 11.2643000000000004 14.0889000000000006 C
  atom -0.5747430000000000 8.2589000000000006 7.3776599999999997 C
  atom -8.7503700000000002 7.3967700000000001 13.8495000000000008 C
  atom -1.6946699999999999 10.4353999999999996 7.5659900000000002 C
  atom 2.3393700000000002 10.3498999999999999 7.7281800000000000 C
  atom -4.6440799999999998 7.4046700000000003 13.8969000000000005 C
  atom -8.4126300000000001 7.1509999999999998 12.5441000000000003 C
  atom -2.0117500000000001 10.1150000000000002 8.8993300000000009 C
  atom 2.0272299999999999 10.6272000000000002 9.0661100000000001 C
  atom -4.3627200000000004 7.7463899999999999 12.5837000000000003 C
  atom -6.2382400000000002 6.3428100000000001 10.5020000000000007 H
  atom -4.4633399999999996 9.2715999999999994 11.0341000000000005 H
  atom -0.4663370000000000 11.3485999999999994 10.9228000000000005 H
  atom -1.8387600000000000 8.7328299999999999 10.5160000000000000 H
  atom -4.8482200000000004 7.8913900000000003 9.2290700000000001 H
  atom -5.8120300000000000 10.8574000000000002 12.3939000000000004 H
  atom -1.6382699999999999 9.8042200000000008 12.4253999999999998 H
  atom -0.6610480000000000 6.9981700000000000 9.1699099999999998 H
  atom -8.3868399999999994 8.2796299999999992 14.3452000000000002 H
  atom -1.9141800000000000 11.4210999999999991 7.1554399999999996 H
  atom 2.1101999999999999 9.3657500000000002 7.3120200000000004 H
  atom -4.3768300000000000 6.4076700000000004 14.2728000000000002 H
  atom -7.7349300000000003 7.8500800000000002 12.0136000000000003 H
  atom -2.5934300000000001 10.8613000000000000 9.4526000000000003 H
  atom 1.4652099999999999 9.9304299999999994 9.6817899999999995 H
  atom -3.8238599999999998 7.1002500000000000 11.9072999999999993 H
  
  -----------------------------------------------------------------------
  Completed first pass over input file geometry.in .
  -----------------------------------------------------------------------
  

  Basic array size parameters:
  | Number of species                 :        2
  | Number of atoms                   :      144
  | Number of lattice vectors         :        3
  | Max. basis fn. angular momentum   :        2
  | Max. atomic/ionic basis occupied n:        2
  | Max. number of basis fn. types    :        2
  | Max. radial fns per species/type  :        3
  | Max. logarithmic grid size        :     1277
  | Max. radial integration grid size :       34
  | Max. angular integration grid size:      302
  | Max. angular grid division number :        8
  | Radial grid for Hartree potential :     1277
  | Number of spin channels           :        1

------------------------------------------------------------
          Reading file control.in.
------------------------------------------------------------
  XC: Using Perdew-Wang parametrisation of Ceperley-Alder LDA.
  Spin treatment: No spin polarisation.
  Non-relativistic treatment of kinetic energy.
  Charge =   0.000000E+00: Neutral system requested explicitly.
  Found k-point grid:         2         1         1
  DFPT calculation will begin after the DFT/HF calculation.
  Charge density mixing - mixing parameter:     0.7500
  Forces will not be computed.
 
  Reading configuration options for species H                   .
  | Found nuclear charge :   1.0000
  | Found atomic mass :    1.00794000000000      amu
  | Found l_max for Hartree potential  :   4
  | Found cutoff potl. onset [A], width [A], scale factor :    3.50000    1.50000    1.00000
  | Threshold for basis-dependent cutoff potential is   0.100000E-03
  | Found data for basic radial integration grid :    24 points, outermost radius =    5.000 A
  | Found multiplier for basic radial grid :   1
  | Found angular grid specification: user-specified.
  | Specified grid contains     5 separate shells.
  | Check grid settings after all constraints further below.
  | Found free-atom valence shell :  1 s   1.000
  | No ionic wave fns used. Skipping ion_occ.
  | Found hydrogenic basis function :  2 s   2.100
  | Found hydrogenic basis function :  2 p   3.500
  Species H                   : Missing cutoff potential type.
  Defaulting to exp(1/x)/(1-x)^2 type cutoff potential.
  Species H : No 'logarithmic' tag. Using default grid for free atom:
  | Default logarithmic grid data [bohr] : 0.1000E-03 0.1000E+03 0.1012E+01
  Species H : On-site basis accuracy parameter (for Gram-Schmidt orthonormalisation) not specified.
  Using default value basis_acc =  0.1000000E-03.
  Species H                   : Using default innermost maximum threshold i_radial=  2 for radial functions.
  Species H                   : Default cutoff onset for free atom density etc. : 0.35000000E+01 AA.
  Species H                   : Basic radial grid will be enhanced according to radial_multiplier =   1, to contain    24 grid points.
 
  Reading configuration options for species C                   .
  | Found nuclear charge :   6.0000
  | Found atomic mass :    12.0107000000000      amu
  | Found l_max for Hartree potential  :   4
  | Found cutoff potl. onset [A], width [A], scale factor :    3.50000    1.50000    1.00000
  | Threshold for basis-dependent cutoff potential is   0.100000E-03
  | Found data for basic radial integration grid :    34 points, outermost radius =    5.000 A
  | Found multiplier for basic radial grid :   1
  | Found angular grid specification: user-specified.
  | Specified grid contains     5 separate shells.
  | Check grid settings after all constraints further below.
  | Found free-atom valence shell :  2 s   2.000
  | Found free-atom valence shell :  2 p   2.000
  | No ionic wave fns used. Skipping ion_occ.
  | No ionic wave fns used. Skipping ion_occ.
  | Found hydrogenic basis function :  2 p   1.700
  | Found hydrogenic basis function :  3 d   6.000
  | Found hydrogenic basis function :  2 s   4.900
  Species C                   : Missing cutoff potential type.
  Defaulting to exp(1/x)/(1-x)^2 type cutoff potential.
  Species C : No 'logarithmic' tag. Using default grid for free atom:
  | Default logarithmic grid data [bohr] : 0.1000E-03 0.1000E+03 0.1012E+01
  Species C : On-site basis accuracy parameter (for Gram-Schmidt orthonormalisation) not specified.
  Using default value basis_acc =  0.1000000E-03.
  Species C                   : Using default innermost maximum threshold i_radial=  2 for radial functions.
  Species C                   : Default cutoff onset for free atom density etc. : 0.35000000E+01 AA.
  Species C                   : Basic radial grid will be enhanced according to radial_multiplier =   1, to contain    34 grid points.
 
  Finished reading input file 'control.in'.
 
------------------------------------------------------------


------------------------------------------------------------
          Reading geometry description geometry.in.
------------------------------------------------------------
  | The smallest distance between any two atoms is         1.04971857 AA.
  | The first atom of this pair is atom number                     91 .
  | The second atom of this pair is atom number                   107 .
  | Wigner-Seitz cell of the first atom image           0     0     0 .
  | (The Wigner-Seitz cell of the second atom is 0 0 0  by definition.)

  Symmetry information by spglib:
  | Precision set to  0.1E-04
  | Number of Operations  : 1
  | Space group           : 1
  | International         : P1
  | Schoenflies           : C1^1
  Input structure read successfully.
  The structure contains      144 atoms,  and a total of        544.000 electrons.

  Input geometry:
  | Unit cell:
  |        8.10200000        0.00000000        0.00000000
  |        0.00000000       11.88000000        0.00000000
  |       -9.78509185        0.00000000       14.25711196
  | Atomic structure:
  |       Atom                x [A]            y [A]            z [A]
  |    1: Species C            -0.62302900        0.16835300        2.44273000
  |    2: Species C             0.24810200        3.02277000        4.80466000
  |    3: Species C             4.27770000        5.88045000        4.90065000
  |    4: Species C             3.12845000        2.78967000        2.29011000
  |    5: Species C             0.04221300        1.04502000        1.61828000
  |    6: Species C            -0.53825000        3.87371000        5.51965000
  |    7: Species C             3.57912000        4.95778000        5.63468000
  |    8: Species C             3.88304000        1.95058000        1.49506000
  |    9: Species C             0.38532500        0.69079800        0.23934100
  |   10: Species C            -0.93084800        3.58290000        6.85850000
  |   11: Species C             3.13005000        5.28897000        6.96355000
  |   12: Species C             4.31067000        2.36233000        0.19266100
  |   13: Species C            -3.83969000        1.57650000        6.79875000
  |   14: Species C             3.16839000        4.48124000        0.53858600
  |   15: Species C             7.13624000        4.32491000        0.52943700
  |   16: Species C             0.27368000        1.46889000        6.65846000
  |   17: Species C            -3.43784000        1.24688000        5.52840000
  |   18: Species C             2.78591000        4.07566000        1.82164000
  |   19: Species C             6.74409000        4.64486000        1.80464000
  |   20: Species C             0.66798400        1.78419000        5.38323000
  |   21: Species H            -0.81502500        0.53022200        3.44850000
  |   22: Species H             0.47937500        3.30213000        3.78007000
  |   23: Species H             4.60601000        5.63929000        3.86726000
  |   24: Species H             2.90824000        2.48929000        3.31871000
  |   25: Species H             0.29463200        2.04830000        1.98132000
  |   26: Species H            -0.84351600        4.83656000        5.07679000
  |   27: Species H             3.28506000        3.97482000        5.26592000
  |   28: Species H             4.23587000        0.97334700        1.81156000
  |   29: Species H            -3.45251000        2.51587000        7.23778000
  |   30: Species H             2.83399000        5.45950000        0.15859300
  |   31: Species H             6.77488000        3.36229000        0.05542850
  |   32: Species H             0.63650400        0.54464700        7.07398000
  |   33: Species H            -2.73719000        1.91180000        5.02282000
  |   34: Species H             2.14830000        4.72782000        2.40331000
  |   35: Species H             6.15066000        3.95877000        2.40484000
  |   36: Species H             1.24152000        1.05351000        4.78700000
  |   37: Species C            -5.76967000        0.01073270        9.60476000
  |   38: Species C            -4.68074000        3.17275000       11.87430000
  |   39: Species C            -0.73439900        5.95124000       11.94230000
  |   40: Species C            -1.79402000        2.91554000        9.43420000
  |   41: Species C            -5.05308000        0.97683300        8.88662000
  |   42: Species C            -5.50311000        4.00784000       12.64350000
  |   43: Species C            -1.48024000        5.02181000       12.66060000
  |   44: Species C            -0.97158600        2.02658000        8.75042000
  |   45: Species C            -4.65432000        0.67689600        7.57151000
  |   46: Species C            -5.86985000        3.63126000       13.94270000
  |   47: Species C            -1.88012000        5.27285000       13.99140000
  |   48: Species C            -0.52960600        2.33613000        7.45078000
  |   49: Species C            -8.72939000        1.56946000       13.61700000
  |   50: Species C            -1.74764000        4.45571000        7.57791000
  |   51: Species C             2.34641000        4.40625000        7.76655000
  |   52: Species C            -4.64165000        1.55742000       13.63800000
  |   53: Species C            -8.42461000        1.15159000       12.33510000
  |   54: Species C            -2.16747000        4.13979000        8.85090000
  |   55: Species C             1.95984000        4.73553000        9.04560000
  |   56: Species C            -4.29859000        1.93838000       12.34540000
  |   57: Species H            -6.16342000        0.30164200       10.59280000
  |   58: Species H            -4.41286000        3.46538000       10.85610000
  |   59: Species H            -0.39353400        5.68862000       10.94100000
  |   60: Species H            -2.16124000        2.60643000       10.40570000
  |   61: Species H            -4.94765000        1.96357000        9.29752000
  |   62: Species H            -5.83713000        4.97456000       12.23300000
  |   63: Species H            -1.79717000        4.12450000       12.14330000
  |   64: Species H            -0.63874100        1.11332000        9.21788000
  |   65: Species H            -8.51085000        2.58614000       13.92530000
  |   66: Species H            -2.01747000        5.40528000        7.14550000
  |   67: Species H             2.12344000        3.43591000        7.33259000
  |   68: Species H            -4.33642000        0.57099600       14.01210000
  |   69: Species H            -7.90687000        1.84353000       11.62910000
  |   70: Species H            -2.73369000        4.86029000        9.43437000
  |   71: Species H             1.34846000        4.06252000        9.64629000
  |   72: Species H            -3.67648000        1.26695000       11.71240000
  |   73: Species C            -0.85884300        5.83795000        2.40255000
  |   74: Species C             0.21165500        8.95460000        4.71059000
  |   75: Species C             4.26676000       11.92990000        4.92643000
  |   76: Species C             3.27577000        8.75919000        2.56431000
  |   77: Species C            -0.09246490        6.75739000        1.68530000
  |   78: Species C            -0.49779100        9.86652000        5.46493000
  |   79: Species C             3.51106000       11.01090000        5.63375000
  |   80: Species C             4.06764000        7.91907000        1.80535000
  |   81: Species C             0.27079700        6.48203000        0.33571600
  |   82: Species C            -0.90392100        9.55390000        6.81934000
  |   83: Species C             3.08666000       11.30190000        6.97782000
  |   84: Species C             4.43250000        8.31508000        0.48536900
  |   85: Species C            -3.84445000        7.46939000        6.74824000
  |   86: Species C             3.24667000       10.43670000        0.80681700
  |   87: Species C             7.35249000       10.39920000        0.68756200
  |   88: Species C             0.14006800        7.35573000        6.54458000
  |   89: Species C            -3.45757000        7.13189000        5.46092000
  |   90: Species C             2.89319000       10.01340000        2.07418000
  |   91: Species C             7.01349000       10.79950000        1.98077000
  |   92: Species C             0.51955800        7.68961000        5.25288000
  |   93: Species H            -1.12362000        6.10056000        3.41788000
  |   94: Species H             0.47664100        9.21490000        3.69775000
  |   95: Species H             4.57152000       11.76840000        3.89121000
  |   96: Species H             2.99251000        8.41608000        3.56065000
  |   97: Species H             0.23365100        7.70064000        2.10963000
  |   98: Species H            -0.75642300       10.82860000        5.04515000
  |   99: Species H             3.20586000       10.05070000        5.16304000
  |  100: Species H             4.43060000        6.99932000        2.22799000
  |  101: Species H            -3.60093000        8.41481000        7.23535000
  |  102: Species H             2.93052000       11.39980000        0.43251100
  |  103: Species H             6.95116000        9.47840000        0.25450600
  |  104: Species H             0.35782700        6.34601000        6.90586000
  |  105: Species H            -2.87518000        7.83561000        4.86050000
  |  106: Species H             2.27412000       10.62110000        2.74320000
  |  107: Species H             6.43413000       10.15440000        2.57246000
  |  108: Species H             1.15160000        6.98541000        4.70128000
  |  109: Species C            -5.84123000        6.01538000        9.54782000
  |  110: Species C            -4.75686000        9.00932000       12.05980000
  |  111: Species C            -0.67284500       11.70300000       11.91800000
  |  112: Species C            -1.61268000        8.91141000        9.47232000
  |  113: Species C            -5.07920000        6.90383000        8.81091000
  |  114: Species C            -5.44807000        9.89163000       12.84700000
  |  115: Species C            -1.32282000       10.82650000       12.76650000
  |  116: Species C            -0.93048100        7.97345000        8.72376000
  |  117: Species C            -4.60178000        6.55404000        7.51063000
  |  118: Species C            -5.80972000        9.55450000       14.19320000
  |  119: Species C            -1.71160000       11.26430000       14.08890000
  |  120: Species C            -0.57474300        8.25890000        7.37766000
  |  121: Species C            -8.75037000        7.39677000       13.84950000
  |  122: Species C            -1.69467000       10.43540000        7.56599000
  |  123: Species C             2.33937000       10.34990000        7.72818000
  |  124: Species C            -4.64408000        7.40467000       13.89690000
  |  125: Species C            -8.41263000        7.15100000       12.54410000
  |  126: Species C            -2.01175000       10.11500000        8.89933000
  |  127: Species C             2.02723000       10.62720000        9.06611000
  |  128: Species C            -4.36272000        7.74639000       12.58370000
  |  129: Species H            -6.23824000        6.34281000       10.50200000
  |  130: Species H            -4.46334000        9.27160000       11.03410000
  |  131: Species H            -0.46633700       11.34860000       10.92280000
  |  132: Species H            -1.83876000        8.73283000       10.51600000
  |  133: Species H            -4.84822000        7.89139000        9.22907000
  |  134: Species H            -5.81203000       10.85740000       12.39390000
  |  135: Species H            -1.63827000        9.80422000       12.42540000
  |  136: Species H            -0.66104800        6.99817000        9.16991000
  |  137: Species H            -8.38684000        8.27963000       14.34520000
  |  138: Species H            -1.91418000       11.42110000        7.15544000
  |  139: Species H             2.11020000        9.36575000        7.31202000
  |  140: Species H            -4.37683000        6.40767000       14.27280000
  |  141: Species H            -7.73493000        7.85008000       12.01360000
  |  142: Species H            -2.59343000       10.86130000        9.45260000
  |  143: Species H             1.46521000        9.93043000        9.68179000
  |  144: Species H            -3.82386000        7.10025000       11.90730000

  Lattice parameters for 3D lattice (in Angstroms) :     8.102000   11.880000   17.292000
  Angle(s) between unit vectors (in degrees)       :    90.000000  124.463000   90.000000


  Quantities derived from the lattice vectors (in Angstrom^-1):
  | Reciprocal lattice vector 1:  0.775510  0.000000  0.532257
  | Reciprocal lattice vector 2:  0.000000  0.528888  0.000000
  | Reciprocal lattice vector 3: -0.000000  0.000000  0.440705
  | Unit cell volume                               :   0.137227E+04  Angstrom^3

  Fractional coordinates:
                         L1                L2                L3
       atom_frac         0.13002855        0.01417113        0.17133414  C
       atom_frac         0.43763109        0.25444192        0.33700093  C
       atom_frac         0.94312095        0.49498737        0.34373371  C
       atom_frac         0.58013114        0.23482071        0.16062931  C
       atom_frac         0.14229672        0.08796465        0.11350686  C
       atom_frac         0.40114226        0.32606987        0.38715064  C
       atom_frac         0.91907840        0.41732155        0.39521889  C
       atom_frac         0.60591772        0.16419024        0.10486416  C
       atom_frac         0.06783412        0.05814798        0.01678748  C
       atom_frac         0.46610099        0.30159091        0.48105816  C
       atom_frac         0.97622158        0.44519949        0.48842641  C
       atom_frac         0.54837067        0.19884933        0.01351333  C
       atom_frac         0.10201185        0.13270202        0.47686727  C
       atom_frac         0.43668700        0.37720875        0.03777666  C
       atom_frac         0.92564907        0.36404966        0.03713494  C
       atom_frac         0.59782581        0.12364394        0.46702726  C
       atom_frac         0.04399777        0.10495623        0.38776437  C
       atom_frac         0.49816801        0.34306902        0.12777062  C
       atom_frac         0.98527149        0.39098148        0.12657823  C
       atom_frac         0.53846696        0.15018434        0.37758208  C
       atom_frac         0.19153123        0.04463148        0.24187928  H
       atom_frac         0.37938196        0.27795707        0.26513574  H
       atom_frac         0.89610328        0.47468771        0.27125129  H
       atom_frac         0.64008543        0.20953620        0.23277575  H
       atom_frac         0.20420544        0.17241582        0.13897064  H
       atom_frac         0.32594917        0.40711785        0.35608825  H
       atom_frac         0.85154553        0.33458081        0.36935391  H
       atom_frac         0.67627734        0.08193157        0.12706360  H
       atom_frac         0.18699083        0.21177357        0.50766102  H
       atom_frac         0.36322355        0.45955387        0.01112378  H
       atom_frac         0.84089389        0.28302104        0.00388778  H
       atom_frac         0.67780706        0.04584571        0.49617202  H
       atom_frac         0.08764810        0.16092593        0.35230277  H
       atom_frac         0.46874415        0.39796465        0.16856920  H
       atom_frac         0.96287031        0.33322980        0.16867652  H
       atom_frac         0.55874901        0.08867929        0.33576225  H
       atom_frac         0.10150215        0.00090343        0.67368202  C
       atom_frac         0.42816035        0.26706650        0.83286854  C
       atom_frac         0.92100304        0.50094613        0.83763809  C
       atom_frac         0.57775363        0.24541582        0.66171887  C
       atom_frac         0.12911368        0.08222500        0.62331137  C
       atom_frac         0.39181815        0.33736027        0.88682056  C
       atom_frac         0.88979473        0.42271128        0.88801996  C
       atom_frac         0.62133977        0.17058754        0.61375824  C
       atom_frac         0.06692654        0.05697778        0.53106899  C
       atom_frac         0.45660964        0.30566162        0.97794701  C
       atom_frac         0.95317275        0.44384259        0.98136285  C
       atom_frac         0.56579760        0.19664394        0.52260093  C
       atom_frac         0.07607670        0.13210943        0.95510227  C
       atom_frac         0.42622949        0.37505976        0.53151789  C
       atom_frac         0.94752292        0.37089646        0.54474918  C
       atom_frac         0.58239032        0.13109596        0.95657522  C
       atom_frac         0.00510322        0.09693519        0.86518925  C
       atom_frac         0.48224800        0.34846717        0.62080595  C
       atom_frac         1.00815994        0.39861364        0.63446230  C
       atom_frac         0.51523519        0.16316330        0.86591170  C
       atom_frac         0.13660115        0.02539074        0.74298357  H
       atom_frac         0.37497079        0.29169865        0.76145155  H
       atom_frac         0.87825337        0.47884007        0.76740647  H
       atom_frac         0.61472600        0.21939646        0.72986030  H
       atom_frac         0.17693437        0.16528367        0.65213207  H
       atom_frac         0.31581732        0.41873401        0.85802791  H
       atom_frac         0.80685609        0.34718013        0.85173631  H
       atom_frac         0.70202072        0.09371380        0.64654609  H
       atom_frac         0.12916677        0.21768855        0.97672657  H
       atom_frac         0.35629537        0.45498990        0.50118846  H
       atom_frac         0.88324126        0.28921801        0.51431103  H
       atom_frac         0.65175421        0.04806364        0.98281475  H
       atom_frac         0.00919981        0.15517929        0.81567010  H
       atom_frac         0.46178803        0.40911532        0.66173079  H
       atom_frac         0.98358476        0.34196296        0.67659495  H
       atom_frac         0.53839771        0.10664562        0.82151280  H
       atom_frac         0.09751920        0.49140993        0.16851590  C
       atom_frac         0.42516378        0.75375421        0.33040282  C
       atom_frac         0.94395452        1.00420034        0.34554193  C
       atom_frac         0.62154213        0.73730556        0.17986181  C
       atom_frac         0.13135127        0.56880387        0.11820767  C
       atom_frac         0.40150056        0.83051515        0.38331255  C
       atom_frac         0.91059922        0.92684343        0.39515366  C
       atom_frac         0.65498728        0.66658838        0.12662803  C
       atom_frac         0.06186240        0.54562542        0.02354727  C
       atom_frac         0.46610720        0.80420034        0.47831146  C
       atom_frac         0.97207495        0.95133838        0.48942731  C
       atom_frac         0.58820336        0.69992256        0.03404399  C
       atom_frac         0.09714557        0.62873653        0.47332447  C
       atom_frac         0.46907099        0.87851010        0.05659049  C
       atom_frac         0.96573498        0.87535354        0.04822590  C
       atom_frac         0.57168765        0.61916919        0.45903967  C
       atom_frac         0.03584626        0.60032744        0.38303129  C
       atom_frac         0.53280217        0.84287879        0.14548388  C
       atom_frac         1.03344273        0.90904882        0.13893206  C
       atom_frac         0.50910518        0.64727357        0.36843928  C
       atom_frac         0.15084862        0.51351515        0.23973158  H
       atom_frac         0.37207108        0.77566498        0.25936178  H
       atom_frac         0.89387514        0.99060606        0.27293115  H
       atom_frac         0.67098160        0.70842424        0.24974553  H
       atom_frac         0.20754808        0.64820202        0.14797036  H
       atom_frac         0.33401848        0.91149832        0.35386900  H
       atom_frac         0.83305507        0.84601852        0.36213786  H
       atom_frac         0.73558845        0.58916835        0.15627218  H
       atom_frac         0.16846605        0.70831734        0.50749058  H
       atom_frac         0.39834183        0.95957912        0.03033651  H
       atom_frac         0.87951558        0.79784512        0.01785116  H
       atom_frac         0.62916932        0.53417593        0.48438001  H
       atom_frac         0.05686618        0.65956313        0.34091757  H
       atom_frac         0.51306616        0.89403199        0.19240923  H
       atom_frac         1.01205726        0.85474747        0.18043346  H
       atom_frac         0.54038907        0.58799747        0.32974981  H
       atom_frac         0.08784631        0.50634512        0.66968822  C
       atom_frac         0.43447908        0.75836027        0.84587959  C
       atom_frac         0.92654194        0.98510101        0.83593368  C
       atom_frac         0.60336495        0.75011869        0.66439262  C
       atom_frac         0.11947629        0.58113047        0.61800104  C
       atom_frac         0.41585027        0.83262879        0.90109414  C
       atom_frac         0.91819542        0.91132155        0.89544783  C
       atom_frac         0.62415480        0.67116582        0.61188830  C
       atom_frac         0.06825414        0.55168687        0.52679884  C
       atom_frac         0.48525143        0.80425084        0.99551719  C
       atom_frac         0.98223190        0.94817340        0.98820154  C
       atom_frac         0.55403242        0.69519360        0.51747226  C
       atom_frac         0.09318258        0.62262374        0.97140992  C
       atom_frac         0.43175762        0.87840067        0.53068181  C
       atom_frac         0.94340363        0.87120370        0.54205789  C
       atom_frac         0.60402214        0.62328872        0.97473458  C
       atom_frac         0.02428652        0.60193603        0.87984860  C
       atom_frac         0.50557051        0.85143098        0.62420286  C
       atom_frac         1.01821507        0.89454545        0.63590088  C
       atom_frac         0.52750655        0.65205303        0.88262616  C
       atom_frac         0.11967461        0.53390657        0.73661482  H
       atom_frac         0.38381883        0.78043771        0.77393655  H
       atom_frac         0.86772582        0.95526936        0.76612992  H
       atom_frac         0.66387217        0.73508670        0.73759679  H
       atom_frac         0.18340816        0.66425842        0.64733096  H
       atom_frac         0.33254536        0.91392256        0.86931351  H
       atom_frac         0.85036558        0.82527104        0.87152293  H
       atom_frac         0.69520385        0.58907155        0.64318145  H
       atom_frac         0.18004312        0.69693855        1.00617853  H
       atom_frac         0.36988611        0.96137205        0.50188566  H
       atom_frac         0.87986459        0.78836279        0.51286825  H
       atom_frac         0.66885078        0.53936616        1.00110037  H
       atom_frac         0.06299321        0.66078114        0.84263910  H
       atom_frac         0.48064409        0.91425084        0.66300945  H
       atom_frac         1.00100204        0.83589478        0.67908494  H
       atom_frac         0.53671736        0.59766414        0.83518317  H

 
  Finished reading input file 'geometry.in'.
 

 
  Consistency checks for stacksize environment parameter are next.
 
  | Maximum stacksize for task 0: unlimited
  | Maximum stacksize for task 1: unlimited
  | Maximum stacksize for task 2: unlimited
  | Maximum stacksize for task 3: unlimited
  | Maximum stacksize for task 4: unlimited
  | Maximum stacksize for task 5: unlimited
  | Maximum stacksize for task 6: unlimited
  | Maximum stacksize for task 7: unlimited
  | Maximum stacksize for task 8: unlimited
  | Maximum stacksize for task 9: unlimited
  | Maximum stacksize for task 10: unlimited
  | Maximum stacksize for task 11: unlimited
  | Maximum stacksize for task 12: unlimited
  | Maximum stacksize for task 13: unlimited
  | Maximum stacksize for task 14: unlimited
  | Maximum stacksize for task 15: unlimited
  | Maximum stacksize for task 16: unlimited
  | Maximum stacksize for task 17: unlimited
  | Current stacksize for task 0: unlimited
  | Current stacksize for task 1: unlimited
  | Current stacksize for task 2: unlimited
  | Current stacksize for task 3: unlimited
  | Current stacksize for task 4: unlimited
  | Current stacksize for task 5: unlimited
  | Current stacksize for task 6: unlimited
  | Current stacksize for task 7: unlimited
  | Current stacksize for task 8: unlimited
  | Current stacksize for task 9: unlimited
  | Current stacksize for task 10: unlimited
  | Current stacksize for task 11: unlimited
  | Current stacksize for task 12: unlimited
  | Current stacksize for task 13: unlimited
  | Current stacksize for task 14: unlimited
  | Current stacksize for task 15: unlimited
  | Current stacksize for task 16: unlimited
  | Current stacksize for task 17: unlimited
 
  Consistency checks for the contents of control.in are next.
 
  MPI_IN_PLACE appears to work with this MPI implementation.
  | Keeping use_mpi_in_place .true. (see manual).
  Explicit treatment of the Coulomb operator is needed, but the RI method is not specified.
  Coulomb operator: Defaulting to 'LVL fast' resolution of identity - RI_type = LVL_fast
  Species H: Using default value for prodbas_acc =   1.000000E-06.
  Species H: Using default value max_l_prodbas =     6.
  Species C: Using default value for prodbas_acc =   1.000000E-06.
  Species C: Using default value max_l_prodbas =     6.
  Target number of points in a grid batch is not set.  Since GPU acceleration is enabled, defaulting to  200
  Method for grid partitioning is not set. Defaulting to parallel hash+maxmin partitioning.
  Batch size limit is not set. Defaulting to    200
  By default, will store active basis functions for each batch.
  If in need of memory, prune_basis_once .false. can be used to disable this option.
  communication_type for Hartree potential was not specified.
  Defaulting to calc_hartree .
  Defaulting to Pulay charge density mixer.
  Pulay mixer: Number of relevant iterations not set.
  Defaulting to    8 iterations.
  Pulay mixer: Number of initial linear mixing iterations not set.
  Defaulting to    0 iterations.
  Work space size for distributed Hartree potential not set.
  Defaulting to   0.200000E+03 MB.
  Algorithm-dependent basis array size parameters:
  | n_max_pulay                         :        8
  Maximum number of self-consistency iterations not provided.
  Presetting  1000 iterations.
  Presetting      1001 iterations before the initial mixing cycle
  is restarted anyway using the sc_init_iter criterion / keyword.
  Presetting a factor      1.000 between actual scf density residual
  and density convergence criterion sc_accuracy_rho below which sc_init_iter
  takes no effect.
 * No s.c.f. convergence criteria (sc_accuracy_*) were provided in control.in.
 * The run will proceed with a reasonable default guess, but please check whether.
 * the s.c.f. cycles seem to take too much or too little time.
  Geometry relaxation not requested: no relaxation will be performed.
 * Notice: The s.c.f. convergence criterion sc_accuracy_rho was not provided.
 * We used to stop in this case, and ask the user to provide reasonable
 * scf convergence criteria. However, this led some users to employ criteria
 * that led to extremely long run times, e.g., for simple relaxation.
 * We now preset a default value for sc_accuracy_rho if it is not set.
 * You may still wish to check if this setting is too tight or too loose for your needs.
 * Based on n_atoms and forces and force-correction status, FHI-aims chose sc_accuracy_rho =  0.391918E-04 .
  No accuracy limit for integral partition fn. given. Defaulting to  0.1000E-14.
  No threshold value for u(r) in integrations given. Defaulting to  0.1000E-05.
  No occupation type (smearing scheme) given. Defaulting to Gaussian broadening, width =  0.1000E-01 eV.
  The width will be adjusted in iteration number     2 of the first full s.c.f. cycle only.
  S.C.F. convergence parameters will be adjusted in iteration number     2 of the first full s.c.f. cycle only.
  No accuracy for occupation numbers given. Defaulting to  0.1000E-12.
  No threshold value for occupation numbers given. Defaulting to  0.0000E+00.
  No accuracy for fermi level given. Defaulting to  0.1000E-19.
  Maximum # of iterations to find E_F not set. Defaulting to  200.
  Preferred method for the eigenvalue solver ('KS_method') not specified in 'control.in'.
  Calling BLACS routine to test compilation state
  Since ScaLAPACK support is enabled, defaulting to ELPA (via ELSI).
  Will not use alltoall communication since running on < 1024 CPUs.
  Threshold for basis singularities not set.
  Default threshold for basis singularities:  0.1000E-04
  partition_type (choice of integration weights) for integrals was not specified.
  | Using a version of the partition function of Stratmann and coworkers ('stratmann_sparse').
  | At each grid point, the set of atoms used to build the partition table is smoothly restricted to
  | only those atoms whose free-atom density would be non-zero at that grid point.
  Partitioning for Hartree potential was not defined. Using partition_type for integrals.
  | Adjusted default value of keyword multip_moments_threshold to:       0.10000000E-11
  | This value may affect high angular momentum components of the Hartree potential in periodic systems.
  Angular momentum expansion for Kerker preconditioner not set explicitly.
  | Using default value of   0
  No explicit requirement for turning off preconditioner.
  | By default, it will be turned off when the charge convergence reaches
  | sc_accuracy_rho  =   0.391918E-04
  No special mixing parameter while Kerker preconditioner is on.
  Using default: charge_mix_param =     0.7500.
  Threshold for auxiliary basis singularities not set.
  Default threshold for auxiliary basis singularities:  0.1000E-04
  No q(lm)/r^(l+1) cutoff set for long-range Hartree potential.
  | Using default value of  0.100000E-09 .
  | Verify using the multipole_threshold keyword.
  Defaulting to new monopole extrapolation.
  Density update method: automatic selection selected.
  Using density matrix based charge density update.
  Using density matrix based charge density update.
  Using packed matrix style: index .
  Defaulting to use time-reversal symmetry for k-point grid.
  Charge integration errors on the 3D integration grid will be compensated
  by explicit normalization and distribution of residual charges.
  Use the "compensate_multipole_errors" flag to change this behaviour.
  Default to 1D ("use_logsbt") integrations for auxiliary 2-center integrals.
  Default onset of logarithmic r-grid for SBT is -38.000000000000
  Default onset of logarithmic k-grid for SBT is -25.000000000000
  Default range of logarithmic r- and k-grid for SBT is  45.000000000000
  Default number of logarithmic r- and k-grid for SBT is   4096
  Default of use_2d_corr is to use the efficient 2D distribution where possible
 
  Consistency checks for the contents of geometry.in are next.
 

  Range separation radius for Ewald summation (hartree_convergence_parameter):      2.91768261 bohr.
  Number of empty states per atom not set in control.in .
  | Since you are using a method that relies on the unoccupied spectrum
  | (MP2,GW,RPA et al.), will use the full Hamiltonian size (see below)
  | as the max. possible number of states (occupied plus empty).

  Structure-dependent array size parameters: 
  | Maximum number of distinct radial functions  :        9
  | Maximum number of basis functions            :     1440
  | Number of Kohn-Sham states (occupied + empty):     1440
------------------------------------------------------------
CUDA runtime version: 11060
CUDA driver version: 11060
  Initializing GPUs...

  Number of GPUs available to MPI task         0 :   1
  Number of GPUs available to MPI task         1 :   1
  Number of GPUs available to MPI task         2 :   1
  Number of GPUs available to MPI task         3 :   1
  Number of GPUs available to MPI task         4 :   1
  Number of GPUs available to MPI task         5 :   1
  Number of GPUs available to MPI task         6 :   1
  Number of GPUs available to MPI task         7 :   1
  Number of GPUs available to MPI task         8 :   1
  Number of GPUs available to MPI task         9 :   1
  Number of GPUs available to MPI task        10 :   1
  Number of GPUs available to MPI task        11 :   1
  Number of GPUs available to MPI task        12 :   1
  Number of GPUs available to MPI task        13 :   1
  Number of GPUs available to MPI task        14 :   1
  Number of GPUs available to MPI task        15 :   1
  Number of GPUs available to MPI task        16 :   1
  Number of GPUs available to MPI task        17 :   1

  | MPI task         0, GPU activated = T, Device Name = NVIDIA A100-SXM4-80GB
  | MPI task         1, GPU activated = T, Device Name = NVIDIA A100-SXM4-80GB
  | MPI task         2, GPU activated = T, Device Name = NVIDIA A100-SXM4-80GB
  | MPI task         3, GPU activated = T, Device Name = NVIDIA A100-SXM4-80GB
  | MPI task         4, GPU activated = T, Device Name = NVIDIA A100-SXM4-80GB
  | MPI task         5, GPU activated = T, Device Name = NVIDIA A100-SXM4-80GB
  | MPI task         6, GPU activated = T, Device Name = NVIDIA A100-SXM4-80GB
  | MPI task         7, GPU activated = T, Device Name = NVIDIA A100-SXM4-80GB
  | MPI task         8, GPU activated = T, Device Name = NVIDIA A100-SXM4-80GB
  | MPI task         9, GPU activated = T, Device Name = NVIDIA A100-SXM4-80GB
  | MPI task        10, GPU activated = T, Device Name = NVIDIA A100-SXM4-80GB
  | MPI task        11, GPU activated = T, Device Name = NVIDIA A100-SXM4-80GB
  | MPI task        12, GPU activated = T, Device Name = NVIDIA A100-SXM4-80GB
  | MPI task        13, GPU activated = T, Device Name = NVIDIA A100-SXM4-80GB
  | MPI task        14, GPU activated = T, Device Name = NVIDIA A100-SXM4-80GB
  | MPI task        15, GPU activated = T, Device Name = NVIDIA A100-SXM4-80GB
  | MPI task        16, GPU activated = T, Device Name = NVIDIA A100-SXM4-80GB
  | MPI task        17, GPU activated = T, Device Name = NVIDIA A100-SXM4-80GB

------------------------------------------------------------
          Preparing all fixed parts of the calculation.
------------------------------------------------------------
  Determining machine precision:
    2.225073858507201E-308
  Setting up grids for atomic and cluster calculations.

  Creating wave function, potential, and density for free atoms.
  Runtime choices for atomic solver:
  | atomic solver xc        : PW-LDA
  | compute density gradient: 0
  | compute kinetic density : F

  Species: H

  List of occupied orbitals and eigenvalues:
    n    l              occ      energy [Ha]    energy [eV]
    1    0           1.0000        -0.232375        -6.3233


  Species: C

  List of occupied orbitals and eigenvalues:
    n    l              occ      energy [Ha]    energy [eV]
    1    0           2.0000        -9.944615      -270.6068
    2    0           2.0000        -0.498807       -13.5732
    2    1           2.0000        -0.196968        -5.3598


  Adding cutoff potential to free-atom effective potential.
  Creating fixed part of basis set: Ionic, confined, hydrogenic.
 
  H                    hydrogenic:
 
  List of hydrogenic basis orbitals: 
    n    l      effective z      eigenvalue [eV]  inner max. [A]     outer max. [A]     outer radius [A]   
    2    0         2.100000       -14.9728           0.193243           1.317208           4.583499
    2    1         3.500000       -41.6669           0.602369           0.602369           3.723403
 
 
  C                    hydrogenic:
 
  List of hydrogenic basis orbitals: 
    n    l      effective z      eigenvalue [eV]  inner max. [A]     outer max. [A]     outer radius [A]   
    2    1         1.700000        -9.7616           1.230570           1.230570           4.607917
    3    2         6.000000       -54.4224           0.792453           0.792453           3.883070
    2    0         4.900000       -81.6679           0.082559           0.562749           3.078220
 
  Creating atomic-like basis functions for current effective potential.

  Species H                   :

  List of atomic basis orbitals and eigenvalues:
    n    l      energy [Ha]    energy [eV]    outer radius [A]
    1    0        -0.232375        -6.3233       4.527807


  Species C                   :

  List of atomic basis orbitals and eigenvalues:
    n    l      energy [Ha]    energy [eV]    outer radius [A]
    1    0        -9.944615      -270.6068       1.934409
    2    0        -0.498807       -13.5732       4.496620
    2    1        -0.196968        -5.3598       4.551928

  Assembling full basis from fixed parts.
  | Species H :   atomic orbital   1 s accepted.
  | Species H :    hydro orbital   2 s accepted.
  | Species H :    hydro orbital   2 p accepted.
  | Species C :   atomic orbital   1 s accepted.
  | Species C :    hydro orbital   2 s accepted.
  | Species C :   atomic orbital   2 s accepted.
  | Species C :   atomic orbital   2 p accepted.
  | Species C :    hydro orbital   2 p accepted.
  | Species C :    hydro orbital   3 d accepted.
 
  Basis size parameters after reduction:
  | Total number of radial functions:        9
  | Total number of basis functions :     1440
 
  Per-task memory consumption for arrays in subroutine allocate_ext:
  |           2.242384MB.
  Testing on-site integration grid accuracy.
  |  Species  Function  <phi|h_atom|phi> (log., in eV)  <phi|h_atom|phi> (rad., in eV)
           1        1                 -6.3245358373                 -6.3232436907
           1        2                 14.1326137532                 14.1384481100
           1        3                 25.3627025200                 25.3628451197
           2        4               -270.6067544938               -270.6067222788
           2        5                -10.5634280949                -10.5635685736
           2        6                 16.2089822398                 16.2052121796
           2        7                 -5.3613872565                 -5.3627872378
           2        8                  8.5292058327                  8.5051734780
           2        9                 27.4884461005                 27.4884542459

  Preparing densities etc. for the partition functions (integrals / Hartree potential).

  Preparations completed.
  max(cpu_time)          :      0.091 s.
  Wall clock time (cpu1) :      0.083 s.
------------------------------------------------------------

  Initializing index lists of integration centers etc. from given atomic structure:
  Mapping all atomic coordinates to central unit cell.

  Initializing the k-points
  Using symmetry for reducing the k-points
  | k-points reduced from:        2 to        2
  | Number of k-points                             :         2
  | Consuming          0 KiB for k_phase_exx.
  The eigenvectors in the calculations are REAL.
  | Number of basis functions in the Hamiltonian integrals :      8038
  | Number of basis functions in a single unit cell        :      1440
  | Number of centers in hartree potential         :      3344
  | Number of centers in hartree multipole         :      2556
  | Number of centers in electron density summation:      1988
  | Number of centers in basis integrals           :      2128
  | Number of centers in integrals                 :       969
  | Number of centers in hamiltonian               :      1997
  | Consuming          1 KiB for k_phase.
  | Number of super-cells (origin) [n_cells]                     :         175
  | Number of super-cells (after PM_index) [n_cells]             :          36
  | Number of super-cells in hamiltonian [n_cells_in_hamiltonian]:          36
  | Size of matrix packed + index [n_hamiltonian_matrix_size] :     1933651
  | Size of matrix packed + index (no_symmetry):     3864485

------------------------------------------------------------
          Begin self-consistency loop: Initialization.

          Date     :  20230120, Time     :  135007.773
------------------------------------------------------------
  | Estimated reciprocal-space cutoff momentum G_max:         3.24344278 bohr^-1 .
  | Reciprocal lattice points for long-range Hartree potential:    5310
  Using simple linear distribution as default method for k-point parallelism.
  * Using 18 tasks for Scalapack Eigenvalue solver.
  Detailed listing of tasks and assigned k-points:
   Task     0 k-point     1 on adag005
   Task     1 k-point     1 on adag005
   Task     2 k-point     1 on adag005
   Task     3 k-point     1 on adag005
   Task     4 k-point     1 on adag005
   Task     5 k-point     1 on adag005
   Task     6 k-point     1 on adag005
   Task     7 k-point     1 on adag005
   Task     8 k-point     1 on adag005
   Task     9 k-point     2 on adag005
   Task    10 k-point     2 on adag005
   Task    11 k-point     2 on adag005
   Task    12 k-point     2 on adag005
   Task    13 k-point     2 on adag005
   Task    14 k-point     2 on adag005
   Task    15 k-point     2 on adag005
   Task    16 k-point     2 on adag005
   Task    17 k-point     2 on adag005
  K-point:     1 Tasks:     9 split into      3 X      3 BLACS grid
  Calculating block size based on n_basis =         1440  max_nprow =            3  max_npcol =            3
  ScaLAPACK block size set to:           16
  Allocating        1.758 MB for ovlp
  Allocating        1.758 MB for ham
  Allocating        1.758 MB for eigenvec
  Required Scalapack workspace - INTEGER:            1  REAL:             1
  Partitioning the integration grid into batches with parallel hashing+maxmin method.
  | Number of batches:     5563
  | Maximal batch size:     200
  | Minimal batch size:      99
  | Average batch size:     137.307
  | Standard deviation of batch sizes:      30.009

  Integration load balanced across    18 MPI tasks.
  Work distribution over tasks is as follows:
  Task     0 has      42429 integration points.
  Task     1 has      42421 integration points.
  Task     2 has      42455 integration points.
  Task     3 has      42418 integration points.
  Task     4 has      42400 integration points.
  Task     5 has      42434 integration points.
  Task     6 has      42449 integration points.
  Task     7 has      42456 integration points.
  Task     8 has      42462 integration points.
  Task     9 has      42487 integration points.
  Task    10 has      42429 integration points.
  Task    11 has      42433 integration points.
  Task    12 has      42377 integration points.
  Task    13 has      42446 integration points.
  Task    14 has      42437 integration points.
  Task    15 has      42463 integration points.
  Task    16 has      42440 integration points.
  Task    17 has      42404 integration points.
  Initializing partition tables, free-atom densities, potentials, etc. across the integration grid (initialize_grid_storage).
  | initialize_grid_storage: Actual outermost partition radius vs. multipole_radius_free
  | (-- VB: in principle, multipole_radius_free should be larger, hence this output)
  | Species        1: Confinement radius =              4.999999999999999 AA, multipole_radius_free =              5.054417573612229 AA.
  | Species        1: outer_partition_radius set to              5.054417573612229 AA .
  | Species        2: Confinement radius =              4.999999999999999 AA, multipole_radius_free =              5.019602836301480 AA.
  | Species        2: outer_partition_radius set to              5.019602836301480 AA .
  | The sparse table of interatomic distances needs       7664.16 kbyte instead of     36227.07 kbyte of memory.
  | Net number of integration points:   763840
  | of which are non-zero points    :   605322
  | Numerical average free-atom electrostatic potential    :     -8.61466067 eV
  Renormalizing the initial density to the exact electron count on the 3D integration grid.
  | Initial density: Formal number of electrons (from input files) :     544.0000000000
  | Integrated number of electrons on 3D grid     :     543.9950750092
  | Charge integration error                      :      -0.0049249908
  | Normalization factor for density and gradient :       1.0000090534
  Renormalizing the free-atom superposition density to the exact electron count on the 3D integration grid.
  | Formal number of electrons (from input files) :     544.0000000000
  | Integrated number of electrons on 3D grid     :     543.9950750092
  | Charge integration error                      :      -0.0049249908
  | Normalization factor for density and gradient :       1.0000090534
  Obtaining max. number of non-zero basis functions in each batch (get_n_compute_maxes).
  | Maximal number of non-zero basis functions:      540 in task     0
  | Maximal number of non-zero basis functions:      533 in task     1
  | Maximal number of non-zero basis functions:      544 in task     2
  | Maximal number of non-zero basis functions:      539 in task     3
  | Maximal number of non-zero basis functions:      542 in task     4
  | Maximal number of non-zero basis functions:      541 in task     5
  | Maximal number of non-zero basis functions:      541 in task     6
  | Maximal number of non-zero basis functions:      546 in task     7
  | Maximal number of non-zero basis functions:      536 in task     8
  | Maximal number of non-zero basis functions:      548 in task     9
  | Maximal number of non-zero basis functions:      550 in task    10
  | Maximal number of non-zero basis functions:      542 in task    11
  | Maximal number of non-zero basis functions:      525 in task    12
  | Maximal number of non-zero basis functions:      548 in task    13
  | Maximal number of non-zero basis functions:      563 in task    14
  | Maximal number of non-zero basis functions:      524 in task    15
  | Maximal number of non-zero basis functions:      542 in task    16
  | Maximal number of non-zero basis functions:      527 in task    17
  Integrating Hamiltonian matrix: batch-based integration.
  GPU acceleration will be used when integrating the Hamiltonian matrix.
  Reporting GPU memory usage by myid 0.  Note that it is likely not the only MPI task binding to its GPU!
  Allocating        2.333 MB on GPU for hamiltonian_shell
  Allocating        0.864 MB on GPU for wave
  Allocating        0.002 MB on GPU for partition
  Allocating        0.864 MB on GPU for h_times_psi
  Time summed over all CPUs for integration: real work       34.094 s, elapsed       35.708 s
  Deallocating memory used on GPU for Hamiltonian integration.
  Integrating overlap matrix.
  Time summed over all CPUs for integration: real work       27.762 s, elapsed       28.574 s
  Deallocating overlap matrix.

  Updating Kohn-Sham eigenvalues and eigenvectors using ELSI and the ELPA eigensolver.
  Singularity check in k-point 1 (analysis for other k-points may follow below):
  Overlap matrix is not singular
  | Lowest and highest eigenvalues :  0.7824E-03,  0.8244E+01
  Finished singularity check of overlap matrix
  | Time :     0.117 s
  Starting ELPA eigensolver
  Finished Cholesky decomposition
  | Time :     0.018 s
  Finished transformation to standard eigenproblem
  | Time :     0.033 s
  Finished solving standard eigenproblem
  | Time :     0.240 s
  Finished back-transformation of eigenvectors
  | Time :     0.024 s

  Obtaining occupation numbers and electronic chemical potential using ELSI.
  | Note that, for insulating systems, the printed 'chemical potential' value is not uniquely defined.
  | It can be anywhere in the energy gap, as long as it correctly separates occupied and unoccupied states.
  | In systems with a gap, the physically relevant chemical potential is the VBM or HOMO.

  | Chemical potential (Fermi level):    -8.04372777 eV
  Writing Kohn-Sham eigenvalues.
  K-point:       1 at    0.000000    0.000000    0.000000 (in units of recip. lattice)

  State    Occupation    Eigenvalue [Ha]    Eigenvalue [eV]
      1       2.00000         -10.070035         -274.01958
      2       2.00000         -10.069931         -274.01678
      3       2.00000         -10.068995         -273.99130
      4       2.00000         -10.068681         -273.98276
      5       2.00000         -10.068554         -273.97928
      6       2.00000         -10.067236         -273.94342
      7       2.00000         -10.067075         -273.93904
      8       2.00000         -10.066919         -273.93481
      9       2.00000         -10.066859         -273.93316
     10       2.00000         -10.066813         -273.93192
     11       2.00000         -10.066645         -273.92736
     12       2.00000         -10.066547         -273.92467
     13       2.00000         -10.066325         -273.91864
     14       2.00000         -10.066235         -273.91619
     15       2.00000         -10.066220         -273.91579
     16       2.00000         -10.066120         -273.91306
     17       2.00000         -10.065814         -273.90474
     18       2.00000         -10.065784         -273.90392
     19       2.00000         -10.065185         -273.88763
     20       2.00000         -10.065033         -273.88349
     21       2.00000         -10.065025         -273.88326
     22       2.00000         -10.064972         -273.88183
     23       2.00000         -10.064882         -273.87938
     24       2.00000         -10.064726         -273.87512
     25       2.00000         -10.064662         -273.87339
     26       2.00000         -10.064571         -273.87091
     27       2.00000         -10.064359         -273.86515
     28       2.00000         -10.064322         -273.86415
     29       2.00000         -10.064101         -273.85813
     30       2.00000         -10.064074         -273.85740
     31       2.00000         -10.063970         -273.85457
     32       2.00000         -10.063922         -273.85325
     33       2.00000         -10.063592         -273.84428
     34       2.00000         -10.063415         -273.83946
     35       2.00000         -10.063356         -273.83784
     36       2.00000         -10.063145         -273.83211
     37       2.00000         -10.063112         -273.83121
     38       2.00000         -10.062905         -273.82557
     39       2.00000         -10.062895         -273.82531
     40       2.00000         -10.062646         -273.81853
     41       2.00000         -10.062602         -273.81734
     42       2.00000         -10.062359         -273.81071
     43       2.00000         -10.062346         -273.81036
     44       2.00000         -10.062331         -273.80995
     45       2.00000         -10.062324         -273.80977
     46       2.00000         -10.062219         -273.80690
     47       2.00000         -10.062017         -273.80143
     48       2.00000         -10.061922         -273.79884
     49       2.00000         -10.061883         -273.79776
     50       2.00000         -10.061643         -273.79124
     51       2.00000         -10.061552         -273.78876
     52       2.00000         -10.061539         -273.78841
     53       2.00000         -10.061520         -273.78790
     54       2.00000         -10.061501         -273.78737
     55       2.00000         -10.061149         -273.77779
     56       2.00000         -10.060681         -273.76507
     57       2.00000         -10.060434         -273.75832
     58       2.00000         -10.060068         -273.74838
     59       2.00000         -10.059878         -273.74320
     60       2.00000         -10.059589         -273.73535
     61       2.00000         -10.059566         -273.73471
     62       2.00000         -10.058922         -273.71721
     63       2.00000         -10.058386         -273.70260
     64       2.00000         -10.058184         -273.69712
     65       2.00000         -10.058148         -273.69612
     66       2.00000         -10.058129         -273.69562
     67       2.00000         -10.058097         -273.69475
     68       2.00000         -10.057777         -273.68605
     69       2.00000         -10.056287         -273.64549
     70       2.00000         -10.056067         -273.63950
     71       2.00000         -10.055388         -273.62104
     72       2.00000         -10.055264         -273.61765
     73       2.00000         -10.054905         -273.60790
[...]
  |    H      0     4.527807 A      4.583499 A        4.713786E-16 a.u.
  |    H      2     3.678162 A  1.011968E+04 A            0.556529 a.u.
  |    H      1     3.958095 A  1.721251E+06 A            0.841931 a.u.
  |    H      0     4.527807 A  3.866455E+12 A            0.581436 a.u.
  |    C      0     2.562483 A      2.562483 A        6.563029E-17 a.u.
  |    C      0     2.967371 A      2.967371 A        1.352164E-16 a.u.
  |    C      0     3.003870 A      3.003870 A        2.312640E-17 a.u.
  |    C      1     3.272245 A      3.272245 A       -3.835259E-17 a.u.
  |    C      0     3.312494 A      3.312494 A       -2.710381E-16 a.u.
  |    C      3     4.077671 A      4.077671 A       -1.683752E-15 a.u.
  |    C      3     4.077671 A      4.077671 A        1.412852E-15 a.u.
  |    C      1     4.496620 A      4.496620 A       -3.011059E-16 a.u.
  |    C      0     4.496620 A      4.551928 A        2.873903E-17 a.u.
  |    C      2     4.551928 A      4.551928 A       -4.610785E-16 a.u.
  |    C      2     4.551928 A      4.551928 A        7.440584E-16 a.u.
  |    C      2     4.551928 A      4.551928 A       -7.110458E-16 a.u.
  |    C      2     4.551928 A      4.551928 A       -1.935424E-16 a.u.
  |    C      0     4.551928 A      4.607917 A        2.067142E-16 a.u.
  |    C      0     4.551928 A      4.607917 A       -1.109786E-16 a.u.
  |    C      1     4.551928 A      4.607917 A       -9.951742E-17 a.u.
  |    C      1     4.551928 A      4.607917 A        1.937809E-16 a.u.
  |    C      1     4.607917 A      4.607917 A       -2.813308E-16 a.u.
  |    C      1     4.607917 A      4.607917 A       -7.330363E-17 a.u.
  |    C      2     4.607917 A      4.607917 A        1.318462E-15 a.u.
  |    C      2     4.607917 A      4.607917 A       -1.318397E-15 a.u.
  |    C      0     4.607917 A      4.664595 A        3.157826E-16 a.u.
  |    C      1     4.607917 A      4.664595 A        7.356967E-16 a.u.
  |    C      4     3.835889 A  2.962973E+02 A            4.379483 a.u.
  |    C      3     4.127827 A  1.725964E+03 A            9.005588 a.u.
  |    C      2     4.607917 A  2.608475E+04 A            9.531178 a.u.
  |    C      1     4.607917 A  2.736013E+06 A            2.127278 a.u.
  |    C      0     4.607917 A  4.399765E+12 A            0.661635 a.u.

  | Shrink_full_auxil_basis : there are       36  radial auxiliary wave functions
                            accepted and       7 rejected.
  | Shrink_full_auxil_basis : there are totally                8992 partial auxiliary wave functions.
 
  | Maximal number of product basis functions per thread :   512   512
 
  | Minimal total memory requirement for three-center overlap :      72.476 Gbs
  | Number of local auxiliary basis functions on task:      0   512
  | Number of local auxiliary basis functions on task:      1   512
  | Number of local auxiliary basis functions on task:      2   512
  | Number of local auxiliary basis functions on task:      3   512
  | Number of local auxiliary basis functions on task:      4   496
  | Number of local auxiliary basis functions on task:      5   496
  | Number of local auxiliary basis functions on task:      6   496
  | Number of local auxiliary basis functions on task:      7   496
  | Number of local auxiliary basis functions on task:      8   496
  | Number of local auxiliary basis functions on task:      9   496
  | Number of local auxiliary basis functions on task:     10   496
  | Number of local auxiliary basis functions on task:     11   496
  | Number of local auxiliary basis functions on task:     12   496
  | Number of local auxiliary basis functions on task:     13   496
  | Number of local auxiliary basis functions on task:     14   496
  | Number of local auxiliary basis functions on task:     15   496
  | Number of local auxiliary basis functions on task:     16   496
  | Number of local auxiliary basis functions on task:     17   496
  | 2D aux task distribution:      3 X      6
  | 2D block size (nb_aux_2d):     64
 
  Basis pair condensation :   1037520  -->     542453
 
 --------------------------------------------
  Constructing auxiliary basis (full product) ...
 
  Product basis:
  | charge radius: extent of product basis function
  | field radius: extent of its Coulomb potential
  | Species   l  charge radius    field radius  multipol momen
  |    H      1     3.910002 A      3.910002 A       -2.487223E-16 a.u.
  |    H      1     3.958095 A      3.958095 A       -2.441841E-16 a.u.
  |    H      0     4.527807 A      4.527807 A        1.268855E-16 a.u.
  |    H      0     4.527807 A      4.583499 A       -4.900954E-17 a.u.
  |    H      0     4.527807 A      4.583499 A        4.713786E-16 a.u.
  |    H      2     3.678162 A  1.011968E+04 A            0.556529 a.u.
  |    H      1     3.958095 A  1.721251E+06 A            0.841931 a.u.
  |    H      0     4.527807 A  3.866455E+12 A            0.581436 a.u.
  |    C      0     2.562483 A      2.562483 A        6.563029E-17 a.u.
  |    C      0     2.967371 A      2.967371 A        1.352164E-16 a.u.
  |    C      0     3.003870 A      3.003870 A        2.312640E-17 a.u.
  |    C      1     3.272245 A      3.272245 A       -3.835259E-17 a.u.
  |    C      0     3.312494 A      3.312494 A       -2.710381E-16 a.u.
  |    C      3     4.077671 A      4.077671 A       -1.683752E-15 a.u.
  |    C      3     4.077671 A      4.077671 A        1.412852E-15 a.u.
  |    C      1     4.496620 A      4.496620 A       -3.011059E-16 a.u.
  |    C      0     4.496620 A      4.551928 A        2.873903E-17 a.u.
  |    C      2     4.551928 A      4.551928 A       -4.610785E-16 a.u.
  |    C      2     4.551928 A      4.551928 A        7.440584E-16 a.u.
  |    C      2     4.551928 A      4.551928 A       -7.110458E-16 a.u.
  |    C      2     4.551928 A      4.551928 A       -1.935424E-16 a.u.
  |    C      0     4.551928 A      4.607917 A        2.067142E-16 a.u.
  |    C      0     4.551928 A      4.607917 A       -1.109786E-16 a.u.
  |    C      1     4.551928 A      4.607917 A       -9.951742E-17 a.u.
  |    C      1     4.551928 A      4.607917 A        1.937809E-16 a.u.
  |    C      1     4.607917 A      4.607917 A       -2.813308E-16 a.u.
  |    C      1     4.607917 A      4.607917 A       -7.330363E-17 a.u.
  |    C      2     4.607917 A      4.607917 A        1.318462E-15 a.u.
  |    C      2     4.607917 A      4.607917 A       -1.318397E-15 a.u.
  |    C      0     4.607917 A      4.664595 A        3.157826E-16 a.u.
  |    C      1     4.607917 A      4.664595 A        7.356967E-16 a.u.
  |    C      4     3.835889 A  2.962973E+02 A            4.379483 a.u.
  |    C      3     4.127827 A  1.725964E+03 A            9.005588 a.u.
  |    C      2     4.607917 A  2.608475E+04 A            9.531178 a.u.
  |    C      1     4.607917 A  2.736013E+06 A            2.127278 a.u.
  |    C      0     4.607917 A  4.399765E+12 A            0.661635 a.u.

  | Shrink_full_auxil_basis : there are       36  radial auxiliary wave functions
                            accepted and       7 rejected.
  | Shrink_full_auxil_basis : there are totally                8992 partial auxiliary wave functions.
 
  | Maximal number of product basis functions per thread :   512   512
 
  | Minimal total memory requirement for three-center overlap :      72.476 Gbs
  | Number of local auxiliary basis functions on task:      0   512
  | Number of local auxiliary basis functions on task:      1   512
  | Number of local auxiliary basis functions on task:      2   512
  | Number of local auxiliary basis functions on task:      3   512
  | Number of local auxiliary basis functions on task:      4   496
  | Number of local auxiliary basis functions on task:      5   496
  | Number of local auxiliary basis functions on task:      6   496
  | Number of local auxiliary basis functions on task:      7   496
  | Number of local auxiliary basis functions on task:      8   496
  | Number of local auxiliary basis functions on task:      9   496
  | Number of local auxiliary basis functions on task:     10   496
  | Number of local auxiliary basis functions on task:     11   496
  | Number of local auxiliary basis functions on task:     12   496
  | Number of local auxiliary basis functions on task:     13   496
  | Number of local auxiliary basis functions on task:     14   496
  | Number of local auxiliary basis functions on task:     15   496
  | Number of local auxiliary basis functions on task:     16   496
  | Number of local auxiliary basis functions on task:     17   496
  | 2D aux task distribution:      3 X      6
  | 2D block size (nb_aux_2d):     64
 
  Basis pair condensation :   1037520  -->     542453
  Allocating        0.069 MB for t_coeff
  Allocating        0.034 MB for basbas_idx
  Allocating        0.069 MB for wave
  Allocating        0.069 MB for total_wave
  Allocating        0.206 MB for wave_gradient
  Allocating        0.206 MB for total_wave_grad
 HERE1
 HERE2
  Deallocating        0.069 MB for t_coeff
  Deallocating        0.034 MB for basbas_idx
  Deallocating        0.069 MB for wave
  Deallocating        0.206 MB for wave_gradient
  Deallocating        0.206 MB for total_wave_grad
dP_dE (Bohr^3) at every cycle:--->
 (973.723872522319,0.000000000000000E+000) (4.63659434182395,0.000000000000000E+000) (-451.488561283241,0.000000000000000E+000)
 (4.56568168855928,0.000000000000000E+000) (1390.06515562561,0.000000000000000E+000) (-13.8120777035605,0.000000000000000E+000)
 (-451.697539777521,0.000000000000000E+000) (-13.8200625007614,0.000000000000000E+000) (1692.35646463495,0.000000000000000E+000)
DFPT polarizability (Bohr^3)        xx        yy        zz        xy        xz        yz
  | Polarizability:--->                       973.723872522                 1390.065155626                 1692.356464635                    4.636594342                 -451.488561283                  -13.812077704

DFPT for dielectric_constant:--->  # PARSE DFPT_dielectric_tensor
               2.321322525060371             0.006291759621287            -0.612660347214577
               0.006195532663405             2.886288765491442            -0.018742694826125
              -0.612943926573712            -0.018753530025608             3.296491623812414

                                               :  max(cpu_time)    wall_clock(cpu1)
  | Time for  dielectric calculation            :        0.000 s           0.001 s
===========================================================================

------------------------------------------------------------------------------
  Final output of selected total energy values:

  The following output summarizes some interesting total energy values
  at the end of a run (AFTER all relaxation, molecular dynamics, etc.).

  | Total energy of the DFT / Hartree-Fock s.c.f. calculation      :         -83267.571109333 eV
  | Final zero-broadening corrected energy (caution - metals only) :         -83267.571109333 eV
  | For reference only, the value of 1 Hartree used in FHI-aims is :             27.211384500 eV
  | For reference only, the overall average (free atom contribution
  | + realspace contribution) of the electrostatic potential after
  | s.c.f. convergence is                                          :             -7.690890343 eV

  Before relying on these values, please be sure to understand exactly which
  total energy value is referred to by a given number. Different objects may
  all carry the same name 'total energy'. Definitions:

  Total energy of the DFT / Hartree-Fock s.c.f. calculation:
  | Note that this energy does not include ANY quantities calculated after the
  | s.c.f. cycle, in particular not ANY RPA, MP2, etc. many-body perturbation terms.

  Final zero-broadening corrected energy:
  | For metallic systems only, a broadening of the occupation numbers at the Fermi
  | level can be extrapolated back to zero broadening by an electron-gas inspired
  | formula. For all systems that are not real metals, this value can be
  | meaningless and should be avoided.

------------------------------------------------------------------------------
  Methods described in the following list of references were used in this FHI-aims run.
  If you publish the results, please make sure to cite these reference if they apply.
  FHI-aims is an academic code, and for our developers (often, Ph.D. students
  and postdocs), scientific credit in the community is essential.
  Thank you for helping us!

  For any use of FHI-aims, please cite:

    Volker Blum, Ralf Gehrke, Felix Hanke, Paula Havu, Ville Havu,
    Xinguo Ren, Karsten Reuter, and Matthias Scheffler
    'Ab initio molecular simulations with numeric atom-centered orbitals'
    Computer Physics Communications 180, 2175-2196 (2009)
    http://doi.org/10.1016/j.cpc.2009.06.022


  For Hartree-Fock, hybrid functionals, or many-body perturbation theory used in your run, please cite:

    Xinguo Ren, Patrick Rinke, Volker Blum, Juergen Wieferink, Alex Tkatchenko,
    Andrea Sanfilippo, Karsten Reuter, and Matthias Scheffler,
    'Resolution-of-identity approach to Hartree-Fock, hybrid density functionals,
    RPA, MP2, and GW with numeric atom-centered orbital basis functions'
    New Journal of Physics 14, 053020 (2012).
    http://doi.org/10.1088/1367-2630/14/5/053020


  The provided symmetry information was generated with SPGlib:

    Atsushi Togo, Yusuke Seto, Dimitar Pashov
    SPGlib 1.7.3 obtained from http://spglib.sourceforge.net
    Copyright (C) 2008 Atsushi Togo


  The DFPT (perturbation by an electric field) part of the code was used.
  Here is the corresponding reference:

    Honghui Shang, Nathaniel Raimbault, Mariana Rossi,
    Christian Carbogno, Patrick Rinke and Matthias Scheffler,
    'All-Electron, Real-Space Perturbation Theory for Homogeneous
    Electric Fields: Theory, Implementation, and Application within dft'
    New Journal of Physics, 20(7):073040, 2018


  The ELSI infrastructure was used in your run to solve the Kohn-Sham electronic structure.
  Please check out http://elsi-interchange.org to learn more.
  If scalability is important for your project, please acknowledge ELSI by citing:

    V. W-z. Yu, F. Corsetti, A. Garcia, W. P. Huhn, M. Jacquelin, W. Jia,
    B. Lange, L. Lin, J. Lu, W. Mi, A. Seifitokaldani, A. Vazquez-Mayagoitia,
    C. Yang, H. Yang, and V. Blum
    'ELSI: A unified software interface for Kohn-Sham electronic structure solvers'
    Computer Physics Communications 222, 267-285 (2018).
    http://doi.org/10.1016/j.cpc.2017.09.007


  For the real-space grid partitioning and parallelization used in this calculation, please cite:

    Ville Havu, Volker Blum, Paula Havu, and Matthias Scheffler,
    'Efficient O(N) integration for all-electron electronic structure calculation'
    'using numerically tabulated basis functions'
    Journal of Computational Physics 228, 8367-8379 (2009).
    http://doi.org/10.1016/j.jcp.2009.08.008


  The high-level electronic structure method used in your calculation
  employed our efficient localized resolution of identity for the Coulomb operator.
  Some calculations, especially large-scale hybrid density functional theory,
  are only possible thanks to this development. For this feature, please cite:

    Arvid Ihrig, Juergen Wieferink, Igor Ying Zhang, Matti Ropo, Xinguo Ren,
    Patrick Rinke, Matthias Scheffler, and Volker Blum,
    'Accurate localized resolution of identity approach for linear-scaling
    hybrid density functionals and for many-body perturbation theory'
    New Journal of Physics 117, 093020 (2015).
    http://doi.org/10.1088/1367-2630/17/9/093020

  Of course, there are many other important community references, e.g., those cited in the
  above references. Our list is limited to references that describe implementations in the
  FHI-aims code. The reason is purely practical (length of this list) - please credit others as well.

------------------------------------------------------------
          Leaving FHI-aims.
          Date     :  20230120, Time     :  141620.443

          Computational steps:
          | Number of self-consistency cycles          :           48
          | Number of SCF (re)initializations          :            1
          | Number of coupled perturbed self-consistency cycles          :            0
          | Number of CPSCF (re)initializations          :            0

          Detailed time accounting                     :  max(cpu_time)    wall_clock(cpu1)
          | Total time                                  :     1574.350 s        1588.794 s
          | GPU initialization                          :        2.781 s          14.873 s
          | Preparation time                            :        0.091 s           0.083 s
          | Boundary condition initalization            :        1.022 s           1.023 s
          | Grid partitioning                           :        1.269 s           1.270 s
          | Preloading free-atom quantities on grid     :        3.975 s           3.977 s
          | Free-atom superposition energy              :        0.505 s           0.505 s
          | Total time for integrations                 :       24.574 s          25.392 s
          | Product basis setup: Total time             :        0.000 s           0.000 s
          | Product basis: | 2-center integrations     :(       0.000 s)  (       0.000 s)
          | Product basis: | LVL 3-center & coefficient:(       0.000 s)  (       0.000 s)
          | Total time for solution of K.-S. equations  :        3.835 s           3.836 s
          | Total time for density update               :       17.333 s          18.185 s
          | Total time for mixing & preconditioning     :       12.314 s          12.319 s
          | Total time for Hartree multipole update     :        0.091 s           0.089 s
          | Total time for Hartree multipole sum        :       43.967 s          43.981 s
          | Total time for total energy evaluation      :        0.006 s           0.002 s
          | Total time first_order_DM                   :        1.986 s           1.979 s
          | Total time first_order_density              :      327.836 s         327.899 s
          | Total time first_order_potential            :      130.680 s         130.709 s
          | Total time first_order_H                    :      625.631 s         625.791 s
          | Total time solving of Sternheimer equations :        1.902 s           1.903 s
          | Total time for dielectric constant          :        0.000 s           0.001 s
          | Total time momentum matrix                  :        0.000 s           0.000 s

          GPU acceleration has been used for charge density update.
          GPU acceleration has been used for real-space Hamiltonian integration.
          Due to GPU usage, wall_clock(cpu1) will give a more reliable estimate for timings.

          Partial memory accounting:
          | Residual value for overall tracked memory usage across tasks:     1.234863 MB (should be 0.000000 MB)
          |
          | Largest tracked array allocation:
          |   Minimum:      103.268 MB (DFPT_pulay_mixing::initialize_pulay_mixing::X_in_diffs on task  0)
          |   Maximum:      103.268 MB (DFPT_pulay_mixing::initialize_pulay_mixing::X_in_diffs on task  0)
          |   Average:      103.268 MB
          |
          | Because the residual tracked memory usage was not zero, the peak value for overall
          | tracked memory usage was not output, as it is probably incorrect.  This is likely due
          | to a missing aims_deallocate statement in the source code, which should be otherwise
          | harmless.
          |
          Note:  These values currently only include a subset of arrays which are explicitly tracked.
          The "true" memory usage will be greater.

          Have a nice day.
------------------------------------------------------------
