------------------------------------------------------------
          Invoking FHI-aims ...

          When using FHI-aims, please cite the following reference:

            Volker Blum, Ralf Gehrke, Felix Hanke, Paula Havu,
            Ville Havu, Xinguo Ren, Karsten Reuter, and Matthias Scheffler,
            'Ab Initio Molecular Simulations with Numeric Atom-Centered Orbitals',
            Computer Physics Communications 180, 2175-2196 (2009)

          In addition, many other developments in FHI-aims are likely important for
          your particular application. A partial list of references is given at the end of
          this file. Thank you for giving credit to the authors of these developments.

          For any questions about FHI-aims, please visit our slack channel at

            https://fhi-aims.slack.com

          and our main development and support site at

            https://aims-git.rz-berlin.mpg.de .

          The latter site, in particular, has a wiki to collect information, as well
          as an issue tracker to log discussions, suggest improvements, and report issues
          or bugs. https://aims-git.rz-berlin.mpg.de is also the main development site
          of the project and all new and updated code versions can be obtained there.
          Please send an email to aims-coordinators@fhi-berlin.mpg.de and we will add
          you to these sites. They are for you and everyone is welcome there.

------------------------------------------------------------



  Date     :  20230120, Time     :  170024.511
  Time zero on CPU 1             :   0.373162000000000E+00  s.
  Internal wall clock time zero  :           443466024.511  s.

  FHI-aims created a unique identifier for this run for later identification
  aims_uuid : B3DE0C29-B2B9-4BE7-A90E-CC52730B4FB1

  Build configuration of the current instance of FHI-aims
  -------------------------------------------------------
  FHI-aims version      : 220829
  Commit number         : 9895fc21d
  CMake host system     : Linux-5.3.18-150300.59.68-default
  CMake version         : 3.17.0
  Fortran compiler      : /mpcdf/soft/SLE_15/packages/x86_64/intel_oneapi/2021.3/mpi/2021.3.0/bin/mpiifort (Intel) version 20.2.3.20210609
  Fortran compiler flags: -O3 -ip -fp-model precise
  C compiler            : /mpcdf/soft/SLE_15/packages/x86_64/intel/2021.3.0/bin/icc (Intel) version 20.2.3.20210609
  C compiler flags      : -O3 -ip -fp-model precise -std=gnu99
  CUDA compiler         : /mpcdf/soft/SLE_15/packages/x86_64/cuda/11.6.2/bin/nvcc
  CUDA compiler flags   : -O3 -DAdd_ -lcublas
  ELPA2 kernel          : AVX512
  Using MPI
  Using ScaLAPACK
  Using LibXC
  Using CUDA
  Using i-PI
  Using RLSY
  Linking against: /mpcdf/soft/SLE_15/packages/x86_64/cuda/11.6.2/lib64/libcublas.so
                   /mpcdf/soft/SLE_15/packages/x86_64/cuda/11.6.2/lib64/libcudart.so
                   /mpcdf/soft/SLE_15/packages/x86_64/intel_oneapi/2021.3/mkl/latest/lib/intel64/libmkl_intel_lp64.so
                   /mpcdf/soft/SLE_15/packages/x86_64/intel_oneapi/2021.3/mkl/latest/lib/intel64/libmkl_sequential.so
                   /mpcdf/soft/SLE_15/packages/x86_64/intel_oneapi/2021.3/mkl/latest/lib/intel64/libmkl_core.so
                   /mpcdf/soft/SLE_15/packages/x86_64/intel_oneapi/2021.3/mkl/latest/lib/intel64/libmkl_blacs_intelmpi_lp64.so
                   /mpcdf/soft/SLE_15/packages/x86_64/intel_oneapi/2021.3/mkl/latest/lib/intel64/libmkl_scalapack_lp64.so

  Using       18 parallel tasks.
  Task        0 on host adag006 reporting.
  Task        1 on host adag006 reporting.
  Task        2 on host adag006 reporting.
  Task        3 on host adag006 reporting.
  Task        4 on host adag006 reporting.
  Task        5 on host adag006 reporting.
  Task        6 on host adag006 reporting.
  Task        7 on host adag006 reporting.
  Task        8 on host adag006 reporting.
  Task        9 on host adag006 reporting.
  Task       10 on host adag006 reporting.
  Task       11 on host adag006 reporting.
  Task       12 on host adag006 reporting.
  Task       13 on host adag006 reporting.
  Task       14 on host adag006 reporting.
  Task       15 on host adag006 reporting.
  Task       16 on host adag006 reporting.
  Task       17 on host adag006 reporting.

  Performing system and environment tests:
  | Environment variable OMP_NUM_THREADS correctly set to 1.
  | Checking for ScaLAPACK...
  | Testing pdtran()...
  | All pdtran() tests passed.

  Obtaining array dimensions for all initial allocations:
  
  -----------------------------------------------------------------------
  Parsing control.in (first pass over file, find array dimensions only).
  The contents of control.in will be repeated verbatim below
  unless switched off by setting 'verbatim_writeout .false.' .
  in the first line of control.in .
  -----------------------------------------------------------------------
  
  #
  # Input for polarizability replays on generic oligoacene molecular crystals (light settings,  LDA+MBD).
  #
  #########################################################################################
  #
  #  Physical model
  #
    xc                 pw-lda
    spin               none
    relativistic       none
    charge             0.0
    k_grid 	     2 1 1
    DFPT dielectric
  #
  #  GPU acceleration
  #
  # Turns on GPU acceleration everywhere
    use_gpu
  
  # Turns OFF GPU acceleration of ELPA - may be necessary if GPU ELPA is slow
    elsi_elpa_gpu 0
  #
  #  Relaxation
  #
  #  relax_geometry trm 1E-3
  #  relax_unit_cell fixed_angles
  #
  #  SCF convergence        #
    charge_mix_param   0.75
    #sc_accuracy_rho 1E-4
  #
  # i-PI communication
  #
  compute_forces .false.
  # use_pimd_wrapper 130.183.223.27 26118
  #communicate_pimd_wrapper polarizability
  #output_level MD_light
  #
  # Output SALTED info
    ri_density_restart write
    ri_rho1 write
    ri_full_output .true.
  #  sc_accuracy_rho    1d-6
    default_prodbas_acc 1e-6
    default_max_l_prodbas 6
  #
  #
  ################################################################################
  #
  #  FHI-aims code project
  #  VB, Fritz-Haber Institut, 2009
  #
  #  Suggested "light" defaults for H atom (to be pasted into control.in file)
  #  Be sure to double-check any results obtained with these settings for post-processing,
  #  e.g., with the "tight" defaults and larger basis sets.
  #
  ################################################################################
    species        H
  #     global species definitions
      nucleus             1
      mass                1.00794
  #
      l_hartree           4
  #
      cut_pot             3.5  1.5  1.0
      basis_dep_cutoff    1e-4
  #
      radial_base         24 5.0
      radial_multiplier   1
      angular_grids       specified
        division   0.2421   50
        division   0.3822  110
        division   0.4799  194
        division   0.5341  302
  #      division   0.5626  434
  #      division   0.5922  590
  #      division   0.6542  770
  #      division   0.6868 1202
  #      outer_grid  770
        outer_grid  302
  ################################################################################
  #
  #  Definition of "minimal" basis
  #
  ################################################################################
  #     valence basis states
      valence      1  s   1.
  #     ion occupancy
      ion_occ      1  s   0.5
  ################################################################################
  #
  #  Suggested additional basis functions. For production calculations,
  #  uncomment them one after another (the most important basis functions are
  #  listed first).
  #
  #  Basis constructed for dimers: 0.5 A, 0.7 A, 1.0 A, 1.5 A, 2.5 A
  #
  ################################################################################
  #  "First tier" - improvements: -1014.90 meV to -62.69 meV
       hydro 2 s 2.1
       hydro 2 p 3.5
  #  "Second tier" - improvements: -12.89 meV to -1.83 meV
  #     hydro 1 s 0.85
  #     hydro 2 p 3.7
  #     hydro 2 s 1.2
  #     hydro 3 d 7
  #  "Third tier" - improvements: -0.25 meV to -0.12 meV
  #     hydro 4 f 11.2
  #     hydro 3 p 4.8
  #     hydro 4 d 9
  #     hydro 3 s 3.2
  ################################################################################
  ################################################################################
  #
  #  FHI-aims code project
  #  VB, Fritz-Haber Institut, 2009
  #
  #  Suggested "light" defaults for C atom (to be pasted into control.in file)
  #  Be sure to double-check any results obtained with these settings for post-processing,
  #  e.g., with the "tight" defaults and larger basis sets.
  #
  ################################################################################
    species        C
  #     global species definitions
      nucleus             6
      mass                12.0107
  #
      l_hartree           4
  #
      cut_pot             3.5  1.5  1.0
      basis_dep_cutoff    1e-4
  #
      radial_base         34 5.0
      radial_multiplier   1
      angular_grids specified
        division   0.3326   50
        division   0.5710  110
        division   0.7727  194
        division   0.8772  302
  #      division   0.9334  434
  #      division   0.9625  590
  #      division   0.9924  770
  #      division   1.0230  974
  #      division   1.4589 1202
  #     outer_grid  974
       outer_grid 302
  ################################################################################
  #
  #  Definition of "minimal" basis
  #
  ################################################################################
  #     valence basis states
      valence      2  s   2.
      valence      2  p   2.
  #     ion occupancy
      ion_occ      2  s   1.
      ion_occ      2  p   1.
  ################################################################################
  #
  #  Suggested additional basis functions. For production calculations,
  #  uncomment them one after another (the most important basis functions are
  #  listed first).
  #
  #  Constructed for dimers: 1.0 A, 1.25 A, 1.5 A, 2.0 A, 3.0 A
  #
  ################################################################################
  #  "First tier" - improvements: -1214.57 meV to -155.61 meV
       hydro 2 p 1.7
       hydro 3 d 6
       hydro 2 s 4.9
  #  "Second tier" - improvements: -67.75 meV to -5.23 meV
  #     hydro 4 f 9.8
  #     hydro 3 p 5.2
  #     hydro 3 s 4.3
  #     hydro 5 g 14.4
  #     hydro 3 d 6.2
  #  "Third tier" - improvements: -2.43 meV to -0.60 meV
  #     hydro 2 p 5.6
  #     hydro 2 s 1.4
  #     hydro 3 d 4.9
  #     hydro 4 f 11.2
  #  "Fourth tier" - improvements: -0.39 meV to -0.18 meV
  #     hydro 2 p 2.1
  #     hydro 5 g 16.4
  #     hydro 4 d 13.2
  #     hydro 3 s 13.6
  #     hydro 4 f 17.6
  #  Further basis functions - improvements: -0.08 meV and below
  #     hydro 3 s 2
  #     hydro 3 p 6
  #     hydro 4 d 20
  
  -----------------------------------------------------------------------
  Completed first pass over input file control.in .
  -----------------------------------------------------------------------
  
  
  -----------------------------------------------------------------------
  Parsing geometry.in (first pass over file, find array dimensions only).
  The contents of geometry.in will be repeated verbatim below
  unless switched off by setting 'verbatim_writeout .false.' .
  in the first line of geometry.in .
  -----------------------------------------------------------------------
  
  #=======================================================
  # FHI-aims file: /ada/ptmp/mpsd/alewis/naphthalene/qmdata/data/geoms/406.in
  # Created using the Atomic Simulation Environment (ASE)
  # Thu Jan 19 15:19:17 2023
  #=======================================================
  lattice_vector 8.1020000000000003 0.0000000000000000 0.0000000000000000
  lattice_vector 0.0000000000000000 11.8800000000000008 0.0000000000000000
  lattice_vector -9.7850918486534706 0.0000000000000000 14.2571119625755713
  atom -0.9258310000000000 0.2227360000000000 2.4313600000000002 C
  atom 0.1106430000000000 3.1235300000000001 4.8018599999999996 C
  atom 4.2232900000000004 5.6695200000000003 4.7642600000000002 C
  atom 3.2627600000000001 2.9485299999999999 2.5065000000000000 C
  atom -0.1488440000000000 1.0202800000000001 1.6098399999999999 C
  atom -0.5091620000000000 4.0203699999999998 5.6267699999999996 C
  atom 3.4711599999999998 4.8644999999999996 5.6204299999999998 C
  atom 4.0115200000000000 2.0232700000000001 1.7863599999999999 C
  atom 0.1980180000000000 0.6238380000000000 0.2866220000000000 C
  atom -0.8604270000000001 3.6252599999999999 6.9587399999999997 C
  atom 3.1690299999999998 5.2768400000000000 6.9412799999999999 C
  atom 4.3841000000000001 2.3109799999999998 0.4371460000000000 C
  atom -3.7731699999999999 1.4613400000000001 6.6991699999999996 C
  atom 3.2007099999999999 4.5033700000000003 0.6158510000000000 C
  atom 7.2220800000000001 4.4919500000000001 0.6001140000000000 C
  atom 0.2529470000000000 1.4433199999999999 6.5755100000000004 C
  atom -3.3169400000000002 1.1259699999999999 5.4548399999999999 C
  atom 2.8346399999999998 4.1857600000000001 1.9212600000000000 C
  atom 6.8826700000000001 4.8386500000000003 1.8961600000000001 C
  atom 0.5493810000000000 1.8724000000000001 5.3067099999999998 C
  atom -1.1618200000000001 0.5853920000000000 3.4136600000000001 H
  atom 0.3991160000000000 3.4454699999999998 3.8000400000000001 H
  atom 4.3798399999999997 5.3273299999999999 3.7177500000000001 H
  atom 3.0474899999999998 2.7474699999999999 3.5563500000000001 H
  atom 0.2375230000000000 1.9645100000000000 1.9959499999999999 H
  atom -0.8162340000000000 5.0215699999999996 5.2483199999999997 H
  atom 3.0760900000000002 3.9022199999999998 5.2668299999999997 H
  atom 4.2999400000000003 1.0738700000000001 2.2317800000000001 H
  atom -3.4136799999999998 2.3719100000000002 7.2035200000000001 H
  atom 2.8472300000000001 5.4193499999999997 0.1130590000000000 H
  atom 6.9291000000000000 3.4997300000000000 0.1468500000000000 H
  atom 0.5833020000000000 0.4787610000000000 6.9402600000000003 H
  atom -2.6812399999999998 1.7875600000000000 4.8993200000000003 H
  atom 2.2050399999999999 4.8497500000000002 2.4966900000000001 H
  atom 6.2890499999999996 4.1102999999999996 2.4468500000000000 H
  atom 1.1389000000000000 1.1933499999999999 4.6585599999999996 H
  atom -5.8024600000000000 0.0639537000000000 9.4931900000000002 C
  atom -4.8555500000000000 2.8910399999999998 11.9725000000000001 C
  atom -0.5988190000000000 5.9399400000000000 12.0108999999999995 C
  atom -1.6555299999999999 2.7592300000000001 9.5568399999999993 C
  atom -5.0611300000000004 0.9307160000000000 8.7456399999999999 C
  atom -5.5551800000000000 3.7757000000000001 12.6999999999999993 C
  atom -1.3204199999999999 5.0493199999999998 12.7471999999999994 C
  atom -0.8505710000000000 1.9483500000000000 8.7558900000000008 C
  atom -4.6208999999999998 0.6172070000000000 7.4338800000000003 C
  atom -5.8504600000000000 3.5645300000000000 14.0801999999999996 C
  atom -1.7660499999999999 5.3529000000000000 14.0565999999999995 C
  atom -0.4797420000000000 2.3024800000000001 7.4422100000000002 C
  atom -8.7831600000000005 1.4417800000000001 13.6747999999999994 C
  atom -1.6228199999999999 4.4680600000000004 7.8075999999999999 C
  atom 2.3693800000000000 4.4697500000000003 7.7924199999999999 C
  atom -4.7095300000000000 1.3813400000000000 13.8768999999999991 C
  atom -8.4317100000000007 0.9933900000000000 12.3956000000000000 C
  atom -2.0377700000000001 4.0195900000000000 9.0770700000000009 C
  atom 2.0500500000000001 4.9286000000000003 9.0603800000000003 C
  atom -4.4230499999999999 1.6897899999999999 12.5717999999999996 C
  atom -6.1345099999999997 0.3057820000000000 10.5244000000000000 H
  atom -4.5026900000000003 3.1035100000000000 10.9572000000000003 H
  atom -0.3362210000000000 5.6157599999999999 11.0025999999999993 H
  atom -2.0030999999999999 2.3689100000000001 10.5025999999999993 H
  atom -4.8066100000000000 1.9066799999999999 9.1254500000000007 H
  atom -5.8089000000000004 4.7533099999999999 12.2665000000000006 H
  atom -1.5590400000000000 4.0711899999999996 12.3323999999999998 H
  atom -0.6127340000000000 0.9482159999999999 9.1061099999999993 H
  atom -8.4904299999999999 2.4345100000000000 14.0225000000000009 H
  atom -1.9998600000000000 5.3914099999999996 7.4020299999999999 H
  atom 1.9638599999999999 3.5099399999999998 7.4741099999999996 H
  atom -4.3730799999999999 0.4369920000000000 14.3308999999999997 H
  atom -7.8433799999999998 1.5993500000000000 11.6774000000000004 H
  atom -2.6572300000000002 4.6752700000000003 9.6954600000000006 H
  atom 1.4809200000000000 4.3016399999999999 9.7360199999999999 H
  atom -3.7671199999999998 1.0428800000000000 11.9621999999999993 H
  atom -0.7944630000000000 6.0861799999999997 2.4430700000000001 C
  atom 0.2957080000000000 9.1288199999999993 4.8596599999999999 C
  atom 4.3793199999999999 11.7847000000000008 4.8902900000000002 C
  atom 3.2298300000000002 9.0604600000000008 2.3528799999999999 C
  atom -0.1169880000000000 6.9792699999999996 1.6478400000000000 C
  atom -0.5248830000000000 9.8818199999999994 5.6391900000000001 C
  atom 3.5785000000000000 10.9169000000000000 5.5882199999999997 C
  atom 3.9773299999999998 8.1437299999999997 1.6490400000000001 C
  atom 0.2930920000000000 6.6412699999999996 0.3212790000000000 C
  atom -0.9038929999999999 9.4492200000000004 6.9549799999999999 C
  atom 3.1268400000000001 11.2263000000000002 6.8942500000000004 C
  atom 4.3171400000000002 8.4006900000000009 0.2955140000000000 C
  atom -3.7657900000000000 7.3837900000000003 6.4756499999999999 C
  atom 3.0705600000000000 10.5083000000000002 0.4158710000000000 C
  atom 7.0695399999999999 10.4259000000000004 0.6868890000000000 C
  atom 0.3784670000000000 7.4180299999999999 6.6488199999999997 C
  atom -3.4394800000000001 6.9309300000000000 5.2110599999999998 C
  atom 2.7543099999999998 10.2279000000000000 1.7342000000000000 C
  atom 6.7388399999999997 10.8475000000000001 1.9536700000000000 C
  atom 0.7619160000000000 7.8986499999999999 5.4032700000000000 C
  atom -1.0907000000000000 6.4149099999999999 3.4277400000000000 H
  atom 0.5249270000000000 9.3868200000000002 3.8345799999999999 H
  atom 4.6542300000000001 11.4760000000000009 3.8710200000000001 H
  atom 3.0815000000000001 8.8582500000000000 3.4204300000000001 H
  atom 0.1638370000000000 7.9559600000000001 2.0335200000000002 H
  atom -0.9304090000000000 10.8255999999999997 5.3002000000000002 H
  atom 3.2120299999999999 9.9720800000000001 5.1489500000000001 H
  atom 4.3190099999999996 7.2245200000000001 2.0948799999999999 H
  atom -3.4177100000000000 8.3589400000000005 6.8014599999999996 H
  atom 2.6391700000000000 11.3495000000000008 -0.0952797000000000 H
  atom 6.7199299999999997 9.4661000000000008 0.3302550000000000 H
  atom 0.7890700000000000 6.4714200000000002 6.9881099999999998 H
  atom -2.8399100000000002 7.5425199999999997 4.5268800000000002 H
  atom 2.1560500000000000 10.9092000000000002 2.3350300000000002 H
  atom 6.1529800000000003 10.2082999999999995 2.5834299999999999 H
  atom 1.5292600000000001 7.3368900000000004 4.8408699999999998 H
  atom -5.6222799999999999 6.2068399999999997 9.4950899999999994 C
  atom -4.7463800000000003 8.9749700000000008 11.8749000000000002 C
  atom -0.8627380000000000 11.6268999999999991 11.9524000000000008 C
  atom -1.6866300000000001 8.6018600000000003 9.5415700000000001 C
  atom -4.8445200000000002 7.0036199999999997 8.6810899999999993 C
  atom -5.5716099999999997 9.8425200000000004 12.5831000000000000 C
  atom -1.6444900000000000 10.8573000000000004 12.7774999999999999 C
  atom -0.8509920000000000 7.8220099999999997 8.7984899999999993 C
  atom -4.4825799999999996 6.5477299999999996 7.3799999999999999 C
  atom -5.8901000000000003 9.6168200000000006 13.9207000000000001 C
  atom -1.9403400000000000 11.2386999999999997 14.0809999999999995 C
  atom -0.4435890000000000 8.2079299999999993 7.4755599999999998 C
  atom -8.6920099999999998 7.5449799999999998 13.7988000000000000 C
  atom -1.7888400000000000 10.2249999999999996 7.7843999999999998 C
  atom 2.3691700000000000 10.3086000000000002 7.6794200000000004 C
  atom -4.6089900000000004 7.5554100000000002 13.8086000000000002 C
  atom -8.3378499999999995 7.2327300000000001 12.5108999999999995 C
  atom -2.1681300000000001 9.8389399999999991 9.0333299999999994 C
  atom 1.9727100000000000 10.6477000000000004 8.9499399999999998 C
  atom -4.2783100000000003 7.8060400000000003 12.4923000000000002 C
  atom -5.8833200000000003 6.5201099999999999 10.5105000000000004 H
  atom -4.4713300000000000 9.2046399999999995 10.8321000000000005 H
  atom -0.6984510000000000 11.2931000000000008 10.9461999999999993 H
  atom -2.0125700000000002 8.3061699999999998 10.5348000000000006 H
  atom -4.4827800000000000 8.0047700000000006 8.9740800000000007 H
  atom -5.9497600000000004 10.7787000000000006 12.0960000000000001 H
  atom -2.0849299999999999 9.9386899999999994 12.3125000000000000 H
  atom -0.5990120000000000 6.8072100000000004 9.1474499999999992 H
  atom -8.3640399999999993 8.4732000000000003 14.2472999999999992 H
  atom -2.2172800000000001 11.1302000000000003 7.3603300000000003 H
  atom 2.2191800000000002 9.3172800000000002 7.2684699999999998 H
  atom -4.2454599999999996 6.6715799999999996 14.3385999999999996 H
  atom -7.7890699999999997 7.9459400000000002 11.8627000000000002 H
  atom -2.8624999999999998 10.4482999999999997 9.6123200000000004 H
  atom 1.4725200000000001 9.9243400000000008 9.5819799999999997 H
  atom -3.6223900000000002 7.1407800000000003 11.9659999999999993 H
  
  -----------------------------------------------------------------------
  Completed first pass over input file geometry.in .
  -----------------------------------------------------------------------
  

  Basic array size parameters:
  | Number of species                 :        2
  | Number of atoms                   :      144
  | Number of lattice vectors         :        3
  | Max. basis fn. angular momentum   :        2
  | Max. atomic/ionic basis occupied n:        2
  | Max. number of basis fn. types    :        2
  | Max. radial fns per species/type  :        3
  | Max. logarithmic grid size        :     1277
  | Max. radial integration grid size :       34
  | Max. angular integration grid size:      302
  | Max. angular grid division number :        8
  | Radial grid for Hartree potential :     1277
  | Number of spin channels           :        1

------------------------------------------------------------
          Reading file control.in.
------------------------------------------------------------
  XC: Using Perdew-Wang parametrisation of Ceperley-Alder LDA.
  Spin treatment: No spin polarisation.
  Non-relativistic treatment of kinetic energy.
  Charge =   0.000000E+00: Neutral system requested explicitly.
  Found k-point grid:         2         1         1
  DFPT calculation will begin after the DFT/HF calculation.
  Charge density mixing - mixing parameter:     0.7500
  Forces will not be computed.
 
  Reading configuration options for species H                   .
  | Found nuclear charge :   1.0000
  | Found atomic mass :    1.00794000000000      amu
  | Found l_max for Hartree potential  :   4
  | Found cutoff potl. onset [A], width [A], scale factor :    3.50000    1.50000    1.00000
  | Threshold for basis-dependent cutoff potential is   0.100000E-03
  | Found data for basic radial integration grid :    24 points, outermost radius =    5.000 A
  | Found multiplier for basic radial grid :   1
  | Found angular grid specification: user-specified.
  | Specified grid contains     5 separate shells.
  | Check grid settings after all constraints further below.
  | Found free-atom valence shell :  1 s   1.000
  | No ionic wave fns used. Skipping ion_occ.
  | Found hydrogenic basis function :  2 s   2.100
  | Found hydrogenic basis function :  2 p   3.500
  Species H                   : Missing cutoff potential type.
  Defaulting to exp(1/x)/(1-x)^2 type cutoff potential.
  Species H : No 'logarithmic' tag. Using default grid for free atom:
  | Default logarithmic grid data [bohr] : 0.1000E-03 0.1000E+03 0.1012E+01
  Species H : On-site basis accuracy parameter (for Gram-Schmidt orthonormalisation) not specified.
  Using default value basis_acc =  0.1000000E-03.
  Species H                   : Using default innermost maximum threshold i_radial=  2 for radial functions.
  Species H                   : Default cutoff onset for free atom density etc. : 0.35000000E+01 AA.
  Species H                   : Basic radial grid will be enhanced according to radial_multiplier =   1, to contain    24 grid points.
 
  Reading configuration options for species C                   .
  | Found nuclear charge :   6.0000
  | Found atomic mass :    12.0107000000000      amu
  | Found l_max for Hartree potential  :   4
  | Found cutoff potl. onset [A], width [A], scale factor :    3.50000    1.50000    1.00000
  | Threshold for basis-dependent cutoff potential is   0.100000E-03
  | Found data for basic radial integration grid :    34 points, outermost radius =    5.000 A
  | Found multiplier for basic radial grid :   1
  | Found angular grid specification: user-specified.
  | Specified grid contains     5 separate shells.
  | Check grid settings after all constraints further below.
  | Found free-atom valence shell :  2 s   2.000
  | Found free-atom valence shell :  2 p   2.000
  | No ionic wave fns used. Skipping ion_occ.
  | No ionic wave fns used. Skipping ion_occ.
  | Found hydrogenic basis function :  2 p   1.700
  | Found hydrogenic basis function :  3 d   6.000
  | Found hydrogenic basis function :  2 s   4.900
  Species C                   : Missing cutoff potential type.
  Defaulting to exp(1/x)/(1-x)^2 type cutoff potential.
  Species C : No 'logarithmic' tag. Using default grid for free atom:
  | Default logarithmic grid data [bohr] : 0.1000E-03 0.1000E+03 0.1012E+01
  Species C : On-site basis accuracy parameter (for Gram-Schmidt orthonormalisation) not specified.
  Using default value basis_acc =  0.1000000E-03.
  Species C                   : Using default innermost maximum threshold i_radial=  2 for radial functions.
  Species C                   : Default cutoff onset for free atom density etc. : 0.35000000E+01 AA.
  Species C                   : Basic radial grid will be enhanced according to radial_multiplier =   1, to contain    34 grid points.
 
  Finished reading input file 'control.in'.
 
------------------------------------------------------------


------------------------------------------------------------
          Reading geometry description geometry.in.
------------------------------------------------------------
  | The smallest distance between any two atoms is         1.07163718 AA.
  | The first atom of this pair is atom number                     91 .
  | The second atom of this pair is atom number                   107 .
  | Wigner-Seitz cell of the first atom image           0     0     0 .
  | (The Wigner-Seitz cell of the second atom is 0 0 0  by definition.)

  Symmetry information by spglib:
  | Precision set to  0.1E-04
  | Number of Operations  : 1
  | Space group           : 1
  | International         : P1
  | Schoenflies           : C1^1
  Input structure read successfully.
  The structure contains      144 atoms,  and a total of        544.000 electrons.

  Input geometry:
  | Unit cell:
  |        8.10200000        0.00000000        0.00000000
  |        0.00000000       11.88000000        0.00000000
  |       -9.78509185        0.00000000       14.25711196
  | Atomic structure:
  |       Atom                x [A]            y [A]            z [A]
  |    1: Species C            -0.92583100        0.22273600        2.43136000
  |    2: Species C             0.11064300        3.12353000        4.80186000
  |    3: Species C             4.22329000        5.66952000        4.76426000
  |    4: Species C             3.26276000        2.94853000        2.50650000
  |    5: Species C            -0.14884400        1.02028000        1.60984000
  |    6: Species C            -0.50916200        4.02037000        5.62677000
  |    7: Species C             3.47116000        4.86450000        5.62043000
  |    8: Species C             4.01152000        2.02327000        1.78636000
  |    9: Species C             0.19801800        0.62383800        0.28662200
  |   10: Species C            -0.86042700        3.62526000        6.95874000
  |   11: Species C             3.16903000        5.27684000        6.94128000
  |   12: Species C             4.38410000        2.31098000        0.43714600
  |   13: Species C            -3.77317000        1.46134000        6.69917000
  |   14: Species C             3.20071000        4.50337000        0.61585100
  |   15: Species C             7.22208000        4.49195000        0.60011400
  |   16: Species C             0.25294700        1.44332000        6.57551000
  |   17: Species C            -3.31694000        1.12597000        5.45484000
  |   18: Species C             2.83464000        4.18576000        1.92126000
  |   19: Species C             6.88267000        4.83865000        1.89616000
  |   20: Species C             0.54938100        1.87240000        5.30671000
  |   21: Species H            -1.16182000        0.58539200        3.41366000
  |   22: Species H             0.39911600        3.44547000        3.80004000
  |   23: Species H             4.37984000        5.32733000        3.71775000
  |   24: Species H             3.04749000        2.74747000        3.55635000
  |   25: Species H             0.23752300        1.96451000        1.99595000
  |   26: Species H            -0.81623400        5.02157000        5.24832000
  |   27: Species H             3.07609000        3.90222000        5.26683000
  |   28: Species H             4.29994000        1.07387000        2.23178000
  |   29: Species H            -3.41368000        2.37191000        7.20352000
  |   30: Species H             2.84723000        5.41935000        0.11305900
  |   31: Species H             6.92910000        3.49973000        0.14685000
  |   32: Species H             0.58330200        0.47876100        6.94026000
  |   33: Species H            -2.68124000        1.78756000        4.89932000
  |   34: Species H             2.20504000        4.84975000        2.49669000
  |   35: Species H             6.28905000        4.11030000        2.44685000
  |   36: Species H             1.13890000        1.19335000        4.65856000
  |   37: Species C            -5.80246000        0.06395370        9.49319000
  |   38: Species C            -4.85555000        2.89104000       11.97250000
  |   39: Species C            -0.59881900        5.93994000       12.01090000
  |   40: Species C            -1.65553000        2.75923000        9.55684000
  |   41: Species C            -5.06113000        0.93071600        8.74564000
  |   42: Species C            -5.55518000        3.77570000       12.70000000
  |   43: Species C            -1.32042000        5.04932000       12.74720000
  |   44: Species C            -0.85057100        1.94835000        8.75589000
  |   45: Species C            -4.62090000        0.61720700        7.43388000
  |   46: Species C            -5.85046000        3.56453000       14.08020000
  |   47: Species C            -1.76605000        5.35290000       14.05660000
  |   48: Species C            -0.47974200        2.30248000        7.44221000
  |   49: Species C            -8.78316000        1.44178000       13.67480000
  |   50: Species C            -1.62282000        4.46806000        7.80760000
  |   51: Species C             2.36938000        4.46975000        7.79242000
  |   52: Species C            -4.70953000        1.38134000       13.87690000
  |   53: Species C            -8.43171000        0.99339000       12.39560000
  |   54: Species C            -2.03777000        4.01959000        9.07707000
  |   55: Species C             2.05005000        4.92860000        9.06038000
  |   56: Species C            -4.42305000        1.68979000       12.57180000
  |   57: Species H            -6.13451000        0.30578200       10.52440000
  |   58: Species H            -4.50269000        3.10351000       10.95720000
  |   59: Species H            -0.33622100        5.61576000       11.00260000
  |   60: Species H            -2.00310000        2.36891000       10.50260000
  |   61: Species H            -4.80661000        1.90668000        9.12545000
  |   62: Species H            -5.80890000        4.75331000       12.26650000
  |   63: Species H            -1.55904000        4.07119000       12.33240000
  |   64: Species H            -0.61273400        0.94821600        9.10611000
  |   65: Species H            -8.49043000        2.43451000       14.02250000
  |   66: Species H            -1.99986000        5.39141000        7.40203000
  |   67: Species H             1.96386000        3.50994000        7.47411000
  |   68: Species H            -4.37308000        0.43699200       14.33090000
  |   69: Species H            -7.84338000        1.59935000       11.67740000
  |   70: Species H            -2.65723000        4.67527000        9.69546000
  |   71: Species H             1.48092000        4.30164000        9.73602000
  |   72: Species H            -3.76712000        1.04288000       11.96220000
  |   73: Species C            -0.79446300        6.08618000        2.44307000
  |   74: Species C             0.29570800        9.12882000        4.85966000
  |   75: Species C             4.37932000       11.78470000        4.89029000
  |   76: Species C             3.22983000        9.06046000        2.35288000
  |   77: Species C            -0.11698800        6.97927000        1.64784000
  |   78: Species C            -0.52488300        9.88182000        5.63919000
  |   79: Species C             3.57850000       10.91690000        5.58822000
  |   80: Species C             3.97733000        8.14373000        1.64904000
  |   81: Species C             0.29309200        6.64127000        0.32127900
  |   82: Species C            -0.90389300        9.44922000        6.95498000
  |   83: Species C             3.12684000       11.22630000        6.89425000
  |   84: Species C             4.31714000        8.40069000        0.29551400
  |   85: Species C            -3.76579000        7.38379000        6.47565000
  |   86: Species C             3.07056000       10.50830000        0.41587100
  |   87: Species C             7.06954000       10.42590000        0.68688900
  |   88: Species C             0.37846700        7.41803000        6.64882000
  |   89: Species C            -3.43948000        6.93093000        5.21106000
  |   90: Species C             2.75431000       10.22790000        1.73420000
  |   91: Species C             6.73884000       10.84750000        1.95367000
  |   92: Species C             0.76191600        7.89865000        5.40327000
  |   93: Species H            -1.09070000        6.41491000        3.42774000
  |   94: Species H             0.52492700        9.38682000        3.83458000
  |   95: Species H             4.65423000       11.47600000        3.87102000
  |   96: Species H             3.08150000        8.85825000        3.42043000
  |   97: Species H             0.16383700        7.95596000        2.03352000
  |   98: Species H            -0.93040900       10.82560000        5.30020000
  |   99: Species H             3.21203000        9.97208000        5.14895000
  |  100: Species H             4.31901000        7.22452000        2.09488000
  |  101: Species H            -3.41771000        8.35894000        6.80146000
  |  102: Species H             2.63917000       11.34950000       -0.09527970
  |  103: Species H             6.71993000        9.46610000        0.33025500
  |  104: Species H             0.78907000        6.47142000        6.98811000
  |  105: Species H            -2.83991000        7.54252000        4.52688000
  |  106: Species H             2.15605000       10.90920000        2.33503000
  |  107: Species H             6.15298000       10.20830000        2.58343000
  |  108: Species H             1.52926000        7.33689000        4.84087000
  |  109: Species C            -5.62228000        6.20684000        9.49509000
  |  110: Species C            -4.74638000        8.97497000       11.87490000
  |  111: Species C            -0.86273800       11.62690000       11.95240000
  |  112: Species C            -1.68663000        8.60186000        9.54157000
  |  113: Species C            -4.84452000        7.00362000        8.68109000
  |  114: Species C            -5.57161000        9.84252000       12.58310000
  |  115: Species C            -1.64449000       10.85730000       12.77750000
  |  116: Species C            -0.85099200        7.82201000        8.79849000
  |  117: Species C            -4.48258000        6.54773000        7.38000000
  |  118: Species C            -5.89010000        9.61682000       13.92070000
  |  119: Species C            -1.94034000       11.23870000       14.08100000
  |  120: Species C            -0.44358900        8.20793000        7.47556000
  |  121: Species C            -8.69201000        7.54498000       13.79880000
  |  122: Species C            -1.78884000       10.22500000        7.78440000
  |  123: Species C             2.36917000       10.30860000        7.67942000
  |  124: Species C            -4.60899000        7.55541000       13.80860000
  |  125: Species C            -8.33785000        7.23273000       12.51090000
  |  126: Species C            -2.16813000        9.83894000        9.03333000
  |  127: Species C             1.97271000       10.64770000        8.94994000
  |  128: Species C            -4.27831000        7.80604000       12.49230000
  |  129: Species H            -5.88332000        6.52011000       10.51050000
  |  130: Species H            -4.47133000        9.20464000       10.83210000
  |  131: Species H            -0.69845100       11.29310000       10.94620000
  |  132: Species H            -2.01257000        8.30617000       10.53480000
  |  133: Species H            -4.48278000        8.00477000        8.97408000
  |  134: Species H            -5.94976000       10.77870000       12.09600000
  |  135: Species H            -2.08493000        9.93869000       12.31250000
  |  136: Species H            -0.59901200        6.80721000        9.14745000
  |  137: Species H            -8.36404000        8.47320000       14.24730000
  |  138: Species H            -2.21728000       11.13020000        7.36033000
  |  139: Species H             2.21918000        9.31728000        7.26847000
  |  140: Species H            -4.24546000        6.67158000       14.33860000
  |  141: Species H            -7.78907000        7.94594000       11.86270000
  |  142: Species H            -2.86250000       10.44830000        9.61232000
  |  143: Species H             1.47252000        9.92434000        9.58198000
  |  144: Species H            -3.62239000        7.14078000       11.96600000

  Lattice parameters for 3D lattice (in Angstroms) :     8.102000   11.880000   17.292000
  Angle(s) between unit vectors (in degrees)       :    90.000000  124.463000   90.000000


  Quantities derived from the lattice vectors (in Angstrom^-1):
  | Reciprocal lattice vector 1:  0.775510  0.000000  0.532257
  | Reciprocal lattice vector 2:  0.000000  0.528888  0.000000
  | Reciprocal lattice vector 3: -0.000000  0.000000  0.440705
  | Unit cell volume                               :   0.137227E+04  Angstrom^3

  Fractional coordinates:
                         L1                L2                L3
       atom_frac         0.09169164        0.01874882        0.17053664  C
       atom_frac         0.42042784        0.26292340        0.33680454  C
       atom_frac         0.92485156        0.47723232        0.33416726  C
       atom_frac         0.61503920        0.24819276        0.17580699  C
       atom_frac         0.11800030        0.08588215        0.11291487  C
       atom_frac         0.41380675        0.33841498        0.39466408  C
       atom_frac         0.90454616        0.40946970        0.39421939  C
       atom_frac         0.64645192        0.17030892        0.12529606  C
       atom_frac         0.04872074        0.05251162        0.02010379  C
       atom_frac         0.48328425        0.30515657        0.48808903  C
       atom_frac         0.97914622        0.44417845        0.48686438  C
       atom_frac         0.57814449        0.19452694        0.03066161  C
       atom_frac         0.10178662        0.12300842        0.46988268  C
       atom_frac         0.44722135        0.37907155        0.04319606  C
       atom_frac         0.94223113        0.37811027        0.04209226  C
       atom_frac         0.58824001        0.12149158        0.46120912  C
       atom_frac         0.05268865        0.09477862        0.38260484  C
       atom_frac         0.51262151        0.35233670        0.13475801  C
       atom_frac         1.01012868        0.40729377        0.13299748  C
       atom_frac         0.51734613        0.15760943        0.37221493  C
       atom_frac         0.14577626        0.04927542        0.23943559  H
       atom_frac         0.37116757        0.29002273        0.26653645  H
       atom_frac         0.85552277        0.44842845        0.26076459  H
       atom_frac         0.67740333        0.23126852        0.24944393  H
       atom_frac         0.19839601        0.16536279        0.13999680  H
       atom_frac         0.34384701        0.42269108        0.36811943  H
       atom_frac         0.82583022        0.32846970        0.36941773  H
       atom_frac         0.71978263        0.09039310        0.15653801  H
       atom_frac         0.18888127        0.19965572        0.50525801  H
       atom_frac         0.36100048        0.45617424        0.00793001  H
       atom_frac         0.86767312        0.29459007        0.01030012  H
       atom_frac         0.65991294        0.04029975        0.48679284  H
       atom_frac         0.08409197        0.15046801        0.34364042  H
       atom_frac         0.48365770        0.40822811        0.17511892  H
       atom_frac         0.98350999        0.34598485        0.17162312  H
       atom_frac         0.53520269        0.10045034        0.32675341  H
       atom_frac         0.08800377        0.00538331        0.66585645  C
       atom_frac         0.41490284        0.24335354        0.83975633  C
       atom_frac         0.94354837        0.49999495        0.84244972  C
       atom_frac         0.60523593        0.23225842        0.67032089  C
       atom_frac         0.11617750        0.07834310        0.61342297  C
       atom_frac         0.39017752        0.31781987        0.89078349  C
       atom_frac         0.91685671        0.42502694        0.89409412  C
       atom_frac         0.63673957        0.16400253        0.61414191  C
       atom_frac         0.05939264        0.05195345        0.52141556  C
       atom_frac         0.47065067        0.30004461        0.98759132  C
       atom_frac         0.97277516        0.45058081        0.98593600  C
       atom_frac         0.57122615        0.19381145        0.52199983  C
       atom_frac         0.07433638        0.12136195        0.95915639  C
       atom_frac         0.46109289        0.37609933        0.54762844  C
       atom_frac         0.95254951        0.37624158        0.54656371  C
       atom_frac         0.59424966        0.11627441        0.97333177  C
       atom_frac         0.00935192        0.08361869        0.86943275  C
       atom_frac         0.51741554        0.33834933        0.63666962  C
       atom_frac         1.02054626        0.41486532        0.63549897  C
       atom_frac         0.51905217        0.14223822        0.88179149  C
       atom_frac         0.13437515        0.02573923        0.73818597  H
       atom_frac         0.37244771        0.26123822        0.76854275  H
       atom_frac         0.89054552        0.47270707        0.77172712  H
       atom_frac         0.64245316        0.19940320        0.73665691  H
       atom_frac         0.17976615        0.16049495        0.64006301  H
       atom_frac         0.32213947        0.40011027        0.86037762  H
       atom_frac         0.85226650        0.34269276        0.86499987  H
       atom_frac         0.69576249        0.07981616        0.63870649  H
       atom_frac         0.13992107        0.20492508        0.98354422  H
       atom_frac         0.38019989        0.45382239        0.51918159  H
       atom_frac         0.87553323        0.29544949        0.52423731  H
       atom_frac         0.67423535        0.03678384        1.00517552  H
       atom_frac         0.02112770        0.13462542        0.81905789  H
       atom_frac         0.49334246        0.39354125        0.68004376  H
       atom_frac         1.00753495        0.36209091        0.68288865  H
       atom_frac         0.54837122        0.08778451        0.83903388  H
       atom_frac         0.10889788        0.51230471        0.17135799  C
       atom_frac         0.44816604        0.76841919        0.34085865  C
       atom_frac         0.95478592        0.99197811        0.34300706  C
       atom_frac         0.59796143        0.76266498        0.16503202  C
       atom_frac         0.12515119        0.58748064        0.11558021  C
       atom_frac         0.41291848        0.83180303        0.39553523  C
       atom_frac         0.91506619        0.91893098        0.39196017  C
       atom_frac         0.63059943        0.68549916        0.11566438  C
       atom_frac         0.06339121        0.55902946        0.02253465  C
       atom_frac         0.47760089        0.79538889        0.48782531  C
       atom_frac         0.96995490        0.94497475        0.48356568  C
       atom_frac         0.55788204        0.70712879        0.02072748  C
       atom_frac         0.08376285        0.62153114        0.45420489  C
       atom_frac         0.41421686        0.88453704        0.02916937  C
       atom_frac         0.93075450        0.87760101        0.04817869  C
       atom_frac         0.60994266        0.62441330        0.46635111  C
       atom_frac         0.01691308        0.58341162        0.36550600  C
       atom_frac         0.48686059        0.86093434        0.12163754  C
       atom_frac         0.99724802        0.91308923        0.13703126  C
       atom_frac         0.55175826        0.66486953        0.37898769  C
       atom_frac         0.15574707        0.53997559        0.24042317  H
       atom_frac         0.38962188        0.79013636        0.26895910  H
       atom_frac         0.90237341        0.96599327        0.27151502  H
       atom_frac         0.67008710        0.74564394        0.23991044  H
       atom_frac         0.19248383        0.66969360        0.14263197  H
       atom_frac         0.33414963        0.91124579        0.37175832  H
       atom_frac         0.83262303        0.83940067        0.36114958  H
       atom_frac         0.71053940        0.60812458        0.14693579  H
       atom_frac         0.15432485        0.70361448        0.47705735  H
       atom_frac         0.31767176        0.95534512       -0.00668296  H
       atom_frac         0.85739251        0.79680976        0.02316423  H
       atom_frac         0.68936356        0.54473232        0.49014906  H
       atom_frac         0.03295805        0.63489226        0.31751732  H
       atom_frac         0.46391662        0.91828283        0.16378001  H
       atom_frac         0.97828524        0.85928451        0.18120290  H
       atom_frac         0.59882709        0.61758333        0.33954072  H
       atom_frac         0.11040368        0.52246128        0.66598972  C
       atom_frac         0.42010947        0.75546886        0.83291062  C
       atom_frac         0.90601821        0.97869529        0.83834651  C
       atom_frac         0.60010383        0.72406229        0.66924985  C
       atom_frac         0.13744477        0.58953030        0.60889541  C
       atom_frac         0.37824688        0.82849495        0.88258408  C
       atom_frac         0.87942470        0.91391414        0.89621938  C
       atom_frac         0.64029631        0.65841835        0.61712989  C
       atom_frac         0.07190072        0.55115572        0.51763639  C
       atom_frac         0.45224661        0.80949663        0.97640392  C
       atom_frac         0.95333014        0.94601852        0.98764743  C
       atom_frac         0.57851350        0.69090320        0.52433901  C
       atom_frac         0.09609088        0.63509933        0.96785380  C
       atom_frac         0.43863635        0.86069024        0.54600118  C
       atom_frac         0.94295121        0.86772727        0.53863784  C
       atom_frac         0.60087316        0.63597727        0.96854118  C
       atom_frac         0.03070392        0.60881566        0.87751994  C
       atom_frac         0.49762041        0.82819360        0.63360167  C
       atom_frac         1.00164496        0.89627104        0.62775266  C
       atom_frac         0.53018235        0.65707407        0.87621533  C
       atom_frac         0.16420112        0.54883081        0.73721102  H
       atom_frac         0.36572098        0.77480135        0.75976818  H
       atom_frac         0.84105909        0.95059764        0.76777120  H
       atom_frac         0.64401201        0.69917256        0.73891543  H
       atom_frac         0.20691255        0.67380219        0.62944585  H
       atom_frac         0.29031037        0.90729798        0.84841867  H
       atom_frac         0.78567208        0.83659007        0.86360408  H
       atom_frac         0.70095811        0.57299747        0.64160610  H
       atom_frac         0.17456401        0.71323232        0.99931178  H
       atom_frac         0.34983208        0.93688552        0.51625673  H
       atom_frac         0.88962641        0.78428283        0.50981363  H
       atom_frac         0.69063930        0.56158081        1.00571561  H
       atom_frac         0.04352798        0.66885017        0.83205491  H
       atom_frac         0.46096385        0.87948653        0.67421228  H
       atom_frac         0.99344925        0.83538215        0.67208422  H
       atom_frac         0.56655661        0.60107576        0.83930042  H

 
  Finished reading input file 'geometry.in'.
 

 
  Consistency checks for stacksize environment parameter are next.
 
  | Maximum stacksize for task 0: unlimited
  | Maximum stacksize for task 1: unlimited
  | Maximum stacksize for task 2: unlimited
  | Maximum stacksize for task 3: unlimited
  | Maximum stacksize for task 4: unlimited
  | Maximum stacksize for task 5: unlimited
  | Maximum stacksize for task 6: unlimited
  | Maximum stacksize for task 7: unlimited
  | Maximum stacksize for task 8: unlimited
  | Maximum stacksize for task 9: unlimited
  | Maximum stacksize for task 10: unlimited
  | Maximum stacksize for task 11: unlimited
  | Maximum stacksize for task 12: unlimited
  | Maximum stacksize for task 13: unlimited
  | Maximum stacksize for task 14: unlimited
  | Maximum stacksize for task 15: unlimited
  | Maximum stacksize for task 16: unlimited
  | Maximum stacksize for task 17: unlimited
  | Current stacksize for task 0: unlimited
  | Current stacksize for task 1: unlimited
  | Current stacksize for task 2: unlimited
  | Current stacksize for task 3: unlimited
  | Current stacksize for task 4: unlimited
  | Current stacksize for task 5: unlimited
  | Current stacksize for task 6: unlimited
  | Current stacksize for task 7: unlimited
  | Current stacksize for task 8: unlimited
  | Current stacksize for task 9: unlimited
  | Current stacksize for task 10: unlimited
  | Current stacksize for task 11: unlimited
  | Current stacksize for task 12: unlimited
  | Current stacksize for task 13: unlimited
  | Current stacksize for task 14: unlimited
  | Current stacksize for task 15: unlimited
  | Current stacksize for task 16: unlimited
  | Current stacksize for task 17: unlimited
 
  Consistency checks for the contents of control.in are next.
 
  MPI_IN_PLACE appears to work with this MPI implementation.
  | Keeping use_mpi_in_place .true. (see manual).
  Explicit treatment of the Coulomb operator is needed, but the RI method is not specified.
  Coulomb operator: Defaulting to 'LVL fast' resolution of identity - RI_type = LVL_fast
  Species H: Using default value for prodbas_acc =   1.000000E-06.
  Species H: Using default value max_l_prodbas =     6.
  Species C: Using default value for prodbas_acc =   1.000000E-06.
  Species C: Using default value max_l_prodbas =     6.
  Target number of points in a grid batch is not set.  Since GPU acceleration is enabled, defaulting to  200
  Method for grid partitioning is not set. Defaulting to parallel hash+maxmin partitioning.
  Batch size limit is not set. Defaulting to    200
  By default, will store active basis functions for each batch.
  If in need of memory, prune_basis_once .false. can be used to disable this option.
  communication_type for Hartree potential was not specified.
  Defaulting to calc_hartree .
  Defaulting to Pulay charge density mixer.
  Pulay mixer: Number of relevant iterations not set.
  Defaulting to    8 iterations.
  Pulay mixer: Number of initial linear mixing iterations not set.
  Defaulting to    0 iterations.
  Work space size for distributed Hartree potential not set.
  Defaulting to   0.200000E+03 MB.
  Algorithm-dependent basis array size parameters:
  | n_max_pulay                         :        8
  Maximum number of self-consistency iterations not provided.
  Presetting  1000 iterations.
  Presetting      1001 iterations before the initial mixing cycle
  is restarted anyway using the sc_init_iter criterion / keyword.
  Presetting a factor      1.000 between actual scf density residual
  and density convergence criterion sc_accuracy_rho below which sc_init_iter
  takes no effect.
 * No s.c.f. convergence criteria (sc_accuracy_*) were provided in control.in.
 * The run will proceed with a reasonable default guess, but please check whether.
 * the s.c.f. cycles seem to take too much or too little time.
  Geometry relaxation not requested: no relaxation will be performed.
 * Notice: The s.c.f. convergence criterion sc_accuracy_rho was not provided.
 * We used to stop in this case, and ask the user to provide reasonable
 * scf convergence criteria. However, this led some users to employ criteria
 * that led to extremely long run times, e.g., for simple relaxation.
 * We now preset a default value for sc_accuracy_rho if it is not set.
 * You may still wish to check if this setting is too tight or too loose for your needs.
 * Based on n_atoms and forces and force-correction status, FHI-aims chose sc_accuracy_rho =  0.391918E-04 .
  No accuracy limit for integral partition fn. given. Defaulting to  0.1000E-14.
  No threshold value for u(r) in integrations given. Defaulting to  0.1000E-05.
  No occupation type (smearing scheme) given. Defaulting to Gaussian broadening, width =  0.1000E-01 eV.
  The width will be adjusted in iteration number     2 of the first full s.c.f. cycle only.
  S.C.F. convergence parameters will be adjusted in iteration number     2 of the first full s.c.f. cycle only.
  No accuracy for occupation numbers given. Defaulting to  0.1000E-12.
  No threshold value for occupation numbers given. Defaulting to  0.0000E+00.
  No accuracy for fermi level given. Defaulting to  0.1000E-19.
  Maximum # of iterations to find E_F not set. Defaulting to  200.
  Preferred method for the eigenvalue solver ('KS_method') not specified in 'control.in'.
  Calling BLACS routine to test compilation state
  Since ScaLAPACK support is enabled, defaulting to ELPA (via ELSI).
  Will not use alltoall communication since running on < 1024 CPUs.
  Threshold for basis singularities not set.
  Default threshold for basis singularities:  0.1000E-04
  partition_type (choice of integration weights) for integrals was not specified.
  | Using a version of the partition function of Stratmann and coworkers ('stratmann_sparse').
  | At each grid point, the set of atoms used to build the partition table is smoothly restricted to
  | only those atoms whose free-atom density would be non-zero at that grid point.
  Partitioning for Hartree potential was not defined. Using partition_type for integrals.
  | Adjusted default value of keyword multip_moments_threshold to:       0.10000000E-11
  | This value may affect high angular momentum components of the Hartree potential in periodic systems.
  Angular momentum expansion for Kerker preconditioner not set explicitly.
  | Using default value of   0
  No explicit requirement for turning off preconditioner.
  | By default, it will be turned off when the charge convergence reaches
  | sc_accuracy_rho  =   0.391918E-04
  No special mixing parameter while Kerker preconditioner is on.
  Using default: charge_mix_param =     0.7500.
  Threshold for auxiliary basis singularities not set.
  Default threshold for auxiliary basis singularities:  0.1000E-04
  No q(lm)/r^(l+1) cutoff set for long-range Hartree potential.
  | Using default value of  0.100000E-09 .
  | Verify using the multipole_threshold keyword.
  Defaulting to new monopole extrapolation.
  Density update method: automatic selection selected.
  Using density matrix based charge density update.
  Using density matrix based charge density update.
  Using packed matrix style: index .
  Defaulting to use time-reversal symmetry for k-point grid.
  Charge integration errors on the 3D integration grid will be compensated
  by explicit normalization and distribution of residual charges.
  Use the "compensate_multipole_errors" flag to change this behaviour.
  Default to 1D ("use_logsbt") integrations for auxiliary 2-center integrals.
  Default onset of logarithmic r-grid for SBT is -38.000000000000
  Default onset of logarithmic k-grid for SBT is -25.000000000000
  Default range of logarithmic r- and k-grid for SBT is  45.000000000000
  Default number of logarithmic r- and k-grid for SBT is   4096
  Default of use_2d_corr is to use the efficient 2D distribution where possible
 
  Consistency checks for the contents of geometry.in are next.
 

  Range separation radius for Ewald summation (hartree_convergence_parameter):      2.91768261 bohr.
  Number of empty states per atom not set in control.in .
  | Since you are using a method that relies on the unoccupied spectrum
  | (MP2,GW,RPA et al.), will use the full Hamiltonian size (see below)
  | as the max. possible number of states (occupied plus empty).

  Structure-dependent array size parameters: 
  | Maximum number of distinct radial functions  :        9
  | Maximum number of basis functions            :     1440
  | Number of Kohn-Sham states (occupied + empty):     1440
------------------------------------------------------------
CUDA runtime version: 11060
CUDA driver version: 11060
  Initializing GPUs...

  Number of GPUs available to MPI task         0 :   1
  Number of GPUs available to MPI task         1 :   1
  Number of GPUs available to MPI task         2 :   1
  Number of GPUs available to MPI task         3 :   1
  Number of GPUs available to MPI task         4 :   1
  Number of GPUs available to MPI task         5 :   1
  Number of GPUs available to MPI task         6 :   1
  Number of GPUs available to MPI task         7 :   1
  Number of GPUs available to MPI task         8 :   1
  Number of GPUs available to MPI task         9 :   1
  Number of GPUs available to MPI task        10 :   1
  Number of GPUs available to MPI task        11 :   1
  Number of GPUs available to MPI task        12 :   1
  Number of GPUs available to MPI task        13 :   1
  Number of GPUs available to MPI task        14 :   1
  Number of GPUs available to MPI task        15 :   1
  Number of GPUs available to MPI task        16 :   1
  Number of GPUs available to MPI task        17 :   1

  | MPI task         0, GPU activated = T, Device Name = NVIDIA A100-SXM4-80GB
  | MPI task         1, GPU activated = T, Device Name = NVIDIA A100-SXM4-80GB
  | MPI task         2, GPU activated = T, Device Name = NVIDIA A100-SXM4-80GB
  | MPI task         3, GPU activated = T, Device Name = NVIDIA A100-SXM4-80GB
  | MPI task         4, GPU activated = T, Device Name = NVIDIA A100-SXM4-80GB
  | MPI task         5, GPU activated = T, Device Name = NVIDIA A100-SXM4-80GB
  | MPI task         6, GPU activated = T, Device Name = NVIDIA A100-SXM4-80GB
  | MPI task         7, GPU activated = T, Device Name = NVIDIA A100-SXM4-80GB
  | MPI task         8, GPU activated = T, Device Name = NVIDIA A100-SXM4-80GB
  | MPI task         9, GPU activated = T, Device Name = NVIDIA A100-SXM4-80GB
  | MPI task        10, GPU activated = T, Device Name = NVIDIA A100-SXM4-80GB
  | MPI task        11, GPU activated = T, Device Name = NVIDIA A100-SXM4-80GB
  | MPI task        12, GPU activated = T, Device Name = NVIDIA A100-SXM4-80GB
  | MPI task        13, GPU activated = T, Device Name = NVIDIA A100-SXM4-80GB
  | MPI task        14, GPU activated = T, Device Name = NVIDIA A100-SXM4-80GB
  | MPI task        15, GPU activated = T, Device Name = NVIDIA A100-SXM4-80GB
  | MPI task        16, GPU activated = T, Device Name = NVIDIA A100-SXM4-80GB
  | MPI task        17, GPU activated = T, Device Name = NVIDIA A100-SXM4-80GB

------------------------------------------------------------
          Preparing all fixed parts of the calculation.
------------------------------------------------------------
  Determining machine precision:
    2.225073858507201E-308
  Setting up grids for atomic and cluster calculations.

  Creating wave function, potential, and density for free atoms.
  Runtime choices for atomic solver:
  | atomic solver xc        : PW-LDA
  | compute density gradient: 0
  | compute kinetic density : F

  Species: H

  List of occupied orbitals and eigenvalues:
    n    l              occ      energy [Ha]    energy [eV]
    1    0           1.0000        -0.232375        -6.3233


  Species: C

  List of occupied orbitals and eigenvalues:
    n    l              occ      energy [Ha]    energy [eV]
    1    0           2.0000        -9.944615      -270.6068
    2    0           2.0000        -0.498807       -13.5732
    2    1           2.0000        -0.196968        -5.3598


  Adding cutoff potential to free-atom effective potential.
  Creating fixed part of basis set: Ionic, confined, hydrogenic.
 
  H                    hydrogenic:
 
  List of hydrogenic basis orbitals: 
    n    l      effective z      eigenvalue [eV]  inner max. [A]     outer max. [A]     outer radius [A]   
    2    0         2.100000       -14.9728           0.193243           1.317208           4.583499
    2    1         3.500000       -41.6669           0.602369           0.602369           3.723403
 
 
  C                    hydrogenic:
 
  List of hydrogenic basis orbitals: 
    n    l      effective z      eigenvalue [eV]  inner max. [A]     outer max. [A]     outer radius [A]   
    2    1         1.700000        -9.7616           1.230570           1.230570           4.607917
    3    2         6.000000       -54.4224           0.792453           0.792453           3.883070
    2    0         4.900000       -81.6679           0.082559           0.562749           3.078220
 
  Creating atomic-like basis functions for current effective potential.

  Species H                   :

  List of atomic basis orbitals and eigenvalues:
    n    l      energy [Ha]    energy [eV]    outer radius [A]
    1    0        -0.232375        -6.3233       4.527807


  Species C                   :

  List of atomic basis orbitals and eigenvalues:
    n    l      energy [Ha]    energy [eV]    outer radius [A]
    1    0        -9.944615      -270.6068       1.934409
    2    0        -0.498807       -13.5732       4.496620
    2    1        -0.196968        -5.3598       4.551928

  Assembling full basis from fixed parts.
  | Species H :   atomic orbital   1 s accepted.
  | Species H :    hydro orbital   2 s accepted.
  | Species H :    hydro orbital   2 p accepted.
  | Species C :   atomic orbital   1 s accepted.
  | Species C :    hydro orbital   2 s accepted.
  | Species C :   atomic orbital   2 s accepted.
  | Species C :   atomic orbital   2 p accepted.
  | Species C :    hydro orbital   2 p accepted.
  | Species C :    hydro orbital   3 d accepted.
 
  Basis size parameters after reduction:
  | Total number of radial functions:        9
  | Total number of basis functions :     1440
 
  Per-task memory consumption for arrays in subroutine allocate_ext:
  |           2.242384MB.
  Testing on-site integration grid accuracy.
  |  Species  Function  <phi|h_atom|phi> (log., in eV)  <phi|h_atom|phi> (rad., in eV)
           1        1                 -6.3245358373                 -6.3232436907
           1        2                 14.1326137532                 14.1384481100
           1        3                 25.3627025200                 25.3628451197
           2        4               -270.6067544938               -270.6067222788
           2        5                -10.5634280949                -10.5635685736
           2        6                 16.2089822398                 16.2052121796
           2        7                 -5.3613872565                 -5.3627872378
           2        8                  8.5292058327                  8.5051734780
           2        9                 27.4884461005                 27.4884542459

  Preparing densities etc. for the partition functions (integrals / Hartree potential).

  Preparations completed.
  max(cpu_time)          :      0.073 s.
  Wall clock time (cpu1) :      0.065 s.
------------------------------------------------------------

  Initializing index lists of integration centers etc. from given atomic structure:
  Mapping all atomic coordinates to central unit cell.

  Initializing the k-points
  Using symmetry for reducing the k-points
  | k-points reduced from:        2 to        2
  | Number of k-points                             :         2
  | Consuming          0 KiB for k_phase_exx.
  The eigenvectors in the calculations are REAL.
  | Number of basis functions in the Hamiltonian integrals :      8077
  | Number of basis functions in a single unit cell        :      1440
  | Number of centers in hartree potential         :      3327
  | Number of centers in hartree multipole         :      2547
  | Number of centers in electron density summation:      1989
  | Number of centers in basis integrals           :      2125
  | Number of centers in integrals                 :       970
  | Number of centers in hamiltonian               :      2009
  | Consuming          1 KiB for k_phase.
  | Number of super-cells (origin) [n_cells]                     :         175
  | Number of super-cells (after PM_index) [n_cells]             :          40
  | Number of super-cells in hamiltonian [n_cells_in_hamiltonian]:          40
  | Size of matrix packed + index [n_hamiltonian_matrix_size] :     1930352
  | Size of matrix packed + index (no_symmetry):     3857887

------------------------------------------------------------
          Begin self-consistency loop: Initialization.

          Date     :  20230120, Time     :  170034.748
------------------------------------------------------------
  | Estimated reciprocal-space cutoff momentum G_max:         3.24344278 bohr^-1 .
  | Reciprocal lattice points for long-range Hartree potential:    5310
  Using simple linear distribution as default method for k-point parallelism.
  * Using 18 tasks for Scalapack Eigenvalue solver.
  Detailed listing of tasks and assigned k-points:
   Task     0 k-point     1 on adag006
   Task     1 k-point     1 on adag006
   Task     2 k-point     1 on adag006
   Task     3 k-point     1 on adag006
   Task     4 k-point     1 on adag006
   Task     5 k-point     1 on adag006
   Task     6 k-point     1 on adag006
   Task     7 k-point     1 on adag006
   Task     8 k-point     1 on adag006
   Task     9 k-point     2 on adag006
   Task    10 k-point     2 on adag006
   Task    11 k-point     2 on adag006
   Task    12 k-point     2 on adag006
   Task    13 k-point     2 on adag006
   Task    14 k-point     2 on adag006
   Task    15 k-point     2 on adag006
   Task    16 k-point     2 on adag006
   Task    17 k-point     2 on adag006
  K-point:     1 Tasks:     9 split into      3 X      3 BLACS grid
  Calculating block size based on n_basis =         1440  max_nprow =            3  max_npcol =            3
  ScaLAPACK block size set to:           16
  Allocating        1.758 MB for ovlp
  Allocating        1.758 MB for ham
  Allocating        1.758 MB for eigenvec
  Required Scalapack workspace - INTEGER:            1  REAL:             1
  Partitioning the integration grid into batches with parallel hashing+maxmin method.
  | Number of batches:     5531
  | Maximal batch size:     200
  | Minimal batch size:      99
  | Average batch size:     138.102
  | Standard deviation of batch sizes:      31.209

  Integration load balanced across    18 MPI tasks.
  Work distribution over tasks is as follows:
  Task     0 has      42392 integration points.
  Task     1 has      42428 integration points.
  Task     2 has      42435 integration points.
  Task     3 has      42431 integration points.
  Task     4 has      42459 integration points.
  Task     5 has      42460 integration points.
  Task     6 has      42443 integration points.
  Task     7 has      42438 integration points.
  Task     8 has      42409 integration points.
  Task     9 has      42440 integration points.
  Task    10 has      42425 integration points.
  Task    11 has      42426 integration points.
  Task    12 has      42421 integration points.
  Task    13 has      42405 integration points.
  Task    14 has      42450 integration points.
  Task    15 has      42497 integration points.
  Task    16 has      42431 integration points.
  Task    17 has      42450 integration points.
  Initializing partition tables, free-atom densities, potentials, etc. across the integration grid (initialize_grid_storage).
  | initialize_grid_storage: Actual outermost partition radius vs. multipole_radius_free
  | (-- VB: in principle, multipole_radius_free should be larger, hence this output)
  | Species        1: Confinement radius =              4.999999999999999 AA, multipole_radius_free =              5.054417573612229 AA.
  | Species        1: outer_partition_radius set to              5.054417573612229 AA .
  | Species        2: Confinement radius =              4.999999999999999 AA, multipole_radius_free =              5.019602836301480 AA.
  | Species        2: outer_partition_radius set to              5.019602836301480 AA .
  | The sparse table of interatomic distances needs       7648.62 kbyte instead of     36125.00 kbyte of memory.
  | Net number of integration points:   763840
  | of which are non-zero points    :   605343
  | Numerical average free-atom electrostatic potential    :     -8.61469633 eV
  Renormalizing the initial density to the exact electron count on the 3D integration grid.
  | Initial density: Formal number of electrons (from input files) :     544.0000000000
  | Integrated number of electrons on 3D grid     :     543.9977372334
  | Charge integration error                      :      -0.0022627666
  | Normalization factor for density and gradient :       1.0000041595
  Renormalizing the free-atom superposition density to the exact electron count on the 3D integration grid.
  | Formal number of electrons (from input files) :     544.0000000000
  | Integrated number of electrons on 3D grid     :     543.9977372334
  | Charge integration error                      :      -0.0022627666
  | Normalization factor for density and gradient :       1.0000041595
  Obtaining max. number of non-zero basis functions in each batch (get_n_compute_maxes).
  | Maximal number of non-zero basis functions:      534 in task     0
  | Maximal number of non-zero basis functions:      544 in task     1
  | Maximal number of non-zero basis functions:      539 in task     2
  | Maximal number of non-zero basis functions:      544 in task     3
  | Maximal number of non-zero basis functions:      549 in task     4
  | Maximal number of non-zero basis functions:      536 in task     5
  | Maximal number of non-zero basis functions:      542 in task     6
  | Maximal number of non-zero basis functions:      534 in task     7
  | Maximal number of non-zero basis functions:      554 in task     8
  | Maximal number of non-zero basis functions:      532 in task     9
  | Maximal number of non-zero basis functions:      557 in task    10
  | Maximal number of non-zero basis functions:      550 in task    11
  | Maximal number of non-zero basis functions:      546 in task    12
  | Maximal number of non-zero basis functions:      548 in task    13
  | Maximal number of non-zero basis functions:      537 in task    14
  | Maximal number of non-zero basis functions:      546 in task    15
  | Maximal number of non-zero basis functions:      536 in task    16
  | Maximal number of non-zero basis functions:      525 in task    17
  Integrating Hamiltonian matrix: batch-based integration.
  GPU acceleration will be used when integrating the Hamiltonian matrix.
  Reporting GPU memory usage by myid 0.  Note that it is likely not the only MPI task binding to its GPU!
  Allocating        2.281 MB on GPU for hamiltonian_shell
  Allocating        0.854 MB on GPU for wave
  Allocating        0.002 MB on GPU for partition
  Allocating        0.854 MB on GPU for h_times_psi
  Time summed over all CPUs for integration: real work       21.880 s, elapsed       22.745 s
  Deallocating memory used on GPU for Hamiltonian integration.
  Integrating overlap matrix.
  Time summed over all CPUs for integration: real work       18.730 s, elapsed       19.487 s
  Deallocating overlap matrix.

  Updating Kohn-Sham eigenvalues and eigenvectors using ELSI and the ELPA eigensolver.
  Singularity check in k-point 1 (analysis for other k-points may follow below):
  Overlap matrix is not singular
  | Lowest and highest eigenvalues :  0.7893E-03,  0.8255E+01
  Finished singularity check of overlap matrix
  | Time :     0.100 s
  Starting ELPA eigensolver
  Finished Cholesky decomposition
  | Time :     0.017 s
  Finished transformation to standard eigenproblem
  | Time :     0.020 s
  Finished solving standard eigenproblem
  | Time :     0.234 s
  Finished back-transformation of eigenvectors
  | Time :     0.017 s

  Obtaining occupation numbers and electronic chemical potential using ELSI.
  | Note that, for insulating systems, the printed 'chemical potential' value is not uniquely defined.
  | It can be anywhere in the energy gap, as long as it correctly separates occupied and unoccupied states.
  | In systems with a gap, the physically relevant chemical potential is the VBM or HOMO.

  | Chemical potential (Fermi level):    -9.01747131 eV
  Writing Kohn-Sham eigenvalues.
  K-point:       1 at    0.000000    0.000000    0.000000 (in units of recip. lattice)

  State    Occupation    Eigenvalue [Ha]    Eigenvalue [eV]
      1       2.00000         -10.071350         -274.05538
      2       2.00000         -10.070644         -274.03618
      3       2.00000         -10.068929         -273.98949
      4       2.00000         -10.068572         -273.97978
      5       2.00000         -10.068538         -273.97886
      6       2.00000         -10.068277         -273.97175
      7       2.00000         -10.067993         -273.96403
      8       2.00000         -10.067750         -273.95741
      9       2.00000         -10.067334         -273.94610
     10       2.00000         -10.067200         -273.94245
     11       2.00000         -10.067013         -273.93735
     12       2.00000         -10.066997         -273.93692
     13       2.00000         -10.066838         -273.93260
     14       2.00000         -10.066649         -273.92745
     15       2.00000         -10.066614         -273.92651
     16       2.00000         -10.066407         -273.92087
     17       2.00000         -10.066319         -273.91848
     18       2.00000         -10.066122         -273.91311
     19       2.00000         -10.066099         -273.91249
     20       2.00000         -10.065988         -273.90947
     21       2.00000         -10.065742         -273.90278
     22       2.00000         -10.065712         -273.90195
     23       2.00000         -10.065434         -273.89440
     24       2.00000         -10.065296         -273.89064
     25       2.00000         -10.065198         -273.88796
     26       2.00000         -10.065182         -273.88752
     27       2.00000         -10.065148         -273.88661
     28       2.00000         -10.065013         -273.88295
     29       2.00000         -10.064695         -273.87428
     30       2.00000         -10.064662         -273.87338
     31       2.00000         -10.064488         -273.86865
     32       2.00000         -10.064437         -273.86728
     33       2.00000         -10.064309         -273.86378
     34       2.00000         -10.064234         -273.86175
     35       2.00000         -10.064107         -273.85829
     36       2.00000         -10.064095         -273.85797
     37       2.00000         -10.064080         -273.85755
     38       2.00000         -10.063884         -273.85222
     39       2.00000         -10.063677         -273.84659
     40       2.00000         -10.063505         -273.84190
     41       2.00000         -10.063481         -273.84124
     42       2.00000         -10.063288         -273.83601
     43       2.00000         -10.063246         -273.83486
     44       2.00000         -10.063243         -273.83479
     45       2.00000         -10.062956         -273.82695
     46       2.00000         -10.062820         -273.82327
     47       2.00000         -10.062767         -273.82183
     48       2.00000         -10.062394         -273.81168
     49       2.00000         -10.062198         -273.80635
     50       2.00000         -10.061800         -273.79550
     51       2.00000         -10.061453         -273.78605
     52       2.00000         -10.061377         -273.78401
     53       2.00000         -10.061243         -273.78035
     54       2.00000         -10.061220         -273.77974
     55       2.00000         -10.061104         -273.77657
     56       2.00000         -10.061099         -273.77644
     57       2.00000         -10.061058         -273.77531
     58       2.00000         -10.061017         -273.77421
     59       2.00000         -10.060987         -273.77339
     60       2.00000         -10.060576         -273.76219
     61       2.00000         -10.060307         -273.75487
     62       2.00000         -10.060160         -273.75089
     63       2.00000         -10.060015         -273.74694
     64       2.00000         -10.059867         -273.74291
     65       2.00000         -10.058421         -273.70356
     66       2.00000         -10.058414         -273.70336
     67       2.00000         -10.058375         -273.70232
     68       2.00000         -10.058158         -273.69639
     69       2.00000         -10.058032         -273.69298
     70       2.00000         -10.058027         -273.69283
     71       2.00000         -10.057899         -273.68934
     72       2.00000         -10.057442         -273.67692
     73       2.00000         -10.056730         -273.65755
[...]
  |    H      0     4.527807 A      4.583499 A        4.713786E-16 a.u.
  |    H      2     3.678162 A  1.011968E+04 A            0.556529 a.u.
  |    H      1     3.958095 A  1.721251E+06 A            0.841931 a.u.
  |    H      0     4.527807 A  3.866455E+12 A            0.581436 a.u.
  |    C      0     2.562483 A      2.562483 A        6.563029E-17 a.u.
  |    C      0     2.967371 A      2.967371 A        1.352164E-16 a.u.
  |    C      0     3.003870 A      3.003870 A        2.312640E-17 a.u.
  |    C      1     3.272245 A      3.272245 A       -3.835259E-17 a.u.
  |    C      0     3.312494 A      3.312494 A       -2.710381E-16 a.u.
  |    C      3     4.077671 A      4.077671 A       -1.683752E-15 a.u.
  |    C      3     4.077671 A      4.077671 A        1.412852E-15 a.u.
  |    C      1     4.496620 A      4.496620 A       -3.011059E-16 a.u.
  |    C      0     4.496620 A      4.551928 A        2.873903E-17 a.u.
  |    C      2     4.551928 A      4.551928 A       -4.610785E-16 a.u.
  |    C      2     4.551928 A      4.551928 A        7.440584E-16 a.u.
  |    C      2     4.551928 A      4.551928 A       -7.110458E-16 a.u.
  |    C      2     4.551928 A      4.551928 A       -1.935424E-16 a.u.
  |    C      0     4.551928 A      4.607917 A        2.067142E-16 a.u.
  |    C      0     4.551928 A      4.607917 A       -1.109786E-16 a.u.
  |    C      1     4.551928 A      4.607917 A       -9.951742E-17 a.u.
  |    C      1     4.551928 A      4.607917 A        1.937809E-16 a.u.
  |    C      1     4.607917 A      4.607917 A       -2.813308E-16 a.u.
  |    C      1     4.607917 A      4.607917 A       -7.330363E-17 a.u.
  |    C      2     4.607917 A      4.607917 A        1.318462E-15 a.u.
  |    C      2     4.607917 A      4.607917 A       -1.318397E-15 a.u.
  |    C      0     4.607917 A      4.664595 A        3.157826E-16 a.u.
  |    C      1     4.607917 A      4.664595 A        7.356967E-16 a.u.
  |    C      4     3.835889 A  2.962973E+02 A            4.379483 a.u.
  |    C      3     4.127827 A  1.725964E+03 A            9.005588 a.u.
  |    C      2     4.607917 A  2.608475E+04 A            9.531178 a.u.
  |    C      1     4.607917 A  2.736013E+06 A            2.127278 a.u.
  |    C      0     4.607917 A  4.399765E+12 A            0.661635 a.u.

  | Shrink_full_auxil_basis : there are       36  radial auxiliary wave functions
                            accepted and       7 rejected.
  | Shrink_full_auxil_basis : there are totally                8992 partial auxiliary wave functions.
 
  | Maximal number of product basis functions per thread :   512   512
 
  | Minimal total memory requirement for three-center overlap :      72.476 Gbs
  | Number of local auxiliary basis functions on task:      0   512
  | Number of local auxiliary basis functions on task:      1   512
  | Number of local auxiliary basis functions on task:      2   512
  | Number of local auxiliary basis functions on task:      3   512
  | Number of local auxiliary basis functions on task:      4   496
  | Number of local auxiliary basis functions on task:      5   496
  | Number of local auxiliary basis functions on task:      6   496
  | Number of local auxiliary basis functions on task:      7   496
  | Number of local auxiliary basis functions on task:      8   496
  | Number of local auxiliary basis functions on task:      9   496
  | Number of local auxiliary basis functions on task:     10   496
  | Number of local auxiliary basis functions on task:     11   496
  | Number of local auxiliary basis functions on task:     12   496
  | Number of local auxiliary basis functions on task:     13   496
  | Number of local auxiliary basis functions on task:     14   496
  | Number of local auxiliary basis functions on task:     15   496
  | Number of local auxiliary basis functions on task:     16   496
  | Number of local auxiliary basis functions on task:     17   496
  | 2D aux task distribution:      3 X      6
  | 2D block size (nb_aux_2d):     64
 
  Basis pair condensation :   1037520  -->     547260
 
 --------------------------------------------
  Constructing auxiliary basis (full product) ...
 
  Product basis:
  | charge radius: extent of product basis function
  | field radius: extent of its Coulomb potential
  | Species   l  charge radius    field radius  multipol momen
  |    H      1     3.910002 A      3.910002 A       -2.487223E-16 a.u.
  |    H      1     3.958095 A      3.958095 A       -2.441841E-16 a.u.
  |    H      0     4.527807 A      4.527807 A        1.268855E-16 a.u.
  |    H      0     4.527807 A      4.583499 A       -4.900954E-17 a.u.
  |    H      0     4.527807 A      4.583499 A        4.713786E-16 a.u.
  |    H      2     3.678162 A  1.011968E+04 A            0.556529 a.u.
  |    H      1     3.958095 A  1.721251E+06 A            0.841931 a.u.
  |    H      0     4.527807 A  3.866455E+12 A            0.581436 a.u.
  |    C      0     2.562483 A      2.562483 A        6.563029E-17 a.u.
  |    C      0     2.967371 A      2.967371 A        1.352164E-16 a.u.
  |    C      0     3.003870 A      3.003870 A        2.312640E-17 a.u.
  |    C      1     3.272245 A      3.272245 A       -3.835259E-17 a.u.
  |    C      0     3.312494 A      3.312494 A       -2.710381E-16 a.u.
  |    C      3     4.077671 A      4.077671 A       -1.683752E-15 a.u.
  |    C      3     4.077671 A      4.077671 A        1.412852E-15 a.u.
  |    C      1     4.496620 A      4.496620 A       -3.011059E-16 a.u.
  |    C      0     4.496620 A      4.551928 A        2.873903E-17 a.u.
  |    C      2     4.551928 A      4.551928 A       -4.610785E-16 a.u.
  |    C      2     4.551928 A      4.551928 A        7.440584E-16 a.u.
  |    C      2     4.551928 A      4.551928 A       -7.110458E-16 a.u.
  |    C      2     4.551928 A      4.551928 A       -1.935424E-16 a.u.
  |    C      0     4.551928 A      4.607917 A        2.067142E-16 a.u.
  |    C      0     4.551928 A      4.607917 A       -1.109786E-16 a.u.
  |    C      1     4.551928 A      4.607917 A       -9.951742E-17 a.u.
  |    C      1     4.551928 A      4.607917 A        1.937809E-16 a.u.
  |    C      1     4.607917 A      4.607917 A       -2.813308E-16 a.u.
  |    C      1     4.607917 A      4.607917 A       -7.330363E-17 a.u.
  |    C      2     4.607917 A      4.607917 A        1.318462E-15 a.u.
  |    C      2     4.607917 A      4.607917 A       -1.318397E-15 a.u.
  |    C      0     4.607917 A      4.664595 A        3.157826E-16 a.u.
  |    C      1     4.607917 A      4.664595 A        7.356967E-16 a.u.
  |    C      4     3.835889 A  2.962973E+02 A            4.379483 a.u.
  |    C      3     4.127827 A  1.725964E+03 A            9.005588 a.u.
  |    C      2     4.607917 A  2.608475E+04 A            9.531178 a.u.
  |    C      1     4.607917 A  2.736013E+06 A            2.127278 a.u.
  |    C      0     4.607917 A  4.399765E+12 A            0.661635 a.u.

  | Shrink_full_auxil_basis : there are       36  radial auxiliary wave functions
                            accepted and       7 rejected.
  | Shrink_full_auxil_basis : there are totally                8992 partial auxiliary wave functions.
 
  | Maximal number of product basis functions per thread :   512   512
 
  | Minimal total memory requirement for three-center overlap :      72.476 Gbs
  | Number of local auxiliary basis functions on task:      0   512
  | Number of local auxiliary basis functions on task:      1   512
  | Number of local auxiliary basis functions on task:      2   512
  | Number of local auxiliary basis functions on task:      3   512
  | Number of local auxiliary basis functions on task:      4   496
  | Number of local auxiliary basis functions on task:      5   496
  | Number of local auxiliary basis functions on task:      6   496
  | Number of local auxiliary basis functions on task:      7   496
  | Number of local auxiliary basis functions on task:      8   496
  | Number of local auxiliary basis functions on task:      9   496
  | Number of local auxiliary basis functions on task:     10   496
  | Number of local auxiliary basis functions on task:     11   496
  | Number of local auxiliary basis functions on task:     12   496
  | Number of local auxiliary basis functions on task:     13   496
  | Number of local auxiliary basis functions on task:     14   496
  | Number of local auxiliary basis functions on task:     15   496
  | Number of local auxiliary basis functions on task:     16   496
  | Number of local auxiliary basis functions on task:     17   496
  | 2D aux task distribution:      3 X      6
  | 2D block size (nb_aux_2d):     64
 
  Basis pair condensation :   1037520  -->     547260
  Allocating        0.069 MB for t_coeff
  Allocating        0.034 MB for basbas_idx
  Allocating        0.069 MB for wave
  Allocating        0.069 MB for total_wave
  Allocating        0.206 MB for wave_gradient
  Allocating        0.206 MB for total_wave_grad
 HERE1
 HERE2
  Deallocating        0.069 MB for t_coeff
  Deallocating        0.034 MB for basbas_idx
  Deallocating        0.069 MB for wave
  Deallocating        0.206 MB for wave_gradient
  Deallocating        0.206 MB for total_wave_grad
dP_dE (Bohr^3) at every cycle:--->
 (998.321351170493,0.000000000000000E+000) (-15.1972175698497,0.000000000000000E+000) (-454.227387302171,0.000000000000000E+000)
 (-15.1856042156839,0.000000000000000E+000) (1353.94950623320,0.000000000000000E+000) (6.73282423134687,0.000000000000000E+000)
 (-454.383171992882,0.000000000000000E+000) (6.76115311752072,0.000000000000000E+000) (1694.49190403309,0.000000000000000E+000)
DFPT polarizability (Bohr^3)        xx        yy        zz        xy        xz        yz
  | Polarizability:--->                       998.321351170                 1353.949506233                 1694.491904033                  -15.197217570                 -454.227387302                    6.732824231

DFPT for dielectric_constant:--->  # PARSE DFPT_dielectric_tensor
               2.354700778911057            -0.020622300079046            -0.616376875701917
              -0.020606541005160             2.837280599628405             0.009136298867877
              -0.616588272204257             0.009174740562148             3.299389369525844

                                               :  max(cpu_time)    wall_clock(cpu1)
  | Time for  dielectric calculation            :        0.000 s           0.001 s
===========================================================================

------------------------------------------------------------------------------
  Final output of selected total energy values:

  The following output summarizes some interesting total energy values
  at the end of a run (AFTER all relaxation, molecular dynamics, etc.).

  | Total energy of the DFT / Hartree-Fock s.c.f. calculation      :         -83267.654064557 eV
  | Final zero-broadening corrected energy (caution - metals only) :         -83267.654064557 eV
  | For reference only, the value of 1 Hartree used in FHI-aims is :             27.211384500 eV
  | For reference only, the overall average (free atom contribution
  | + realspace contribution) of the electrostatic potential after
  | s.c.f. convergence is                                          :             -7.700314088 eV

  Before relying on these values, please be sure to understand exactly which
  total energy value is referred to by a given number. Different objects may
  all carry the same name 'total energy'. Definitions:

  Total energy of the DFT / Hartree-Fock s.c.f. calculation:
  | Note that this energy does not include ANY quantities calculated after the
  | s.c.f. cycle, in particular not ANY RPA, MP2, etc. many-body perturbation terms.

  Final zero-broadening corrected energy:
  | For metallic systems only, a broadening of the occupation numbers at the Fermi
  | level can be extrapolated back to zero broadening by an electron-gas inspired
  | formula. For all systems that are not real metals, this value can be
  | meaningless and should be avoided.

------------------------------------------------------------------------------
  Methods described in the following list of references were used in this FHI-aims run.
  If you publish the results, please make sure to cite these reference if they apply.
  FHI-aims is an academic code, and for our developers (often, Ph.D. students
  and postdocs), scientific credit in the community is essential.
  Thank you for helping us!

  For any use of FHI-aims, please cite:

    Volker Blum, Ralf Gehrke, Felix Hanke, Paula Havu, Ville Havu,
    Xinguo Ren, Karsten Reuter, and Matthias Scheffler
    'Ab initio molecular simulations with numeric atom-centered orbitals'
    Computer Physics Communications 180, 2175-2196 (2009)
    http://doi.org/10.1016/j.cpc.2009.06.022


  For Hartree-Fock, hybrid functionals, or many-body perturbation theory used in your run, please cite:

    Xinguo Ren, Patrick Rinke, Volker Blum, Juergen Wieferink, Alex Tkatchenko,
    Andrea Sanfilippo, Karsten Reuter, and Matthias Scheffler,
    'Resolution-of-identity approach to Hartree-Fock, hybrid density functionals,
    RPA, MP2, and GW with numeric atom-centered orbital basis functions'
    New Journal of Physics 14, 053020 (2012).
    http://doi.org/10.1088/1367-2630/14/5/053020


  The provided symmetry information was generated with SPGlib:

    Atsushi Togo, Yusuke Seto, Dimitar Pashov
    SPGlib 1.7.3 obtained from http://spglib.sourceforge.net
    Copyright (C) 2008 Atsushi Togo


  The DFPT (perturbation by an electric field) part of the code was used.
  Here is the corresponding reference:

    Honghui Shang, Nathaniel Raimbault, Mariana Rossi,
    Christian Carbogno, Patrick Rinke and Matthias Scheffler,
    'All-Electron, Real-Space Perturbation Theory for Homogeneous
    Electric Fields: Theory, Implementation, and Application within dft'
    New Journal of Physics, 20(7):073040, 2018


  The ELSI infrastructure was used in your run to solve the Kohn-Sham electronic structure.
  Please check out http://elsi-interchange.org to learn more.
  If scalability is important for your project, please acknowledge ELSI by citing:

    V. W-z. Yu, F. Corsetti, A. Garcia, W. P. Huhn, M. Jacquelin, W. Jia,
    B. Lange, L. Lin, J. Lu, W. Mi, A. Seifitokaldani, A. Vazquez-Mayagoitia,
    C. Yang, H. Yang, and V. Blum
    'ELSI: A unified software interface for Kohn-Sham electronic structure solvers'
    Computer Physics Communications 222, 267-285 (2018).
    http://doi.org/10.1016/j.cpc.2017.09.007


  For the real-space grid partitioning and parallelization used in this calculation, please cite:

    Ville Havu, Volker Blum, Paula Havu, and Matthias Scheffler,
    'Efficient O(N) integration for all-electron electronic structure calculation'
    'using numerically tabulated basis functions'
    Journal of Computational Physics 228, 8367-8379 (2009).
    http://doi.org/10.1016/j.jcp.2009.08.008


  The high-level electronic structure method used in your calculation
  employed our efficient localized resolution of identity for the Coulomb operator.
  Some calculations, especially large-scale hybrid density functional theory,
  are only possible thanks to this development. For this feature, please cite:

    Arvid Ihrig, Juergen Wieferink, Igor Ying Zhang, Matti Ropo, Xinguo Ren,
    Patrick Rinke, Matthias Scheffler, and Volker Blum,
    'Accurate localized resolution of identity approach for linear-scaling
    hybrid density functionals and for many-body perturbation theory'
    New Journal of Physics 117, 093020 (2015).
    http://doi.org/10.1088/1367-2630/17/9/093020

  Of course, there are many other important community references, e.g., those cited in the
  above references. Our list is limited to references that describe implementations in the
  FHI-aims code. The reason is purely practical (length of this list) - please credit others as well.

------------------------------------------------------------
          Leaving FHI-aims.
          Date     :  20230120, Time     :  172411.001

          Computational steps:
          | Number of self-consistency cycles          :           46
          | Number of SCF (re)initializations          :            1
          | Number of coupled perturbed self-consistency cycles          :            0
          | Number of CPSCF (re)initializations          :            0

          Detailed time accounting                     :  max(cpu_time)    wall_clock(cpu1)
          | Total time                                  :     1418.400 s        1426.490 s
          | GPU initialization                          :        1.713 s           9.060 s
          | Preparation time                            :        0.073 s           0.065 s
          | Boundary condition initalization            :        0.993 s           0.993 s
          | Grid partitioning                           :        1.281 s           1.281 s
          | Preloading free-atom quantities on grid     :        3.759 s           3.760 s
          | Free-atom superposition energy              :        0.501 s           0.501 s
          | Total time for integrations                 :       17.330 s          17.421 s
          | Product basis setup: Total time             :        0.000 s           0.000 s
          | Product basis: | 2-center integrations     :(       0.000 s)  (       0.000 s)
          | Product basis: | LVL 3-center & coefficient:(       0.000 s)  (       0.000 s)
          | Total time for solution of K.-S. equations  :        3.341 s           3.344 s
          | Total time for density update               :       12.121 s          12.264 s
          | Total time for mixing & preconditioning     :       12.318 s          12.321 s
          | Total time for Hartree multipole update     :        0.084 s           0.084 s
          | Total time for Hartree multipole sum        :       41.458 s          41.471 s
          | Total time for total energy evaluation      :        0.008 s           0.001 s
          | Total time first_order_DM                   :        2.005 s           1.998 s
          | Total time first_order_density              :      304.396 s         304.426 s
          | Total time first_order_potential            :      123.570 s         123.601 s
          | Total time first_order_H                    :      584.518 s         584.675 s
          | Total time solving of Sternheimer equations :        1.949 s           1.949 s
          | Total time for dielectric constant          :        0.000 s           0.001 s
          | Total time momentum matrix                  :        0.000 s           0.000 s

          GPU acceleration has been used for charge density update.
          GPU acceleration has been used for real-space Hamiltonian integration.
          Due to GPU usage, wall_clock(cpu1) will give a more reliable estimate for timings.

          Partial memory accounting:
          | Residual value for overall tracked memory usage across tasks:     1.234863 MB (should be 0.000000 MB)
          |
          | Largest tracked array allocation:
          |   Minimum:      103.092 MB (DFPT_pulay_mixing::initialize_pulay_mixing::X_in_diffs on task  0)
          |   Maximum:      103.092 MB (DFPT_pulay_mixing::initialize_pulay_mixing::X_in_diffs on task  0)
          |   Average:      103.092 MB
          |
          | Because the residual tracked memory usage was not zero, the peak value for overall
          | tracked memory usage was not output, as it is probably incorrect.  This is likely due
          | to a missing aims_deallocate statement in the source code, which should be otherwise
          | harmless.
          |
          Note:  These values currently only include a subset of arrays which are explicitly tracked.
          The "true" memory usage will be greater.

          Have a nice day.
------------------------------------------------------------
