------------------------------------------------------------
          Invoking FHI-aims ...

          When using FHI-aims, please cite the following reference:

            Volker Blum, Ralf Gehrke, Felix Hanke, Paula Havu,
            Ville Havu, Xinguo Ren, Karsten Reuter, and Matthias Scheffler,
            'Ab Initio Molecular Simulations with Numeric Atom-Centered Orbitals',
            Computer Physics Communications 180, 2175-2196 (2009)

          In addition, many other developments in FHI-aims are likely important for
          your particular application. A partial list of references is given at the end of
          this file. Thank you for giving credit to the authors of these developments.

          For any questions about FHI-aims, please visit our slack channel at

            https://fhi-aims.slack.com

          and our main development and support site at

            https://aims-git.rz-berlin.mpg.de .

          The latter site, in particular, has a wiki to collect information, as well
          as an issue tracker to log discussions, suggest improvements, and report issues
          or bugs. https://aims-git.rz-berlin.mpg.de is also the main development site
          of the project and all new and updated code versions can be obtained there.
          Please send an email to aims-coordinators@fhi-berlin.mpg.de and we will add
          you to these sites. They are for you and everyone is welcome there.

------------------------------------------------------------



  Date     :  20230120, Time     :  155908.573
  Time zero on CPU 1             :   0.632941000000000E+00  s.
  Internal wall clock time zero  :           443462348.573  s.

  FHI-aims created a unique identifier for this run for later identification
  aims_uuid : 9EC65755-62FD-4140-A639-DF00202B8F50

  Build configuration of the current instance of FHI-aims
  -------------------------------------------------------
  FHI-aims version      : 220829
  Commit number         : 9895fc21d
  CMake host system     : Linux-5.3.18-150300.59.68-default
  CMake version         : 3.17.0
  Fortran compiler      : /mpcdf/soft/SLE_15/packages/x86_64/intel_oneapi/2021.3/mpi/2021.3.0/bin/mpiifort (Intel) version 20.2.3.20210609
  Fortran compiler flags: -O3 -ip -fp-model precise
  C compiler            : /mpcdf/soft/SLE_15/packages/x86_64/intel/2021.3.0/bin/icc (Intel) version 20.2.3.20210609
  C compiler flags      : -O3 -ip -fp-model precise -std=gnu99
  CUDA compiler         : /mpcdf/soft/SLE_15/packages/x86_64/cuda/11.6.2/bin/nvcc
  CUDA compiler flags   : -O3 -DAdd_ -lcublas
  ELPA2 kernel          : AVX512
  Using MPI
  Using ScaLAPACK
  Using LibXC
  Using CUDA
  Using i-PI
  Using RLSY
  Linking against: /mpcdf/soft/SLE_15/packages/x86_64/cuda/11.6.2/lib64/libcublas.so
                   /mpcdf/soft/SLE_15/packages/x86_64/cuda/11.6.2/lib64/libcudart.so
                   /mpcdf/soft/SLE_15/packages/x86_64/intel_oneapi/2021.3/mkl/latest/lib/intel64/libmkl_intel_lp64.so
                   /mpcdf/soft/SLE_15/packages/x86_64/intel_oneapi/2021.3/mkl/latest/lib/intel64/libmkl_sequential.so
                   /mpcdf/soft/SLE_15/packages/x86_64/intel_oneapi/2021.3/mkl/latest/lib/intel64/libmkl_core.so
                   /mpcdf/soft/SLE_15/packages/x86_64/intel_oneapi/2021.3/mkl/latest/lib/intel64/libmkl_blacs_intelmpi_lp64.so
                   /mpcdf/soft/SLE_15/packages/x86_64/intel_oneapi/2021.3/mkl/latest/lib/intel64/libmkl_scalapack_lp64.so

  Using       18 parallel tasks.
  Task        0 on host adag005 reporting.
  Task        1 on host adag005 reporting.
  Task        2 on host adag005 reporting.
  Task        3 on host adag005 reporting.
  Task        4 on host adag005 reporting.
  Task        5 on host adag005 reporting.
  Task        6 on host adag005 reporting.
  Task        7 on host adag005 reporting.
  Task        8 on host adag005 reporting.
  Task        9 on host adag005 reporting.
  Task       10 on host adag005 reporting.
  Task       11 on host adag005 reporting.
  Task       12 on host adag005 reporting.
  Task       13 on host adag005 reporting.
  Task       14 on host adag005 reporting.
  Task       15 on host adag005 reporting.
  Task       16 on host adag005 reporting.
  Task       17 on host adag005 reporting.

  Performing system and environment tests:
  | Environment variable OMP_NUM_THREADS correctly set to 1.
  | Checking for ScaLAPACK...
  | Testing pdtran()...
  | All pdtran() tests passed.

  Obtaining array dimensions for all initial allocations:
  
  -----------------------------------------------------------------------
  Parsing control.in (first pass over file, find array dimensions only).
  The contents of control.in will be repeated verbatim below
  unless switched off by setting 'verbatim_writeout .false.' .
  in the first line of control.in .
  -----------------------------------------------------------------------
  
  #
  # Input for polarizability replays on generic oligoacene molecular crystals (light settings,  LDA+MBD).
  #
  #########################################################################################
  #
  #  Physical model
  #
    xc                 pw-lda
    spin               none
    relativistic       none
    charge             0.0
    k_grid 	     2 1 1
    DFPT dielectric
  #
  #  GPU acceleration
  #
  # Turns on GPU acceleration everywhere
    use_gpu
  
  # Turns OFF GPU acceleration of ELPA - may be necessary if GPU ELPA is slow
    elsi_elpa_gpu 0
  #
  #  Relaxation
  #
  #  relax_geometry trm 1E-3
  #  relax_unit_cell fixed_angles
  #
  #  SCF convergence        #
    charge_mix_param   0.75
    #sc_accuracy_rho 1E-4
  #
  # i-PI communication
  #
  compute_forces .false.
  # use_pimd_wrapper 130.183.223.27 26118
  #communicate_pimd_wrapper polarizability
  #output_level MD_light
  #
  # Output SALTED info
    ri_density_restart write
    ri_rho1 write
    ri_full_output .true.
  #  sc_accuracy_rho    1d-6
    default_prodbas_acc 1e-6
    default_max_l_prodbas 6
  #
  #
  ################################################################################
  #
  #  FHI-aims code project
  #  VB, Fritz-Haber Institut, 2009
  #
  #  Suggested "light" defaults for H atom (to be pasted into control.in file)
  #  Be sure to double-check any results obtained with these settings for post-processing,
  #  e.g., with the "tight" defaults and larger basis sets.
  #
  ################################################################################
    species        H
  #     global species definitions
      nucleus             1
      mass                1.00794
  #
      l_hartree           4
  #
      cut_pot             3.5  1.5  1.0
      basis_dep_cutoff    1e-4
  #
      radial_base         24 5.0
      radial_multiplier   1
      angular_grids       specified
        division   0.2421   50
        division   0.3822  110
        division   0.4799  194
        division   0.5341  302
  #      division   0.5626  434
  #      division   0.5922  590
  #      division   0.6542  770
  #      division   0.6868 1202
  #      outer_grid  770
        outer_grid  302
  ################################################################################
  #
  #  Definition of "minimal" basis
  #
  ################################################################################
  #     valence basis states
      valence      1  s   1.
  #     ion occupancy
      ion_occ      1  s   0.5
  ################################################################################
  #
  #  Suggested additional basis functions. For production calculations,
  #  uncomment them one after another (the most important basis functions are
  #  listed first).
  #
  #  Basis constructed for dimers: 0.5 A, 0.7 A, 1.0 A, 1.5 A, 2.5 A
  #
  ################################################################################
  #  "First tier" - improvements: -1014.90 meV to -62.69 meV
       hydro 2 s 2.1
       hydro 2 p 3.5
  #  "Second tier" - improvements: -12.89 meV to -1.83 meV
  #     hydro 1 s 0.85
  #     hydro 2 p 3.7
  #     hydro 2 s 1.2
  #     hydro 3 d 7
  #  "Third tier" - improvements: -0.25 meV to -0.12 meV
  #     hydro 4 f 11.2
  #     hydro 3 p 4.8
  #     hydro 4 d 9
  #     hydro 3 s 3.2
  ################################################################################
  ################################################################################
  #
  #  FHI-aims code project
  #  VB, Fritz-Haber Institut, 2009
  #
  #  Suggested "light" defaults for C atom (to be pasted into control.in file)
  #  Be sure to double-check any results obtained with these settings for post-processing,
  #  e.g., with the "tight" defaults and larger basis sets.
  #
  ################################################################################
    species        C
  #     global species definitions
      nucleus             6
      mass                12.0107
  #
      l_hartree           4
  #
      cut_pot             3.5  1.5  1.0
      basis_dep_cutoff    1e-4
  #
      radial_base         34 5.0
      radial_multiplier   1
      angular_grids specified
        division   0.3326   50
        division   0.5710  110
        division   0.7727  194
        division   0.8772  302
  #      division   0.9334  434
  #      division   0.9625  590
  #      division   0.9924  770
  #      division   1.0230  974
  #      division   1.4589 1202
  #     outer_grid  974
       outer_grid 302
  ################################################################################
  #
  #  Definition of "minimal" basis
  #
  ################################################################################
  #     valence basis states
      valence      2  s   2.
      valence      2  p   2.
  #     ion occupancy
      ion_occ      2  s   1.
      ion_occ      2  p   1.
  ################################################################################
  #
  #  Suggested additional basis functions. For production calculations,
  #  uncomment them one after another (the most important basis functions are
  #  listed first).
  #
  #  Constructed for dimers: 1.0 A, 1.25 A, 1.5 A, 2.0 A, 3.0 A
  #
  ################################################################################
  #  "First tier" - improvements: -1214.57 meV to -155.61 meV
       hydro 2 p 1.7
       hydro 3 d 6
       hydro 2 s 4.9
  #  "Second tier" - improvements: -67.75 meV to -5.23 meV
  #     hydro 4 f 9.8
  #     hydro 3 p 5.2
  #     hydro 3 s 4.3
  #     hydro 5 g 14.4
  #     hydro 3 d 6.2
  #  "Third tier" - improvements: -2.43 meV to -0.60 meV
  #     hydro 2 p 5.6
  #     hydro 2 s 1.4
  #     hydro 3 d 4.9
  #     hydro 4 f 11.2
  #  "Fourth tier" - improvements: -0.39 meV to -0.18 meV
  #     hydro 2 p 2.1
  #     hydro 5 g 16.4
  #     hydro 4 d 13.2
  #     hydro 3 s 13.6
  #     hydro 4 f 17.6
  #  Further basis functions - improvements: -0.08 meV and below
  #     hydro 3 s 2
  #     hydro 3 p 6
  #     hydro 4 d 20
  
  -----------------------------------------------------------------------
  Completed first pass over input file control.in .
  -----------------------------------------------------------------------
  
  
  -----------------------------------------------------------------------
  Parsing geometry.in (first pass over file, find array dimensions only).
  The contents of geometry.in will be repeated verbatim below
  unless switched off by setting 'verbatim_writeout .false.' .
  in the first line of geometry.in .
  -----------------------------------------------------------------------
  
  #=======================================================
  # FHI-aims file: /ada/ptmp/mpsd/alewis/naphthalene/qmdata/data/geoms/424.in
  # Created using the Atomic Simulation Environment (ASE)
  # Thu Jan 19 15:19:17 2023
  #=======================================================
  lattice_vector 8.1020000000000003 0.0000000000000000 0.0000000000000000
  lattice_vector 0.0000000000000000 11.8800000000000008 0.0000000000000000
  lattice_vector -9.7850918486534706 0.0000000000000000 14.2571119625755713
  atom -0.6528480000000000 0.1240840000000000 2.3361600000000000 C
  atom 0.3082210000000000 3.3227899999999999 4.8228799999999996 C
  atom 4.1337599999999997 5.7567399999999997 4.7531600000000003 C
  atom 3.0744500000000001 2.8553899999999999 2.4831500000000002 C
  atom 0.0647100000000000 0.9453490000000000 1.5169200000000000 C
  atom -0.4919020000000000 4.1385199999999998 5.5773299999999999 C
  atom 3.3848500000000001 4.9621899999999997 5.5905500000000004 C
  atom 3.8394400000000002 1.9658300000000000 1.7365800000000000 C
  atom 0.3311650000000000 0.6062410000000000 0.1830380000000000 C
  atom -0.9162740000000000 3.7688000000000001 6.8932300000000000 C
  atom 3.0646599999999999 5.4083199999999998 6.9098199999999999 C
  atom 4.2767499999999998 2.3057400000000001 0.4299420000000000 C
  atom -3.7817099999999999 1.5503700000000000 6.7313299999999998 C
  atom 3.1159800000000000 4.4830800000000002 0.6702450000000000 C
  atom 7.1079999999999997 4.4286300000000001 0.5976980000000000 C
  atom 0.2782550000000000 1.6096600000000001 6.5700099999999999 C
  atom -3.4026200000000002 1.2415099999999999 5.4490699999999999 C
  atom 2.6971400000000001 4.0982200000000004 1.9170799999999999 C
  atom 6.7781200000000004 4.7636099999999999 1.9054300000000000 C
  atom 0.6527500000000001 2.0038100000000001 5.2876000000000003 C
  atom -0.8791060000000001 0.3767950000000000 3.3824100000000001 H
  atom 0.6088590000000000 3.6723499999999998 3.8494199999999998 H
  atom 4.4133500000000003 5.3948600000000004 3.7462399999999998 H
  atom 2.7627899999999999 2.5841799999999999 3.4887500000000000 H
  atom 0.3898700000000000 1.9163399999999999 1.9103699999999999 H
  atom -0.7696360000000000 5.1195899999999996 5.2222999999999997 H
  atom 2.9849500000000000 3.9999899999999999 5.2679200000000002 H
  atom 4.1566099999999997 0.9743410000000000 2.1015500000000000 H
  atom -3.5008599999999999 2.5204200000000001 7.1709899999999998 H
  atom 2.8338399999999999 5.4583700000000004 0.2478920000000000 H
  atom 6.7125899999999996 3.5746099999999998 0.1039090000000000 H
  atom 0.5669729999999999 0.6308589999999999 6.9363099999999998 H
  atom -2.7755000000000001 1.9291499999999999 4.8566900000000004 H
  atom 2.1261299999999999 4.7760300000000004 2.5256300000000000 H
  atom 6.1311000000000000 4.1440099999999997 2.4900099999999998 H
  atom 1.2576700000000001 1.3198399999999999 4.6861699999999997 H
  atom -5.7547800000000002 0.1194180000000000 9.5794099999999993 C
  atom -4.8111800000000002 2.9822000000000002 12.0543999999999993 C
  atom -0.7677130000000000 5.7710100000000004 11.9468999999999994 C
  atom -1.6178699999999999 2.9114100000000001 9.5056999999999992 C
  atom -4.9862799999999998 0.9975180000000000 8.8197399999999995 C
  atom -5.5338799999999999 3.9080699999999999 12.7881000000000000 C
  atom -1.4343300000000001 4.8983400000000001 12.7664000000000009 C
  atom -0.8307170000000000 2.0797400000000001 8.7026400000000006 C
  atom -4.5726800000000001 0.6642439999999999 7.5244000000000000 C
  atom -5.9362100000000000 3.5674700000000001 14.1122999999999994 C
  atom -1.8328000000000000 5.2757800000000001 14.0890000000000004 C
  atom -0.5035930000000000 2.4616600000000002 7.4000300000000001 C
  atom -8.7047600000000003 1.4787100000000000 13.6168999999999993 C
  atom -1.7560000000000000 4.5422599999999997 7.7197600000000000 C
  atom 2.3290400000000000 4.5467300000000002 7.7784199999999997 C
  atom -4.7932199999999998 1.3904900000000000 13.8622999999999994 C
  atom -8.3838699999999999 1.0554900000000000 12.3315999999999999 C
  atom -2.1158399999999999 4.1261999999999999 8.9975600000000000 C
  atom 2.0012799999999999 4.9769100000000002 9.0432000000000006 C
  atom -4.4060499999999996 1.7455300000000000 12.5807000000000002 C
  atom -6.0926499999999999 0.4533520000000000 10.5823000000000000 H
  atom -4.5061099999999996 3.2423999999999999 11.0626999999999995 H
  atom -0.5147389999999999 5.4240199999999996 10.9497000000000000 H
  atom -1.8231999999999999 2.5951599999999999 10.5412999999999997 H
  atom -4.7577400000000001 2.0112999999999999 9.1655599999999993 H
  atom -5.8598299999999997 4.8676399999999997 12.4069000000000003 H
  atom -1.6680900000000001 3.8682699999999999 12.4741999999999997 H
  atom -0.5079780000000000 1.0988700000000000 9.0864999999999991 H
  atom -8.3691999999999993 2.4520700000000000 14.0127000000000006 H
  atom -2.1274400000000000 5.5105599999999999 7.3701999999999996 H
  atom 2.0053600000000000 3.5453800000000002 7.4824400000000004 H
  atom -4.5627800000000001 0.3823230000000000 14.2002000000000006 H
  atom -7.7574399999999999 1.7369200000000000 11.7330000000000005 H
  atom -2.8087900000000001 4.7278099999999998 9.5823599999999995 H
  atom 1.4133100000000001 4.3037799999999997 9.6830499999999997 H
  atom -3.8282799999999999 1.0457300000000000 11.9581000000000000 H
  atom -0.8562930000000000 5.9942200000000003 2.4349300000000000 C
  atom 0.4126350000000000 9.0756200000000007 4.9761699999999998 C
  atom 4.3114499999999998 11.8625000000000007 4.9096500000000001 C
  atom 3.2123300000000001 8.8359199999999998 2.3849600000000000 C
  atom -0.0860245000000000 6.8655200000000001 1.6908600000000000 C
  atom -0.4075370000000000 9.8967399999999994 5.7265800000000002 C
  atom 3.6045199999999999 10.9543999999999997 5.6682800000000002 C
  atom 3.9083000000000001 7.8998100000000004 1.6234700000000000 C
  atom 0.2581350000000000 6.5327500000000001 0.3389900000000000 C
  atom -0.8347599999999999 9.4786099999999998 7.0097899999999997 C
  atom 3.1860700000000000 11.2741000000000007 7.0158100000000001 C
  atom 4.2854599999999996 8.2176799999999997 0.3024690000000000 C
  atom -3.7974899999999998 7.4424500000000000 6.4993999999999996 C
  atom 3.1778400000000002 10.4007000000000005 0.5440520000000000 C
  atom 7.2481099999999996 10.3804999999999996 0.5611820000000000 C
  atom 0.3552060000000000 7.3546399999999998 6.6663600000000001 C
  atom -3.4973500000000000 7.0105800000000000 5.2276999999999996 C
  atom 2.8861699999999999 10.1090999999999998 1.8641399999999999 C
  atom 6.9792100000000001 10.7413000000000007 1.8577300000000001 C
  atom 0.7907480000000000 7.7886100000000003 5.4293800000000001 C
  atom -1.1407900000000000 6.2210000000000001 3.4598399999999998 H
  atom 0.7747570000000000 9.4215400000000002 3.9859700000000000 H
  atom 4.5960700000000001 11.5947999999999993 3.8831300000000000 H
  atom 3.0548299999999999 8.5859699999999997 3.4288699999999999 H
  atom 0.2105310000000000 7.8730000000000002 2.0602800000000001 H
  atom -0.7541830000000000 10.8585999999999991 5.3017000000000003 H
  atom 3.2739699999999998 9.9629799999999999 5.3433299999999999 H
  atom 4.2540800000000001 6.9284400000000002 2.0412699999999999 H
  atom -3.4053300000000002 8.3786199999999997 6.9055700000000000 H
  atom 2.9141400000000002 11.3861000000000008 0.1451510000000000 H
  atom 6.8434299999999997 9.4211500000000008 0.1808240000000000 H
  atom 0.6191020000000000 6.3845599999999996 7.0898500000000002 H
  atom -2.8429400000000000 7.6082099999999997 4.5980499999999997 H
  atom 2.3666299999999998 10.8758999999999997 2.4479299999999999 H
  atom 6.3590799999999996 10.1472999999999995 2.5129400000000000 H
  atom 1.4166900000000000 7.1359899999999996 4.7605399999999998 H
  atom -5.6603399999999997 6.2068500000000002 9.5132700000000003 C
  atom -4.7058299999999997 8.9549900000000004 11.9428999999999998 C
  atom -0.7261140000000000 11.7181999999999995 11.7957999999999998 C
  atom -1.6920900000000001 8.5939499999999995 9.5456099999999999 C
  atom -4.9489700000000001 7.0503299999999998 8.6904299999999992 C
  atom -5.5080099999999996 9.8110999999999997 12.7019000000000002 C
  atom -1.4992399999999999 10.8736999999999995 12.5783000000000005 C
  atom -0.8997590000000000 7.7766200000000003 8.7675900000000002 C
  atom -4.5864200000000004 6.6580300000000001 7.3621699999999999 C
  atom -5.8807799999999997 9.4730699999999999 14.0275999999999996 C
  atom -1.8041499999999999 11.2278000000000002 13.9368999999999996 C
  atom -0.4614170000000000 8.2055900000000008 7.4834199999999997 C
  atom -8.7819699999999994 7.4033400000000000 13.7477000000000000 C
  atom -1.6807399999999999 10.3087999999999997 7.7961200000000002 C
  atom 2.3705300000000000 10.3666999999999998 7.7560700000000002 C
  atom -4.7175300000000000 7.3465199999999999 13.7617999999999991 C
  atom -8.4762599999999999 7.0122600000000004 12.4797999999999991 C
  atom -2.0991300000000002 9.8466000000000005 9.0122699999999991 C
  atom 1.9494899999999999 10.7540999999999993 9.0344200000000008 C
  atom -4.2761100000000001 7.7148599999999998 12.4806000000000008 C
  atom -5.8423100000000003 6.5280399999999998 10.5530000000000008 H
  atom -4.3952999999999998 9.2685200000000005 10.9234000000000009 H
  atom -0.5118030000000000 11.4826999999999995 10.7758000000000003 H
  atom -1.9674600000000000 8.2809399999999993 10.5398999999999994 H
  atom -4.6306799999999999 8.0500699999999998 9.0328199999999992 H
  atom -5.8528799999999999 10.7657000000000007 12.3474000000000004 H
  atom -1.8358800000000000 9.9346999999999994 12.1643000000000008 H
  atom -0.5280870000000000 6.8087000000000000 9.1533300000000004 H
  atom -8.4807799999999993 8.3774400000000000 14.0983999999999998 H
  atom -1.9547900000000000 11.2879000000000005 7.3962399999999997 H
  atom 2.0725699999999998 9.3963000000000001 7.3379200000000004 H
  atom -4.4315899999999999 6.3462699999999996 14.1419999999999995 H
  atom -7.8830099999999996 7.7081400000000002 11.8713999999999995 H
  atom -2.7359200000000001 10.4984000000000002 9.6247399999999992 H
  atom 1.2609900000000001 10.0671999999999997 9.5629299999999997 H
  atom -3.6523200000000000 7.0140000000000002 11.9354999999999993 H
  
  -----------------------------------------------------------------------
  Completed first pass over input file geometry.in .
  -----------------------------------------------------------------------
  

  Basic array size parameters:
  | Number of species                 :        2
  | Number of atoms                   :      144
  | Number of lattice vectors         :        3
  | Max. basis fn. angular momentum   :        2
  | Max. atomic/ionic basis occupied n:        2
  | Max. number of basis fn. types    :        2
  | Max. radial fns per species/type  :        3
  | Max. logarithmic grid size        :     1277
  | Max. radial integration grid size :       34
  | Max. angular integration grid size:      302
  | Max. angular grid division number :        8
  | Radial grid for Hartree potential :     1277
  | Number of spin channels           :        1

------------------------------------------------------------
          Reading file control.in.
------------------------------------------------------------
  XC: Using Perdew-Wang parametrisation of Ceperley-Alder LDA.
  Spin treatment: No spin polarisation.
  Non-relativistic treatment of kinetic energy.
  Charge =   0.000000E+00: Neutral system requested explicitly.
  Found k-point grid:         2         1         1
  DFPT calculation will begin after the DFT/HF calculation.
  Charge density mixing - mixing parameter:     0.7500
  Forces will not be computed.
 
  Reading configuration options for species H                   .
  | Found nuclear charge :   1.0000
  | Found atomic mass :    1.00794000000000      amu
  | Found l_max for Hartree potential  :   4
  | Found cutoff potl. onset [A], width [A], scale factor :    3.50000    1.50000    1.00000
  | Threshold for basis-dependent cutoff potential is   0.100000E-03
  | Found data for basic radial integration grid :    24 points, outermost radius =    5.000 A
  | Found multiplier for basic radial grid :   1
  | Found angular grid specification: user-specified.
  | Specified grid contains     5 separate shells.
  | Check grid settings after all constraints further below.
  | Found free-atom valence shell :  1 s   1.000
  | No ionic wave fns used. Skipping ion_occ.
  | Found hydrogenic basis function :  2 s   2.100
  | Found hydrogenic basis function :  2 p   3.500
  Species H                   : Missing cutoff potential type.
  Defaulting to exp(1/x)/(1-x)^2 type cutoff potential.
  Species H : No 'logarithmic' tag. Using default grid for free atom:
  | Default logarithmic grid data [bohr] : 0.1000E-03 0.1000E+03 0.1012E+01
  Species H : On-site basis accuracy parameter (for Gram-Schmidt orthonormalisation) not specified.
  Using default value basis_acc =  0.1000000E-03.
  Species H                   : Using default innermost maximum threshold i_radial=  2 for radial functions.
  Species H                   : Default cutoff onset for free atom density etc. : 0.35000000E+01 AA.
  Species H                   : Basic radial grid will be enhanced according to radial_multiplier =   1, to contain    24 grid points.
 
  Reading configuration options for species C                   .
  | Found nuclear charge :   6.0000
  | Found atomic mass :    12.0107000000000      amu
  | Found l_max for Hartree potential  :   4
  | Found cutoff potl. onset [A], width [A], scale factor :    3.50000    1.50000    1.00000
  | Threshold for basis-dependent cutoff potential is   0.100000E-03
  | Found data for basic radial integration grid :    34 points, outermost radius =    5.000 A
  | Found multiplier for basic radial grid :   1
  | Found angular grid specification: user-specified.
  | Specified grid contains     5 separate shells.
  | Check grid settings after all constraints further below.
  | Found free-atom valence shell :  2 s   2.000
  | Found free-atom valence shell :  2 p   2.000
  | No ionic wave fns used. Skipping ion_occ.
  | No ionic wave fns used. Skipping ion_occ.
  | Found hydrogenic basis function :  2 p   1.700
  | Found hydrogenic basis function :  3 d   6.000
  | Found hydrogenic basis function :  2 s   4.900
  Species C                   : Missing cutoff potential type.
  Defaulting to exp(1/x)/(1-x)^2 type cutoff potential.
  Species C : No 'logarithmic' tag. Using default grid for free atom:
  | Default logarithmic grid data [bohr] : 0.1000E-03 0.1000E+03 0.1012E+01
  Species C : On-site basis accuracy parameter (for Gram-Schmidt orthonormalisation) not specified.
  Using default value basis_acc =  0.1000000E-03.
  Species C                   : Using default innermost maximum threshold i_radial=  2 for radial functions.
  Species C                   : Default cutoff onset for free atom density etc. : 0.35000000E+01 AA.
  Species C                   : Basic radial grid will be enhanced according to radial_multiplier =   1, to contain    34 grid points.
 
  Finished reading input file 'control.in'.
 
------------------------------------------------------------


------------------------------------------------------------
          Reading geometry description geometry.in.
------------------------------------------------------------
  | The smallest distance between any two atoms is         1.06279199 AA.
  | The first atom of this pair is atom number                     15 .
  | The second atom of this pair is atom number                    31 .
  | Wigner-Seitz cell of the first atom image           0     0     0 .
  | (The Wigner-Seitz cell of the second atom is 0 0 0  by definition.)

  Symmetry information by spglib:
  | Precision set to  0.1E-04
  | Number of Operations  : 1
  | Space group           : 1
  | International         : P1
  | Schoenflies           : C1^1
  Input structure read successfully.
  The structure contains      144 atoms,  and a total of        544.000 electrons.

  Input geometry:
  | Unit cell:
  |        8.10200000        0.00000000        0.00000000
  |        0.00000000       11.88000000        0.00000000
  |       -9.78509185        0.00000000       14.25711196
  | Atomic structure:
  |       Atom                x [A]            y [A]            z [A]
  |    1: Species C            -0.65284800        0.12408400        2.33616000
  |    2: Species C             0.30822100        3.32279000        4.82288000
  |    3: Species C             4.13376000        5.75674000        4.75316000
  |    4: Species C             3.07445000        2.85539000        2.48315000
  |    5: Species C             0.06471000        0.94534900        1.51692000
  |    6: Species C            -0.49190200        4.13852000        5.57733000
  |    7: Species C             3.38485000        4.96219000        5.59055000
  |    8: Species C             3.83944000        1.96583000        1.73658000
  |    9: Species C             0.33116500        0.60624100        0.18303800
  |   10: Species C            -0.91627400        3.76880000        6.89323000
  |   11: Species C             3.06466000        5.40832000        6.90982000
  |   12: Species C             4.27675000        2.30574000        0.42994200
  |   13: Species C            -3.78171000        1.55037000        6.73133000
  |   14: Species C             3.11598000        4.48308000        0.67024500
  |   15: Species C             7.10800000        4.42863000        0.59769800
  |   16: Species C             0.27825500        1.60966000        6.57001000
  |   17: Species C            -3.40262000        1.24151000        5.44907000
  |   18: Species C             2.69714000        4.09822000        1.91708000
  |   19: Species C             6.77812000        4.76361000        1.90543000
  |   20: Species C             0.65275000        2.00381000        5.28760000
  |   21: Species H            -0.87910600        0.37679500        3.38241000
  |   22: Species H             0.60885900        3.67235000        3.84942000
  |   23: Species H             4.41335000        5.39486000        3.74624000
  |   24: Species H             2.76279000        2.58418000        3.48875000
  |   25: Species H             0.38987000        1.91634000        1.91037000
  |   26: Species H            -0.76963600        5.11959000        5.22230000
  |   27: Species H             2.98495000        3.99999000        5.26792000
  |   28: Species H             4.15661000        0.97434100        2.10155000
  |   29: Species H            -3.50086000        2.52042000        7.17099000
  |   30: Species H             2.83384000        5.45837000        0.24789200
  |   31: Species H             6.71259000        3.57461000        0.10390900
  |   32: Species H             0.56697300        0.63085900        6.93631000
  |   33: Species H            -2.77550000        1.92915000        4.85669000
  |   34: Species H             2.12613000        4.77603000        2.52563000
  |   35: Species H             6.13110000        4.14401000        2.49001000
  |   36: Species H             1.25767000        1.31984000        4.68617000
  |   37: Species C            -5.75478000        0.11941800        9.57941000
  |   38: Species C            -4.81118000        2.98220000       12.05440000
  |   39: Species C            -0.76771300        5.77101000       11.94690000
  |   40: Species C            -1.61787000        2.91141000        9.50570000
  |   41: Species C            -4.98628000        0.99751800        8.81974000
  |   42: Species C            -5.53388000        3.90807000       12.78810000
  |   43: Species C            -1.43433000        4.89834000       12.76640000
  |   44: Species C            -0.83071700        2.07974000        8.70264000
  |   45: Species C            -4.57268000        0.66424400        7.52440000
  |   46: Species C            -5.93621000        3.56747000       14.11230000
  |   47: Species C            -1.83280000        5.27578000       14.08900000
  |   48: Species C            -0.50359300        2.46166000        7.40003000
  |   49: Species C            -8.70476000        1.47871000       13.61690000
  |   50: Species C            -1.75600000        4.54226000        7.71976000
  |   51: Species C             2.32904000        4.54673000        7.77842000
  |   52: Species C            -4.79322000        1.39049000       13.86230000
  |   53: Species C            -8.38387000        1.05549000       12.33160000
  |   54: Species C            -2.11584000        4.12620000        8.99756000
  |   55: Species C             2.00128000        4.97691000        9.04320000
  |   56: Species C            -4.40605000        1.74553000       12.58070000
  |   57: Species H            -6.09265000        0.45335200       10.58230000
  |   58: Species H            -4.50611000        3.24240000       11.06270000
  |   59: Species H            -0.51473900        5.42402000       10.94970000
  |   60: Species H            -1.82320000        2.59516000       10.54130000
  |   61: Species H            -4.75774000        2.01130000        9.16556000
  |   62: Species H            -5.85983000        4.86764000       12.40690000
  |   63: Species H            -1.66809000        3.86827000       12.47420000
  |   64: Species H            -0.50797800        1.09887000        9.08650000
  |   65: Species H            -8.36920000        2.45207000       14.01270000
  |   66: Species H            -2.12744000        5.51056000        7.37020000
  |   67: Species H             2.00536000        3.54538000        7.48244000
  |   68: Species H            -4.56278000        0.38232300       14.20020000
  |   69: Species H            -7.75744000        1.73692000       11.73300000
  |   70: Species H            -2.80879000        4.72781000        9.58236000
  |   71: Species H             1.41331000        4.30378000        9.68305000
  |   72: Species H            -3.82828000        1.04573000       11.95810000
  |   73: Species C            -0.85629300        5.99422000        2.43493000
  |   74: Species C             0.41263500        9.07562000        4.97617000
  |   75: Species C             4.31145000       11.86250000        4.90965000
  |   76: Species C             3.21233000        8.83592000        2.38496000
  |   77: Species C            -0.08602450        6.86552000        1.69086000
  |   78: Species C            -0.40753700        9.89674000        5.72658000
  |   79: Species C             3.60452000       10.95440000        5.66828000
  |   80: Species C             3.90830000        7.89981000        1.62347000
  |   81: Species C             0.25813500        6.53275000        0.33899000
  |   82: Species C            -0.83476000        9.47861000        7.00979000
  |   83: Species C             3.18607000       11.27410000        7.01581000
  |   84: Species C             4.28546000        8.21768000        0.30246900
  |   85: Species C            -3.79749000        7.44245000        6.49940000
  |   86: Species C             3.17784000       10.40070000        0.54405200
  |   87: Species C             7.24811000       10.38050000        0.56118200
  |   88: Species C             0.35520600        7.35464000        6.66636000
  |   89: Species C            -3.49735000        7.01058000        5.22770000
  |   90: Species C             2.88617000       10.10910000        1.86414000
  |   91: Species C             6.97921000       10.74130000        1.85773000
  |   92: Species C             0.79074800        7.78861000        5.42938000
  |   93: Species H            -1.14079000        6.22100000        3.45984000
  |   94: Species H             0.77475700        9.42154000        3.98597000
  |   95: Species H             4.59607000       11.59480000        3.88313000
  |   96: Species H             3.05483000        8.58597000        3.42887000
  |   97: Species H             0.21053100        7.87300000        2.06028000
  |   98: Species H            -0.75418300       10.85860000        5.30170000
  |   99: Species H             3.27397000        9.96298000        5.34333000
  |  100: Species H             4.25408000        6.92844000        2.04127000
  |  101: Species H            -3.40533000        8.37862000        6.90557000
  |  102: Species H             2.91414000       11.38610000        0.14515100
  |  103: Species H             6.84343000        9.42115000        0.18082400
  |  104: Species H             0.61910200        6.38456000        7.08985000
  |  105: Species H            -2.84294000        7.60821000        4.59805000
  |  106: Species H             2.36663000       10.87590000        2.44793000
  |  107: Species H             6.35908000       10.14730000        2.51294000
  |  108: Species H             1.41669000        7.13599000        4.76054000
  |  109: Species C            -5.66034000        6.20685000        9.51327000
  |  110: Species C            -4.70583000        8.95499000       11.94290000
  |  111: Species C            -0.72611400       11.71820000       11.79580000
  |  112: Species C            -1.69209000        8.59395000        9.54561000
  |  113: Species C            -4.94897000        7.05033000        8.69043000
  |  114: Species C            -5.50801000        9.81110000       12.70190000
  |  115: Species C            -1.49924000       10.87370000       12.57830000
  |  116: Species C            -0.89975900        7.77662000        8.76759000
  |  117: Species C            -4.58642000        6.65803000        7.36217000
  |  118: Species C            -5.88078000        9.47307000       14.02760000
  |  119: Species C            -1.80415000       11.22780000       13.93690000
  |  120: Species C            -0.46141700        8.20559000        7.48342000
  |  121: Species C            -8.78197000        7.40334000       13.74770000
  |  122: Species C            -1.68074000       10.30880000        7.79612000
  |  123: Species C             2.37053000       10.36670000        7.75607000
  |  124: Species C            -4.71753000        7.34652000       13.76180000
  |  125: Species C            -8.47626000        7.01226000       12.47980000
  |  126: Species C            -2.09913000        9.84660000        9.01227000
  |  127: Species C             1.94949000       10.75410000        9.03442000
  |  128: Species C            -4.27611000        7.71486000       12.48060000
  |  129: Species H            -5.84231000        6.52804000       10.55300000
  |  130: Species H            -4.39530000        9.26852000       10.92340000
  |  131: Species H            -0.51180300       11.48270000       10.77580000
  |  132: Species H            -1.96746000        8.28094000       10.53990000
  |  133: Species H            -4.63068000        8.05007000        9.03282000
  |  134: Species H            -5.85288000       10.76570000       12.34740000
  |  135: Species H            -1.83588000        9.93470000       12.16430000
  |  136: Species H            -0.52808700        6.80870000        9.15333000
  |  137: Species H            -8.48078000        8.37744000       14.09840000
  |  138: Species H            -1.95479000       11.28790000        7.39624000
  |  139: Species H             2.07257000        9.39630000        7.33792000
  |  140: Species H            -4.43159000        6.34627000       14.14200000
  |  141: Species H            -7.88301000        7.70814000       11.87140000
  |  142: Species H            -2.73592000       10.49840000        9.62474000
  |  143: Species H             1.26099000       10.06720000        9.56293000
  |  144: Species H            -3.65232000        7.01400000       11.93550000

  Lattice parameters for 3D lattice (in Angstroms) :     8.102000   11.880000   17.292000
  Angle(s) between unit vectors (in degrees)       :    90.000000  124.463000   90.000000


  Quantities derived from the lattice vectors (in Angstrom^-1):
  | Reciprocal lattice vector 1:  0.775510  0.000000  0.532257
  | Reciprocal lattice vector 2:  0.000000  0.528888  0.000000
  | Reciprocal lattice vector 3: -0.000000  0.000000  0.440705
  | Unit cell volume                               :   0.137227E+04  Angstrom^3

  Fractional coordinates:
                         L1                L2                L3
       atom_frac         0.11732042        0.01044478        0.16385927  C
       atom_frac         0.44659479        0.27969613        0.33827889  C
       atom_frac         0.91286090        0.48457407        0.33338870  C
       atom_frac         0.58981878        0.24035269        0.17416922  C
       atom_frac         0.13648711        0.07957483        0.10639742  C
       atom_frac         0.41174896        0.34836027        0.39119634  C
       atom_frac         0.89136206        0.41769276        0.39212360  C
       atom_frac         0.62099580        0.16547391        0.12180447  C
       atom_frac         0.05637985        0.05103039        0.01283836  C
       atom_frac         0.47084183        0.31723906        0.48349413  C
       atom_frac         0.96359920        0.45524579        0.48465776  C
       atom_frac         0.56428442        0.19408586        0.03015632  C
       atom_frac         0.10345687        0.13050253        0.47213840  C
       atom_frac         0.44137122        0.37736364        0.04701127  C
       atom_frac         0.92794599        0.37278030        0.04192280  C
       atom_frac         0.59089777        0.13549327        0.46082334  C
       atom_frac         0.04162470        0.10450421        0.38220013  C
       atom_frac         0.49529630        0.34496801        0.13446482  C
       atom_frac         0.99800973        0.40097727        0.13364768  C
       atom_frac         0.52848575        0.16867088        0.37087455  C
       atom_frac         0.17802338        0.03171675        0.23724370  H
       atom_frac         0.40123842        0.30912037        0.26999998  H
       atom_frac         0.86207221        0.45411279        0.26276289  H
       atom_frac         0.63653737        0.21752357        0.24470243  H
       atom_frac         0.20995005        0.16130808        0.13399418  H
       atom_frac         0.34739424        0.43094192        0.36629438  H
       atom_frac         0.81467348        0.33669949        0.36949419  H
       atom_frac         0.69105999        0.08201524        0.14740363  H
       atom_frac         0.17536530        0.21215657        0.50297634  H
       atom_frac         0.37076967        0.45945875        0.01738725  H
       atom_frac         0.83731251        0.30089310        0.00728822  H
       atom_frac         0.65756290        0.05310261        0.48651578  H
       atom_frac         0.06884656        0.16238636        0.34065034  H
       atom_frac         0.47636967        0.40202273        0.17714878  H
       atom_frac         0.96767094        0.34882239        0.17465038  H
       atom_frac         0.55220091        0.11109764        0.32868999  H
       atom_frac         0.10119254        0.01005202        0.67190396  C
       atom_frac         0.42731712        0.25102694        0.84550083  C
       atom_frac         0.91728089        0.48577525        0.83796073  C
       atom_frac         0.60555203        0.24506818        0.66673391  C
       atom_frac         0.13169307        0.08396616        0.61862038  C
       atom_frac         0.40026957        0.32896212        0.89696287  C
       atom_frac         0.90442368        0.41231818        0.89544082  C
       atom_frac         0.63467920        0.17506229        0.61040693  C
       atom_frac         0.07301232        0.05591279        0.52776467  C
       atom_frac         0.46278610        0.30029209        0.98984283  C
       atom_frac         0.96728110        0.44408923        0.98820855  C
       atom_frac         0.56470919        0.20721044        0.51904131  C
       atom_frac         0.07910822        0.12447054        0.95509526  C
       atom_frac         0.43721394        0.38234512        0.54146731  C
       atom_frac         0.94638453        0.38272138        0.54558174  C
       atom_frac         0.58268333        0.11704461        0.97230772  C
       atom_frac         0.00983512        0.08884596        0.86494376  C
       atom_frac         0.50104425        0.34732323        0.63109275  C
       atom_frac         1.01307142        0.41893182        0.63429396  C
       atom_frac         0.52190435        0.14693013        0.88241574  C
       atom_frac         0.14444656        0.03816094        0.74224710  H
       atom_frac         0.38096263        0.27292929        0.77594256  H
       atom_frac         0.86403047        0.45656734        0.76801669  H
       atom_frac         0.66793588        0.21844781        0.73937134  H
       atom_frac         0.18919576        0.16930135        0.64287634  H
       atom_frac         0.32774683        0.40973401        0.87022533  H
       atom_frac         0.85081892        0.32561195        0.87494578  H
       atom_frac         0.70703095        0.09249747        0.63733104  H
       atom_frac         0.15405387        0.20640320        0.98285684  H
       atom_frac         0.36175680        0.46385185        0.51694902  H
       atom_frac         0.88136106        0.29843266        0.52482158  H
       atom_frac         0.63974962        0.03218207        0.99600817  H
       atom_frac         0.03644491        0.14620539        0.82295770  H
       atom_frac         0.46505513        0.39796380        0.67211088  H
       atom_frac         0.99470295        0.36227104        0.67917332  H
       atom_frac         0.54047515        0.08802441        0.83874631  H
       atom_frac         0.10057688        0.50456397        0.17078704  C
       atom_frac         0.47246761        0.76394108        0.34903072  C
       atom_frac         0.94804899        0.99852694        0.34436497  C
       atom_frac         0.59851900        0.74376431        0.16728213  C
       atom_frac         0.13261718        0.57790572        0.11859765  C
       atom_frac         0.43480498        0.83305892        0.40166480  C
       atom_frac         0.92505972        0.92208754        0.39757561  C
       atom_frac         0.61991324        0.66496717        0.11387089  C
       atom_frac         0.06057692        0.54989478        0.02377691  C
       atom_frac         0.49077675        0.79786279        0.49166970  C
       atom_frac         0.98756294        0.94899832        0.49209195  C
       atom_frac         0.55456106        0.69172391        0.02121531  C
       atom_frac         0.08186213        0.62646886        0.45587073  C
       atom_frac         0.43831641        0.87547980        0.03816004  C
       atom_frac         0.94214593        0.87377946        0.03936155  C
       atom_frac         0.60855748        0.61907744        0.46758137  C
       atom_frac         0.01118000        0.59011616        0.36667314  C
       atom_frac         0.51414296        0.85093434        0.13075159  C
       atom_frac         1.01878881        0.90414983        0.13030199  C
       atom_frac         0.55752870        0.65560690        0.38081906  C
       atom_frac         0.15228388        0.52365320        0.24267467  H
       atom_frac         0.43328192        0.79305892        0.27957766  H
       atom_frac         0.89622079        0.97599327        0.27236442  H
       atom_frac         0.66751028        0.72272475        0.24050242  H
       atom_frac         0.20051397        0.66271044        0.14450893  H
       atom_frac         0.35602762        0.91402357        0.37186353  H
       atom_frac         0.85673423        0.83863468        0.37478348  H
       atom_frac         0.69798396        0.58320202        0.14317556  H
       atom_frac         0.16467216        0.70527104        0.48435967  H
       atom_frac         0.37197748        0.95842593        0.01018095  H
       atom_frac         0.85997717        0.79302609        0.01268307  H
       atom_frac         0.67700356        0.53742088        0.49728515  H
       atom_frac         0.03861297        0.64042172        0.32250922  H
       atom_frac         0.49947164        0.91547980        0.17169887  H
       atom_frac         0.99775210        0.85414983        0.17625870  H
       atom_frac         0.57812814        0.60067256        0.33390633  H
       atom_frac         0.10724612        0.52246212        0.66726487  C
       atom_frac         0.43087477        0.75378704        0.83768017  C
       atom_frac         0.90961543        0.98638047        0.82736251  C
       atom_frac         0.59977215        0.72339646        0.66953321  C
       atom_frac         0.12534409        0.59346212        0.60955052  C
       atom_frac         0.39616049        0.82585017        0.89091676  C
       atom_frac         0.88047789        0.91529461        0.88224740  C
       atom_frac         0.63165960        0.65459764        0.61496256  C
       atom_frac         0.05757373        0.56044024        0.51638579  C
       atom_frac         0.46245258        0.79739646        0.98390193  C
       atom_frac         0.95793268        0.94510101        0.97754019  C
       atom_frac         0.57697889        0.69070623        0.52489032  C
       atom_frac         0.08065871        0.62317677        0.96426962  C
       atom_frac         0.45297155        0.86774411        0.54682323  C
       atom_frac         0.94961219        0.87261785        0.54401410  C
       atom_frac         0.58351199        0.61839394        0.96525860  C
       atom_frac         0.01098597        0.59025758        0.87533857  C
       atom_frac         0.50435281        0.82883838        0.63212452  C
       atom_frac         1.00593541        0.90522727        0.63367813  C
       atom_frac         0.52946277        0.64939899        0.87539468  C
       atom_frac         0.17286307        0.54949832        0.74019198  H
       atom_frac         0.38283923        0.78017845        0.76617200  H
       atom_frac         0.84966157        0.96655724        0.75581927  H
       atom_frac         0.65001180        0.69704882        0.73927315  H
       atom_frac         0.19363374        0.67761532        0.63356590  H
       atom_frac         0.32356432        0.90620370        0.86605198  H
       atom_frac         0.80385720        0.83625421        0.85320926  H
       atom_frac         0.71021022        0.57312290        0.64201853  H
       atom_frac         0.14754172        0.70517172        0.98886787  H
       atom_frac         0.38527224        0.95015993        0.51877547  H
       atom_frac         0.87741408        0.79093434        0.51468488  H
       atom_frac         0.65101172        0.53419781        0.99192600  H
       atom_frac         0.03267030        0.64883333        0.83266513  H
       atom_frac         0.47763927        0.88370370        0.67508343  H
       atom_frac         0.96572713        0.84740741        0.67074805  H
       atom_frac         0.56027877        0.59040404        0.83716113  H

 
  Finished reading input file 'geometry.in'.
 

 
  Consistency checks for stacksize environment parameter are next.
 
  | Maximum stacksize for task 0: unlimited
  | Maximum stacksize for task 1: unlimited
  | Maximum stacksize for task 2: unlimited
  | Maximum stacksize for task 3: unlimited
  | Maximum stacksize for task 4: unlimited
  | Maximum stacksize for task 5: unlimited
  | Maximum stacksize for task 6: unlimited
  | Maximum stacksize for task 7: unlimited
  | Maximum stacksize for task 8: unlimited
  | Maximum stacksize for task 9: unlimited
  | Maximum stacksize for task 10: unlimited
  | Maximum stacksize for task 11: unlimited
  | Maximum stacksize for task 12: unlimited
  | Maximum stacksize for task 13: unlimited
  | Maximum stacksize for task 14: unlimited
  | Maximum stacksize for task 15: unlimited
  | Maximum stacksize for task 16: unlimited
  | Maximum stacksize for task 17: unlimited
  | Current stacksize for task 0: unlimited
  | Current stacksize for task 1: unlimited
  | Current stacksize for task 2: unlimited
  | Current stacksize for task 3: unlimited
  | Current stacksize for task 4: unlimited
  | Current stacksize for task 5: unlimited
  | Current stacksize for task 6: unlimited
  | Current stacksize for task 7: unlimited
  | Current stacksize for task 8: unlimited
  | Current stacksize for task 9: unlimited
  | Current stacksize for task 10: unlimited
  | Current stacksize for task 11: unlimited
  | Current stacksize for task 12: unlimited
  | Current stacksize for task 13: unlimited
  | Current stacksize for task 14: unlimited
  | Current stacksize for task 15: unlimited
  | Current stacksize for task 16: unlimited
  | Current stacksize for task 17: unlimited
 
  Consistency checks for the contents of control.in are next.
 
  MPI_IN_PLACE appears to work with this MPI implementation.
  | Keeping use_mpi_in_place .true. (see manual).
  Explicit treatment of the Coulomb operator is needed, but the RI method is not specified.
  Coulomb operator: Defaulting to 'LVL fast' resolution of identity - RI_type = LVL_fast
  Species H: Using default value for prodbas_acc =   1.000000E-06.
  Species H: Using default value max_l_prodbas =     6.
  Species C: Using default value for prodbas_acc =   1.000000E-06.
  Species C: Using default value max_l_prodbas =     6.
  Target number of points in a grid batch is not set.  Since GPU acceleration is enabled, defaulting to  200
  Method for grid partitioning is not set. Defaulting to parallel hash+maxmin partitioning.
  Batch size limit is not set. Defaulting to    200
  By default, will store active basis functions for each batch.
  If in need of memory, prune_basis_once .false. can be used to disable this option.
  communication_type for Hartree potential was not specified.
  Defaulting to calc_hartree .
  Defaulting to Pulay charge density mixer.
  Pulay mixer: Number of relevant iterations not set.
  Defaulting to    8 iterations.
  Pulay mixer: Number of initial linear mixing iterations not set.
  Defaulting to    0 iterations.
  Work space size for distributed Hartree potential not set.
  Defaulting to   0.200000E+03 MB.
  Algorithm-dependent basis array size parameters:
  | n_max_pulay                         :        8
  Maximum number of self-consistency iterations not provided.
  Presetting  1000 iterations.
  Presetting      1001 iterations before the initial mixing cycle
  is restarted anyway using the sc_init_iter criterion / keyword.
  Presetting a factor      1.000 between actual scf density residual
  and density convergence criterion sc_accuracy_rho below which sc_init_iter
  takes no effect.
 * No s.c.f. convergence criteria (sc_accuracy_*) were provided in control.in.
 * The run will proceed with a reasonable default guess, but please check whether.
 * the s.c.f. cycles seem to take too much or too little time.
  Geometry relaxation not requested: no relaxation will be performed.
 * Notice: The s.c.f. convergence criterion sc_accuracy_rho was not provided.
 * We used to stop in this case, and ask the user to provide reasonable
 * scf convergence criteria. However, this led some users to employ criteria
 * that led to extremely long run times, e.g., for simple relaxation.
 * We now preset a default value for sc_accuracy_rho if it is not set.
 * You may still wish to check if this setting is too tight or too loose for your needs.
 * Based on n_atoms and forces and force-correction status, FHI-aims chose sc_accuracy_rho =  0.391918E-04 .
  No accuracy limit for integral partition fn. given. Defaulting to  0.1000E-14.
  No threshold value for u(r) in integrations given. Defaulting to  0.1000E-05.
  No occupation type (smearing scheme) given. Defaulting to Gaussian broadening, width =  0.1000E-01 eV.
  The width will be adjusted in iteration number     2 of the first full s.c.f. cycle only.
  S.C.F. convergence parameters will be adjusted in iteration number     2 of the first full s.c.f. cycle only.
  No accuracy for occupation numbers given. Defaulting to  0.1000E-12.
  No threshold value for occupation numbers given. Defaulting to  0.0000E+00.
  No accuracy for fermi level given. Defaulting to  0.1000E-19.
  Maximum # of iterations to find E_F not set. Defaulting to  200.
  Preferred method for the eigenvalue solver ('KS_method') not specified in 'control.in'.
  Calling BLACS routine to test compilation state
  Since ScaLAPACK support is enabled, defaulting to ELPA (via ELSI).
  Will not use alltoall communication since running on < 1024 CPUs.
  Threshold for basis singularities not set.
  Default threshold for basis singularities:  0.1000E-04
  partition_type (choice of integration weights) for integrals was not specified.
  | Using a version of the partition function of Stratmann and coworkers ('stratmann_sparse').
  | At each grid point, the set of atoms used to build the partition table is smoothly restricted to
  | only those atoms whose free-atom density would be non-zero at that grid point.
  Partitioning for Hartree potential was not defined. Using partition_type for integrals.
  | Adjusted default value of keyword multip_moments_threshold to:       0.10000000E-11
  | This value may affect high angular momentum components of the Hartree potential in periodic systems.
  Angular momentum expansion for Kerker preconditioner not set explicitly.
  | Using default value of   0
  No explicit requirement for turning off preconditioner.
  | By default, it will be turned off when the charge convergence reaches
  | sc_accuracy_rho  =   0.391918E-04
  No special mixing parameter while Kerker preconditioner is on.
  Using default: charge_mix_param =     0.7500.
  Threshold for auxiliary basis singularities not set.
  Default threshold for auxiliary basis singularities:  0.1000E-04
  No q(lm)/r^(l+1) cutoff set for long-range Hartree potential.
  | Using default value of  0.100000E-09 .
  | Verify using the multipole_threshold keyword.
  Defaulting to new monopole extrapolation.
  Density update method: automatic selection selected.
  Using density matrix based charge density update.
  Using density matrix based charge density update.
  Using packed matrix style: index .
  Defaulting to use time-reversal symmetry for k-point grid.
  Charge integration errors on the 3D integration grid will be compensated
  by explicit normalization and distribution of residual charges.
  Use the "compensate_multipole_errors" flag to change this behaviour.
  Default to 1D ("use_logsbt") integrations for auxiliary 2-center integrals.
  Default onset of logarithmic r-grid for SBT is -38.000000000000
  Default onset of logarithmic k-grid for SBT is -25.000000000000
  Default range of logarithmic r- and k-grid for SBT is  45.000000000000
  Default number of logarithmic r- and k-grid for SBT is   4096
  Default of use_2d_corr is to use the efficient 2D distribution where possible
 
  Consistency checks for the contents of geometry.in are next.
 

  Range separation radius for Ewald summation (hartree_convergence_parameter):      2.91768261 bohr.
  Number of empty states per atom not set in control.in .
  | Since you are using a method that relies on the unoccupied spectrum
  | (MP2,GW,RPA et al.), will use the full Hamiltonian size (see below)
  | as the max. possible number of states (occupied plus empty).

  Structure-dependent array size parameters: 
  | Maximum number of distinct radial functions  :        9
  | Maximum number of basis functions            :     1440
  | Number of Kohn-Sham states (occupied + empty):     1440
------------------------------------------------------------
CUDA runtime version: 11060
CUDA driver version: 11060
  Initializing GPUs...

  Number of GPUs available to MPI task         0 :   1
  Number of GPUs available to MPI task         1 :   1
  Number of GPUs available to MPI task         2 :   1
  Number of GPUs available to MPI task         3 :   1
  Number of GPUs available to MPI task         4 :   1
  Number of GPUs available to MPI task         5 :   1
  Number of GPUs available to MPI task         6 :   1
  Number of GPUs available to MPI task         7 :   1
  Number of GPUs available to MPI task         8 :   1
  Number of GPUs available to MPI task         9 :   1
  Number of GPUs available to MPI task        10 :   1
  Number of GPUs available to MPI task        11 :   1
  Number of GPUs available to MPI task        12 :   1
  Number of GPUs available to MPI task        13 :   1
  Number of GPUs available to MPI task        14 :   1
  Number of GPUs available to MPI task        15 :   1
  Number of GPUs available to MPI task        16 :   1
  Number of GPUs available to MPI task        17 :   1

  | MPI task         0, GPU activated = T, Device Name = NVIDIA A100-SXM4-80GB
  | MPI task         1, GPU activated = T, Device Name = NVIDIA A100-SXM4-80GB
  | MPI task         2, GPU activated = T, Device Name = NVIDIA A100-SXM4-80GB
  | MPI task         3, GPU activated = T, Device Name = NVIDIA A100-SXM4-80GB
  | MPI task         4, GPU activated = T, Device Name = NVIDIA A100-SXM4-80GB
  | MPI task         5, GPU activated = T, Device Name = NVIDIA A100-SXM4-80GB
  | MPI task         6, GPU activated = T, Device Name = NVIDIA A100-SXM4-80GB
  | MPI task         7, GPU activated = T, Device Name = NVIDIA A100-SXM4-80GB
  | MPI task         8, GPU activated = T, Device Name = NVIDIA A100-SXM4-80GB
  | MPI task         9, GPU activated = T, Device Name = NVIDIA A100-SXM4-80GB
  | MPI task        10, GPU activated = T, Device Name = NVIDIA A100-SXM4-80GB
  | MPI task        11, GPU activated = T, Device Name = NVIDIA A100-SXM4-80GB
  | MPI task        12, GPU activated = T, Device Name = NVIDIA A100-SXM4-80GB
  | MPI task        13, GPU activated = T, Device Name = NVIDIA A100-SXM4-80GB
  | MPI task        14, GPU activated = T, Device Name = NVIDIA A100-SXM4-80GB
  | MPI task        15, GPU activated = T, Device Name = NVIDIA A100-SXM4-80GB
  | MPI task        16, GPU activated = T, Device Name = NVIDIA A100-SXM4-80GB
  | MPI task        17, GPU activated = T, Device Name = NVIDIA A100-SXM4-80GB

------------------------------------------------------------
          Preparing all fixed parts of the calculation.
------------------------------------------------------------
  Determining machine precision:
    2.225073858507201E-308
  Setting up grids for atomic and cluster calculations.

  Creating wave function, potential, and density for free atoms.
  Runtime choices for atomic solver:
  | atomic solver xc        : PW-LDA
  | compute density gradient: 0
  | compute kinetic density : F

  Species: H

  List of occupied orbitals and eigenvalues:
    n    l              occ      energy [Ha]    energy [eV]
    1    0           1.0000        -0.232375        -6.3233


  Species: C

  List of occupied orbitals and eigenvalues:
    n    l              occ      energy [Ha]    energy [eV]
    1    0           2.0000        -9.944615      -270.6068
    2    0           2.0000        -0.498807       -13.5732
    2    1           2.0000        -0.196968        -5.3598


  Adding cutoff potential to free-atom effective potential.
  Creating fixed part of basis set: Ionic, confined, hydrogenic.
 
  H                    hydrogenic:
 
  List of hydrogenic basis orbitals: 
    n    l      effective z      eigenvalue [eV]  inner max. [A]     outer max. [A]     outer radius [A]   
    2    0         2.100000       -14.9728           0.193243           1.317208           4.583499
    2    1         3.500000       -41.6669           0.602369           0.602369           3.723403
 
 
  C                    hydrogenic:
 
  List of hydrogenic basis orbitals: 
    n    l      effective z      eigenvalue [eV]  inner max. [A]     outer max. [A]     outer radius [A]   
    2    1         1.700000        -9.7616           1.230570           1.230570           4.607917
    3    2         6.000000       -54.4224           0.792453           0.792453           3.883070
    2    0         4.900000       -81.6679           0.082559           0.562749           3.078220
 
  Creating atomic-like basis functions for current effective potential.

  Species H                   :

  List of atomic basis orbitals and eigenvalues:
    n    l      energy [Ha]    energy [eV]    outer radius [A]
    1    0        -0.232375        -6.3233       4.527807


  Species C                   :

  List of atomic basis orbitals and eigenvalues:
    n    l      energy [Ha]    energy [eV]    outer radius [A]
    1    0        -9.944615      -270.6068       1.934409
    2    0        -0.498807       -13.5732       4.496620
    2    1        -0.196968        -5.3598       4.551928

  Assembling full basis from fixed parts.
  | Species H :   atomic orbital   1 s accepted.
  | Species H :    hydro orbital   2 s accepted.
  | Species H :    hydro orbital   2 p accepted.
  | Species C :   atomic orbital   1 s accepted.
  | Species C :    hydro orbital   2 s accepted.
  | Species C :   atomic orbital   2 s accepted.
  | Species C :   atomic orbital   2 p accepted.
  | Species C :    hydro orbital   2 p accepted.
  | Species C :    hydro orbital   3 d accepted.
 
  Basis size parameters after reduction:
  | Total number of radial functions:        9
  | Total number of basis functions :     1440
 
  Per-task memory consumption for arrays in subroutine allocate_ext:
  |           2.242384MB.
  Testing on-site integration grid accuracy.
  |  Species  Function  <phi|h_atom|phi> (log., in eV)  <phi|h_atom|phi> (rad., in eV)
           1        1                 -6.3245358373                 -6.3232436907
           1        2                 14.1326137532                 14.1384481100
           1        3                 25.3627025200                 25.3628451197
           2        4               -270.6067544938               -270.6067222788
           2        5                -10.5634280949                -10.5635685736
           2        6                 16.2089822398                 16.2052121796
           2        7                 -5.3613872565                 -5.3627872378
           2        8                  8.5292058327                  8.5051734780
           2        9                 27.4884461005                 27.4884542459

  Preparing densities etc. for the partition functions (integrals / Hartree potential).

  Preparations completed.
  max(cpu_time)          :      0.091 s.
  Wall clock time (cpu1) :      0.084 s.
------------------------------------------------------------

  Initializing index lists of integration centers etc. from given atomic structure:
  Mapping all atomic coordinates to central unit cell.

  Initializing the k-points
  Using symmetry for reducing the k-points
  | k-points reduced from:        2 to        2
  | Number of k-points                             :         2
  | Consuming          0 KiB for k_phase_exx.
  The eigenvectors in the calculations are REAL.
  | Number of basis functions in the Hamiltonian integrals :      8075
  | Number of basis functions in a single unit cell        :      1440
  | Number of centers in hartree potential         :      3334
  | Number of centers in hartree multipole         :      2550
  | Number of centers in electron density summation:      2003
  | Number of centers in basis integrals           :      2125
  | Number of centers in integrals                 :       969
  | Number of centers in hamiltonian               :      2012
  | Consuming          1 KiB for k_phase.
  | Number of super-cells (origin) [n_cells]                     :         175
  | Number of super-cells (after PM_index) [n_cells]             :          38
  | Number of super-cells in hamiltonian [n_cells_in_hamiltonian]:          38
  | Size of matrix packed + index [n_hamiltonian_matrix_size] :     1931594
  | Size of matrix packed + index (no_symmetry):     3860371

------------------------------------------------------------
          Begin self-consistency loop: Initialization.

          Date     :  20230120, Time     :  155931.223
------------------------------------------------------------
  | Estimated reciprocal-space cutoff momentum G_max:         3.24344278 bohr^-1 .
  | Reciprocal lattice points for long-range Hartree potential:    5310
  Using simple linear distribution as default method for k-point parallelism.
  * Using 18 tasks for Scalapack Eigenvalue solver.
  Detailed listing of tasks and assigned k-points:
   Task     0 k-point     1 on adag005
   Task     1 k-point     1 on adag005
   Task     2 k-point     1 on adag005
   Task     3 k-point     1 on adag005
   Task     4 k-point     1 on adag005
   Task     5 k-point     1 on adag005
   Task     6 k-point     1 on adag005
   Task     7 k-point     1 on adag005
   Task     8 k-point     1 on adag005
   Task     9 k-point     2 on adag005
   Task    10 k-point     2 on adag005
   Task    11 k-point     2 on adag005
   Task    12 k-point     2 on adag005
   Task    13 k-point     2 on adag005
   Task    14 k-point     2 on adag005
   Task    15 k-point     2 on adag005
   Task    16 k-point     2 on adag005
   Task    17 k-point     2 on adag005
  K-point:     1 Tasks:     9 split into      3 X      3 BLACS grid
  Calculating block size based on n_basis =         1440  max_nprow =            3  max_npcol =            3
  ScaLAPACK block size set to:           16
  Allocating        1.758 MB for ovlp
  Allocating        1.758 MB for ham
  Allocating        1.758 MB for eigenvec
  Required Scalapack workspace - INTEGER:            1  REAL:             1
  Partitioning the integration grid into batches with parallel hashing+maxmin method.
  | Number of batches:     5376
  | Maximal batch size:     197
  | Minimal batch size:      99
  | Average batch size:     142.083
  | Standard deviation of batch sizes:      30.839

  Integration load balanced across    18 MPI tasks.
  Work distribution over tasks is as follows:
  Task     0 has      42417 integration points.
  Task     1 has      42423 integration points.
  Task     2 has      42422 integration points.
  Task     3 has      42429 integration points.
  Task     4 has      42427 integration points.
  Task     5 has      42434 integration points.
  Task     6 has      42435 integration points.
  Task     7 has      42479 integration points.
  Task     8 has      42443 integration points.
  Task     9 has      42480 integration points.
  Task    10 has      42443 integration points.
  Task    11 has      42425 integration points.
  Task    12 has      42412 integration points.
  Task    13 has      42420 integration points.
  Task    14 has      42415 integration points.
  Task    15 has      42504 integration points.
  Task    16 has      42431 integration points.
  Task    17 has      42401 integration points.
  Initializing partition tables, free-atom densities, potentials, etc. across the integration grid (initialize_grid_storage).
  | initialize_grid_storage: Actual outermost partition radius vs. multipole_radius_free
  | (-- VB: in principle, multipole_radius_free should be larger, hence this output)
  | Species        1: Confinement radius =              4.999999999999999 AA, multipole_radius_free =              5.054417573612229 AA.
  | Species        1: outer_partition_radius set to              5.054417573612229 AA .
  | Species        2: Confinement radius =              4.999999999999999 AA, multipole_radius_free =              5.019602836301480 AA.
  | Species        2: outer_partition_radius set to              5.019602836301480 AA .
  | The sparse table of interatomic distances needs       7659.85 kbyte instead of     36125.00 kbyte of memory.
  | Net number of integration points:   763840
  | of which are non-zero points    :   605210
  | Numerical average free-atom electrostatic potential    :     -8.61466491 eV
  Renormalizing the initial density to the exact electron count on the 3D integration grid.
  | Initial density: Formal number of electrons (from input files) :     544.0000000000
  | Integrated number of electrons on 3D grid     :     543.9955384024
  | Charge integration error                      :      -0.0044615976
  | Normalization factor for density and gradient :       1.0000082015
  Renormalizing the free-atom superposition density to the exact electron count on the 3D integration grid.
  | Formal number of electrons (from input files) :     544.0000000000
  | Integrated number of electrons on 3D grid     :     543.9955384024
  | Charge integration error                      :      -0.0044615976
  | Normalization factor for density and gradient :       1.0000082015
  Obtaining max. number of non-zero basis functions in each batch (get_n_compute_maxes).
  | Maximal number of non-zero basis functions:      543 in task     0
  | Maximal number of non-zero basis functions:      543 in task     1
  | Maximal number of non-zero basis functions:      540 in task     2
  | Maximal number of non-zero basis functions:      567 in task     3
  | Maximal number of non-zero basis functions:      541 in task     4
  | Maximal number of non-zero basis functions:      539 in task     5
  | Maximal number of non-zero basis functions:      548 in task     6
  | Maximal number of non-zero basis functions:      533 in task     7
  | Maximal number of non-zero basis functions:      537 in task     8
  | Maximal number of non-zero basis functions:      562 in task     9
  | Maximal number of non-zero basis functions:      543 in task    10
  | Maximal number of non-zero basis functions:      548 in task    11
  | Maximal number of non-zero basis functions:      524 in task    12
  | Maximal number of non-zero basis functions:      538 in task    13
  | Maximal number of non-zero basis functions:      541 in task    14
  | Maximal number of non-zero basis functions:      549 in task    15
  | Maximal number of non-zero basis functions:      552 in task    16
  | Maximal number of non-zero basis functions:      537 in task    17
  Integrating Hamiltonian matrix: batch-based integration.
  GPU acceleration will be used when integrating the Hamiltonian matrix.
  Reporting GPU memory usage by myid 0.  Note that it is likely not the only MPI task binding to its GPU!
  Allocating        2.359 MB on GPU for hamiltonian_shell
  Allocating        0.856 MB on GPU for wave
  Allocating        0.002 MB on GPU for partition
  Allocating        0.856 MB on GPU for h_times_psi
  Time summed over all CPUs for integration: real work       34.261 s, elapsed       35.225 s
  Deallocating memory used on GPU for Hamiltonian integration.
  Integrating overlap matrix.
  Time summed over all CPUs for integration: real work       29.720 s, elapsed       31.674 s
  Deallocating overlap matrix.

  Updating Kohn-Sham eigenvalues and eigenvectors using ELSI and the ELPA eigensolver.
  Singularity check in k-point 1 (analysis for other k-points may follow below):
  Overlap matrix is not singular
  | Lowest and highest eigenvalues :  0.7727E-03,  0.8252E+01
  Finished singularity check of overlap matrix
  | Time :     0.123 s
  Starting ELPA eigensolver
  Finished Cholesky decomposition
  | Time :     0.020 s
  Finished transformation to standard eigenproblem
  | Time :     0.033 s
  Finished solving standard eigenproblem
  | Time :     0.261 s
  Finished back-transformation of eigenvectors
  | Time :     0.021 s

  Obtaining occupation numbers and electronic chemical potential using ELSI.
  | Note that, for insulating systems, the printed 'chemical potential' value is not uniquely defined.
  | It can be anywhere in the energy gap, as long as it correctly separates occupied and unoccupied states.
  | In systems with a gap, the physically relevant chemical potential is the VBM or HOMO.

  | Chemical potential (Fermi level):    -7.96179169 eV
  Writing Kohn-Sham eigenvalues.
  K-point:       1 at    0.000000    0.000000    0.000000 (in units of recip. lattice)

  State    Occupation    Eigenvalue [Ha]    Eigenvalue [eV]
      1       2.00000         -10.068466         -273.97690
      2       2.00000         -10.068410         -273.97538
      3       2.00000         -10.068395         -273.97496
      4       2.00000         -10.068377         -273.97447
      5       2.00000         -10.068360         -273.97402
      6       2.00000         -10.068163         -273.96865
      7       2.00000         -10.067935         -273.96244
      8       2.00000         -10.067681         -273.95554
      9       2.00000         -10.067425         -273.94858
     10       2.00000         -10.066423         -273.92131
     11       2.00000         -10.066092         -273.91231
     12       2.00000         -10.065794         -273.90419
     13       2.00000         -10.065642         -273.90007
     14       2.00000         -10.065613         -273.89927
     15       2.00000         -10.065439         -273.89452
     16       2.00000         -10.065327         -273.89150
     17       2.00000         -10.065042         -273.88372
     18       2.00000         -10.064900         -273.87986
     19       2.00000         -10.064681         -273.87389
     20       2.00000         -10.064675         -273.87375
     21       2.00000         -10.064357         -273.86510
     22       2.00000         -10.064289         -273.86325
     23       2.00000         -10.064286         -273.86315
     24       2.00000         -10.064267         -273.86263
     25       2.00000         -10.064211         -273.86110
     26       2.00000         -10.063766         -273.84901
     27       2.00000         -10.063660         -273.84613
     28       2.00000         -10.063603         -273.84457
     29       2.00000         -10.063537         -273.84277
     30       2.00000         -10.063513         -273.84212
     31       2.00000         -10.063420         -273.83960
     32       2.00000         -10.063371         -273.83827
     33       2.00000         -10.063322         -273.83692
     34       2.00000         -10.063159         -273.83248
     35       2.00000         -10.063119         -273.83140
     36       2.00000         -10.063098         -273.83083
     37       2.00000         -10.063073         -273.83014
     38       2.00000         -10.062967         -273.82726
     39       2.00000         -10.062794         -273.82256
     40       2.00000         -10.062610         -273.81756
     41       2.00000         -10.062386         -273.81144
     42       2.00000         -10.062360         -273.81074
     43       2.00000         -10.062272         -273.80834
     44       2.00000         -10.062196         -273.80630
     45       2.00000         -10.062048         -273.80226
     46       2.00000         -10.062024         -273.80160
     47       2.00000         -10.061903         -273.79831
     48       2.00000         -10.061779         -273.79495
     49       2.00000         -10.061768         -273.79462
     50       2.00000         -10.061751         -273.79418
     51       2.00000         -10.061722         -273.79339
     52       2.00000         -10.061653         -273.79150
     53       2.00000         -10.061591         -273.78982
     54       2.00000         -10.061349         -273.78322
     55       2.00000         -10.061326         -273.78260
     56       2.00000         -10.061210         -273.77944
     57       2.00000         -10.061197         -273.77911
     58       2.00000         -10.061044         -273.77493
     59       2.00000         -10.061042         -273.77488
     60       2.00000         -10.060555         -273.76164
     61       2.00000         -10.060467         -273.75924
     62       2.00000         -10.060090         -273.74899
     63       2.00000         -10.059831         -273.74192
     64       2.00000         -10.059801         -273.74112
     65       2.00000         -10.059440         -273.73129
     66       2.00000         -10.059094         -273.72187
     67       2.00000         -10.058758         -273.71273
     68       2.00000         -10.058747         -273.71244
     69       2.00000         -10.058648         -273.70973
     70       2.00000         -10.058630         -273.70925
     71       2.00000         -10.058551         -273.70709
     72       2.00000         -10.058381         -273.70248
     73       2.00000         -10.058364         -273.70201
[...]
  |    H      0     4.527807 A      4.583499 A        4.713786E-16 a.u.
  |    H      2     3.678162 A  1.011968E+04 A            0.556529 a.u.
  |    H      1     3.958095 A  1.721251E+06 A            0.841931 a.u.
  |    H      0     4.527807 A  3.866455E+12 A            0.581436 a.u.
  |    C      0     2.562483 A      2.562483 A        6.563029E-17 a.u.
  |    C      0     2.967371 A      2.967371 A        1.352164E-16 a.u.
  |    C      0     3.003870 A      3.003870 A        2.312640E-17 a.u.
  |    C      1     3.272245 A      3.272245 A       -3.835259E-17 a.u.
  |    C      0     3.312494 A      3.312494 A       -2.710381E-16 a.u.
  |    C      3     4.077671 A      4.077671 A       -1.683752E-15 a.u.
  |    C      3     4.077671 A      4.077671 A        1.412852E-15 a.u.
  |    C      1     4.496620 A      4.496620 A       -3.011059E-16 a.u.
  |    C      0     4.496620 A      4.551928 A        2.873903E-17 a.u.
  |    C      2     4.551928 A      4.551928 A       -4.610785E-16 a.u.
  |    C      2     4.551928 A      4.551928 A        7.440584E-16 a.u.
  |    C      2     4.551928 A      4.551928 A       -7.110458E-16 a.u.
  |    C      2     4.551928 A      4.551928 A       -1.935424E-16 a.u.
  |    C      0     4.551928 A      4.607917 A        2.067142E-16 a.u.
  |    C      0     4.551928 A      4.607917 A       -1.109786E-16 a.u.
  |    C      1     4.551928 A      4.607917 A       -9.951742E-17 a.u.
  |    C      1     4.551928 A      4.607917 A        1.937809E-16 a.u.
  |    C      1     4.607917 A      4.607917 A       -2.813308E-16 a.u.
  |    C      1     4.607917 A      4.607917 A       -7.330363E-17 a.u.
  |    C      2     4.607917 A      4.607917 A        1.318462E-15 a.u.
  |    C      2     4.607917 A      4.607917 A       -1.318397E-15 a.u.
  |    C      0     4.607917 A      4.664595 A        3.157826E-16 a.u.
  |    C      1     4.607917 A      4.664595 A        7.356967E-16 a.u.
  |    C      4     3.835889 A  2.962973E+02 A            4.379483 a.u.
  |    C      3     4.127827 A  1.725964E+03 A            9.005588 a.u.
  |    C      2     4.607917 A  2.608475E+04 A            9.531178 a.u.
  |    C      1     4.607917 A  2.736013E+06 A            2.127278 a.u.
  |    C      0     4.607917 A  4.399765E+12 A            0.661635 a.u.

  | Shrink_full_auxil_basis : there are       36  radial auxiliary wave functions
                            accepted and       7 rejected.
  | Shrink_full_auxil_basis : there are totally                8992 partial auxiliary wave functions.
 
  | Maximal number of product basis functions per thread :   512   512
 
  | Minimal total memory requirement for three-center overlap :      72.476 Gbs
  | Number of local auxiliary basis functions on task:      0   512
  | Number of local auxiliary basis functions on task:      1   512
  | Number of local auxiliary basis functions on task:      2   512
  | Number of local auxiliary basis functions on task:      3   512
  | Number of local auxiliary basis functions on task:      4   496
  | Number of local auxiliary basis functions on task:      5   496
  | Number of local auxiliary basis functions on task:      6   496
  | Number of local auxiliary basis functions on task:      7   496
  | Number of local auxiliary basis functions on task:      8   496
  | Number of local auxiliary basis functions on task:      9   496
  | Number of local auxiliary basis functions on task:     10   496
  | Number of local auxiliary basis functions on task:     11   496
  | Number of local auxiliary basis functions on task:     12   496
  | Number of local auxiliary basis functions on task:     13   496
  | Number of local auxiliary basis functions on task:     14   496
  | Number of local auxiliary basis functions on task:     15   496
  | Number of local auxiliary basis functions on task:     16   496
  | Number of local auxiliary basis functions on task:     17   496
  | 2D aux task distribution:      3 X      6
  | 2D block size (nb_aux_2d):     64
 
  Basis pair condensation :   1037520  -->     545270
 
 --------------------------------------------
  Constructing auxiliary basis (full product) ...
 
  Product basis:
  | charge radius: extent of product basis function
  | field radius: extent of its Coulomb potential
  | Species   l  charge radius    field radius  multipol momen
  |    H      1     3.910002 A      3.910002 A       -2.487223E-16 a.u.
  |    H      1     3.958095 A      3.958095 A       -2.441841E-16 a.u.
  |    H      0     4.527807 A      4.527807 A        1.268855E-16 a.u.
  |    H      0     4.527807 A      4.583499 A       -4.900954E-17 a.u.
  |    H      0     4.527807 A      4.583499 A        4.713786E-16 a.u.
  |    H      2     3.678162 A  1.011968E+04 A            0.556529 a.u.
  |    H      1     3.958095 A  1.721251E+06 A            0.841931 a.u.
  |    H      0     4.527807 A  3.866455E+12 A            0.581436 a.u.
  |    C      0     2.562483 A      2.562483 A        6.563029E-17 a.u.
  |    C      0     2.967371 A      2.967371 A        1.352164E-16 a.u.
  |    C      0     3.003870 A      3.003870 A        2.312640E-17 a.u.
  |    C      1     3.272245 A      3.272245 A       -3.835259E-17 a.u.
  |    C      0     3.312494 A      3.312494 A       -2.710381E-16 a.u.
  |    C      3     4.077671 A      4.077671 A       -1.683752E-15 a.u.
  |    C      3     4.077671 A      4.077671 A        1.412852E-15 a.u.
  |    C      1     4.496620 A      4.496620 A       -3.011059E-16 a.u.
  |    C      0     4.496620 A      4.551928 A        2.873903E-17 a.u.
  |    C      2     4.551928 A      4.551928 A       -4.610785E-16 a.u.
  |    C      2     4.551928 A      4.551928 A        7.440584E-16 a.u.
  |    C      2     4.551928 A      4.551928 A       -7.110458E-16 a.u.
  |    C      2     4.551928 A      4.551928 A       -1.935424E-16 a.u.
  |    C      0     4.551928 A      4.607917 A        2.067142E-16 a.u.
  |    C      0     4.551928 A      4.607917 A       -1.109786E-16 a.u.
  |    C      1     4.551928 A      4.607917 A       -9.951742E-17 a.u.
  |    C      1     4.551928 A      4.607917 A        1.937809E-16 a.u.
  |    C      1     4.607917 A      4.607917 A       -2.813308E-16 a.u.
  |    C      1     4.607917 A      4.607917 A       -7.330363E-17 a.u.
  |    C      2     4.607917 A      4.607917 A        1.318462E-15 a.u.
  |    C      2     4.607917 A      4.607917 A       -1.318397E-15 a.u.
  |    C      0     4.607917 A      4.664595 A        3.157826E-16 a.u.
  |    C      1     4.607917 A      4.664595 A        7.356967E-16 a.u.
  |    C      4     3.835889 A  2.962973E+02 A            4.379483 a.u.
  |    C      3     4.127827 A  1.725964E+03 A            9.005588 a.u.
  |    C      2     4.607917 A  2.608475E+04 A            9.531178 a.u.
  |    C      1     4.607917 A  2.736013E+06 A            2.127278 a.u.
  |    C      0     4.607917 A  4.399765E+12 A            0.661635 a.u.

  | Shrink_full_auxil_basis : there are       36  radial auxiliary wave functions
                            accepted and       7 rejected.
  | Shrink_full_auxil_basis : there are totally                8992 partial auxiliary wave functions.
 
  | Maximal number of product basis functions per thread :   512   512
 
  | Minimal total memory requirement for three-center overlap :      72.476 Gbs
  | Number of local auxiliary basis functions on task:      0   512
  | Number of local auxiliary basis functions on task:      1   512
  | Number of local auxiliary basis functions on task:      2   512
  | Number of local auxiliary basis functions on task:      3   512
  | Number of local auxiliary basis functions on task:      4   496
  | Number of local auxiliary basis functions on task:      5   496
  | Number of local auxiliary basis functions on task:      6   496
  | Number of local auxiliary basis functions on task:      7   496
  | Number of local auxiliary basis functions on task:      8   496
  | Number of local auxiliary basis functions on task:      9   496
  | Number of local auxiliary basis functions on task:     10   496
  | Number of local auxiliary basis functions on task:     11   496
  | Number of local auxiliary basis functions on task:     12   496
  | Number of local auxiliary basis functions on task:     13   496
  | Number of local auxiliary basis functions on task:     14   496
  | Number of local auxiliary basis functions on task:     15   496
  | Number of local auxiliary basis functions on task:     16   496
  | Number of local auxiliary basis functions on task:     17   496
  | 2D aux task distribution:      3 X      6
  | 2D block size (nb_aux_2d):     64
 
  Basis pair condensation :   1037520  -->     545270
  Allocating        0.069 MB for t_coeff
  Allocating        0.034 MB for basbas_idx
  Allocating        0.069 MB for wave
  Allocating        0.069 MB for total_wave
  Allocating        0.206 MB for wave_gradient
  Allocating        0.206 MB for total_wave_grad
 HERE1
 HERE2
  Deallocating        0.069 MB for t_coeff
  Deallocating        0.034 MB for basbas_idx
  Deallocating        0.069 MB for wave
  Deallocating        0.206 MB for wave_gradient
  Deallocating        0.206 MB for total_wave_grad
dP_dE (Bohr^3) at every cycle:--->
 (991.686453092352,0.000000000000000E+000) (5.42652902658450,0.000000000000000E+000) (-459.146092644481,0.000000000000000E+000)
 (5.52261841415098,0.000000000000000E+000) (1383.92170336961,0.000000000000000E+000) (-6.66073814848292,0.000000000000000E+000)
 (-459.353841802062,0.000000000000000E+000) (-6.71292037094754,0.000000000000000E+000) (1678.29032198214,0.000000000000000E+000)
DFPT polarizability (Bohr^3)        xx        yy        zz        xy        xz        yz
  | Polarizability:--->                       991.686453092                 1383.921703370                 1678.290321982                    5.426529027                 -459.146092644                   -6.660738148

DFPT for dielectric_constant:--->  # PARSE DFPT_dielectric_tensor
               2.345697363744272             0.007363684138858            -0.623051453933315
               0.007494075388157             2.877952231822542            -0.009038479591058
              -0.623333365108773            -0.009109289753874             3.277404168269479

                                               :  max(cpu_time)    wall_clock(cpu1)
  | Time for  dielectric calculation            :        0.000 s           0.000 s
===========================================================================

------------------------------------------------------------------------------
  Final output of selected total energy values:

  The following output summarizes some interesting total energy values
  at the end of a run (AFTER all relaxation, molecular dynamics, etc.).

  | Total energy of the DFT / Hartree-Fock s.c.f. calculation      :         -83267.784210423 eV
  | Final zero-broadening corrected energy (caution - metals only) :         -83267.784210423 eV
  | For reference only, the value of 1 Hartree used in FHI-aims is :             27.211384500 eV
  | For reference only, the overall average (free atom contribution
  | + realspace contribution) of the electrostatic potential after
  | s.c.f. convergence is                                          :             -7.698620965 eV

  Before relying on these values, please be sure to understand exactly which
  total energy value is referred to by a given number. Different objects may
  all carry the same name 'total energy'. Definitions:

  Total energy of the DFT / Hartree-Fock s.c.f. calculation:
  | Note that this energy does not include ANY quantities calculated after the
  | s.c.f. cycle, in particular not ANY RPA, MP2, etc. many-body perturbation terms.

  Final zero-broadening corrected energy:
  | For metallic systems only, a broadening of the occupation numbers at the Fermi
  | level can be extrapolated back to zero broadening by an electron-gas inspired
  | formula. For all systems that are not real metals, this value can be
  | meaningless and should be avoided.

------------------------------------------------------------------------------
  Methods described in the following list of references were used in this FHI-aims run.
  If you publish the results, please make sure to cite these reference if they apply.
  FHI-aims is an academic code, and for our developers (often, Ph.D. students
  and postdocs), scientific credit in the community is essential.
  Thank you for helping us!

  For any use of FHI-aims, please cite:

    Volker Blum, Ralf Gehrke, Felix Hanke, Paula Havu, Ville Havu,
    Xinguo Ren, Karsten Reuter, and Matthias Scheffler
    'Ab initio molecular simulations with numeric atom-centered orbitals'
    Computer Physics Communications 180, 2175-2196 (2009)
    http://doi.org/10.1016/j.cpc.2009.06.022


  For Hartree-Fock, hybrid functionals, or many-body perturbation theory used in your run, please cite:

    Xinguo Ren, Patrick Rinke, Volker Blum, Juergen Wieferink, Alex Tkatchenko,
    Andrea Sanfilippo, Karsten Reuter, and Matthias Scheffler,
    'Resolution-of-identity approach to Hartree-Fock, hybrid density functionals,
    RPA, MP2, and GW with numeric atom-centered orbital basis functions'
    New Journal of Physics 14, 053020 (2012).
    http://doi.org/10.1088/1367-2630/14/5/053020


  The provided symmetry information was generated with SPGlib:

    Atsushi Togo, Yusuke Seto, Dimitar Pashov
    SPGlib 1.7.3 obtained from http://spglib.sourceforge.net
    Copyright (C) 2008 Atsushi Togo


  The DFPT (perturbation by an electric field) part of the code was used.
  Here is the corresponding reference:

    Honghui Shang, Nathaniel Raimbault, Mariana Rossi,
    Christian Carbogno, Patrick Rinke and Matthias Scheffler,
    'All-Electron, Real-Space Perturbation Theory for Homogeneous
    Electric Fields: Theory, Implementation, and Application within dft'
    New Journal of Physics, 20(7):073040, 2018


  The ELSI infrastructure was used in your run to solve the Kohn-Sham electronic structure.
  Please check out http://elsi-interchange.org to learn more.
  If scalability is important for your project, please acknowledge ELSI by citing:

    V. W-z. Yu, F. Corsetti, A. Garcia, W. P. Huhn, M. Jacquelin, W. Jia,
    B. Lange, L. Lin, J. Lu, W. Mi, A. Seifitokaldani, A. Vazquez-Mayagoitia,
    C. Yang, H. Yang, and V. Blum
    'ELSI: A unified software interface for Kohn-Sham electronic structure solvers'
    Computer Physics Communications 222, 267-285 (2018).
    http://doi.org/10.1016/j.cpc.2017.09.007


  For the real-space grid partitioning and parallelization used in this calculation, please cite:

    Ville Havu, Volker Blum, Paula Havu, and Matthias Scheffler,
    'Efficient O(N) integration for all-electron electronic structure calculation'
    'using numerically tabulated basis functions'
    Journal of Computational Physics 228, 8367-8379 (2009).
    http://doi.org/10.1016/j.jcp.2009.08.008


  The high-level electronic structure method used in your calculation
  employed our efficient localized resolution of identity for the Coulomb operator.
  Some calculations, especially large-scale hybrid density functional theory,
  are only possible thanks to this development. For this feature, please cite:

    Arvid Ihrig, Juergen Wieferink, Igor Ying Zhang, Matti Ropo, Xinguo Ren,
    Patrick Rinke, Matthias Scheffler, and Volker Blum,
    'Accurate localized resolution of identity approach for linear-scaling
    hybrid density functionals and for many-body perturbation theory'
    New Journal of Physics 117, 093020 (2015).
    http://doi.org/10.1088/1367-2630/17/9/093020

  Of course, there are many other important community references, e.g., those cited in the
  above references. Our list is limited to references that describe implementations in the
  FHI-aims code. The reason is purely practical (length of this list) - please credit others as well.

------------------------------------------------------------
          Leaving FHI-aims.
          Date     :  20230120, Time     :  162417.828

          Computational steps:
          | Number of self-consistency cycles          :           46
          | Number of SCF (re)initializations          :            1
          | Number of coupled perturbed self-consistency cycles          :            0
          | Number of CPSCF (re)initializations          :            0

          Detailed time accounting                     :  max(cpu_time)    wall_clock(cpu1)
          | Total time                                  :     1489.582 s        1509.255 s
          | GPU initialization                          :        2.598 s          21.433 s
          | Preparation time                            :        0.091 s           0.084 s
          | Boundary condition initalization            :        0.993 s           0.993 s
          | Grid partitioning                           :        1.251 s           1.251 s
          | Preloading free-atom quantities on grid     :        4.085 s           4.086 s
          | Free-atom superposition energy              :        0.509 s           0.510 s
          | Total time for integrations                 :       29.095 s          29.249 s
          | Product basis setup: Total time             :        0.000 s           0.000 s
          | Product basis: | 2-center integrations     :(       0.000 s)  (       0.000 s)
          | Product basis: | LVL 3-center & coefficient:(       0.000 s)  (       0.000 s)
          | Total time for solution of K.-S. equations  :        4.312 s           4.315 s
          | Total time for density update               :       21.123 s          21.295 s
          | Total time for mixing & preconditioning     :       12.876 s          12.882 s
          | Total time for Hartree multipole update     :        0.094 s           0.095 s
          | Total time for Hartree multipole sum        :       46.465 s          46.479 s
          | Total time for total energy evaluation      :        0.007 s           0.002 s
          | Total time first_order_DM                   :        1.868 s           1.870 s
          | Total time first_order_density              :      303.644 s         303.727 s
          | Total time first_order_potential            :      120.262 s         120.299 s
          | Total time first_order_H                    :      579.740 s         579.883 s
          | Total time solving of Sternheimer equations :        1.762 s           1.763 s
          | Total time for dielectric constant          :        0.000 s           0.000 s
          | Total time momentum matrix                  :        0.000 s           0.000 s

          GPU acceleration has been used for charge density update.
          GPU acceleration has been used for real-space Hamiltonian integration.
          Due to GPU usage, wall_clock(cpu1) will give a more reliable estimate for timings.

          Partial memory accounting:
          | Residual value for overall tracked memory usage across tasks:     1.234863 MB (should be 0.000000 MB)
          |
          | Largest tracked array allocation:
          |   Minimum:      103.158 MB (DFPT_pulay_mixing::initialize_pulay_mixing::X_in_diffs on task  0)
          |   Maximum:      103.158 MB (DFPT_pulay_mixing::initialize_pulay_mixing::X_in_diffs on task  0)
          |   Average:      103.158 MB
          |
          | Because the residual tracked memory usage was not zero, the peak value for overall
          | tracked memory usage was not output, as it is probably incorrect.  This is likely due
          | to a missing aims_deallocate statement in the source code, which should be otherwise
          | harmless.
          |
          Note:  These values currently only include a subset of arrays which are explicitly tracked.
          The "true" memory usage will be greater.

          Have a nice day.
------------------------------------------------------------
