------------------------------------------------------------
          Invoking FHI-aims ...

          When using FHI-aims, please cite the following reference:

            Volker Blum, Ralf Gehrke, Felix Hanke, Paula Havu,
            Ville Havu, Xinguo Ren, Karsten Reuter, and Matthias Scheffler,
            'Ab Initio Molecular Simulations with Numeric Atom-Centered Orbitals',
            Computer Physics Communications 180, 2175-2196 (2009)

          In addition, many other developments in FHI-aims are likely important for
          your particular application. A partial list of references is given at the end of
          this file. Thank you for giving credit to the authors of these developments.

          For any questions about FHI-aims, please visit our slack channel at

            https://fhi-aims.slack.com

          and our main development and support site at

            https://aims-git.rz-berlin.mpg.de .

          The latter site, in particular, has a wiki to collect information, as well
          as an issue tracker to log discussions, suggest improvements, and report issues
          or bugs. https://aims-git.rz-berlin.mpg.de is also the main development site
          of the project and all new and updated code versions can be obtained there.
          Please send an email to aims-coordinators@fhi-berlin.mpg.de and we will add
          you to these sites. They are for you and everyone is welcome there.

------------------------------------------------------------



  Date     :  20230119, Time     :  175913.678
  Time zero on CPU 1             :   0.445196000000000E+00  s.
  Internal wall clock time zero  :           443383153.678  s.

  FHI-aims created a unique identifier for this run for later identification
  aims_uuid : AE3DD47B-C19F-42DB-AB63-3ADE0DDDB516

  Build configuration of the current instance of FHI-aims
  -------------------------------------------------------
  FHI-aims version      : 220829
  Commit number         : 9895fc21d
  CMake host system     : Linux-5.3.18-150300.59.68-default
  CMake version         : 3.17.0
  Fortran compiler      : /mpcdf/soft/SLE_15/packages/x86_64/intel_oneapi/2021.3/mpi/2021.3.0/bin/mpiifort (Intel) version 20.2.3.20210609
  Fortran compiler flags: -O3 -ip -fp-model precise
  C compiler            : /mpcdf/soft/SLE_15/packages/x86_64/intel/2021.3.0/bin/icc (Intel) version 20.2.3.20210609
  C compiler flags      : -O3 -ip -fp-model precise -std=gnu99
  CUDA compiler         : /mpcdf/soft/SLE_15/packages/x86_64/cuda/11.6.2/bin/nvcc
  CUDA compiler flags   : -O3 -DAdd_ -lcublas
  ELPA2 kernel          : AVX512
  Using MPI
  Using ScaLAPACK
  Using LibXC
  Using CUDA
  Using i-PI
  Using RLSY
  Linking against: /mpcdf/soft/SLE_15/packages/x86_64/cuda/11.6.2/lib64/libcublas.so
                   /mpcdf/soft/SLE_15/packages/x86_64/cuda/11.6.2/lib64/libcudart.so
                   /mpcdf/soft/SLE_15/packages/x86_64/intel_oneapi/2021.3/mkl/latest/lib/intel64/libmkl_intel_lp64.so
                   /mpcdf/soft/SLE_15/packages/x86_64/intel_oneapi/2021.3/mkl/latest/lib/intel64/libmkl_sequential.so
                   /mpcdf/soft/SLE_15/packages/x86_64/intel_oneapi/2021.3/mkl/latest/lib/intel64/libmkl_core.so
                   /mpcdf/soft/SLE_15/packages/x86_64/intel_oneapi/2021.3/mkl/latest/lib/intel64/libmkl_blacs_intelmpi_lp64.so
                   /mpcdf/soft/SLE_15/packages/x86_64/intel_oneapi/2021.3/mkl/latest/lib/intel64/libmkl_scalapack_lp64.so

  Using       18 parallel tasks.
  Task        0 on host adag003 reporting.
  Task        1 on host adag003 reporting.
  Task        2 on host adag003 reporting.
  Task        3 on host adag003 reporting.
  Task        4 on host adag003 reporting.
  Task        5 on host adag003 reporting.
  Task        6 on host adag003 reporting.
  Task        7 on host adag003 reporting.
  Task        8 on host adag003 reporting.
  Task        9 on host adag003 reporting.
  Task       10 on host adag003 reporting.
  Task       11 on host adag003 reporting.
  Task       12 on host adag003 reporting.
  Task       13 on host adag003 reporting.
  Task       14 on host adag003 reporting.
  Task       15 on host adag003 reporting.
  Task       16 on host adag003 reporting.
  Task       17 on host adag003 reporting.

  Performing system and environment tests:
  | Environment variable OMP_NUM_THREADS correctly set to 1.
  | Checking for ScaLAPACK...
  | Testing pdtran()...
  | All pdtran() tests passed.

  Obtaining array dimensions for all initial allocations:
  
  -----------------------------------------------------------------------
  Parsing control.in (first pass over file, find array dimensions only).
  The contents of control.in will be repeated verbatim below
  unless switched off by setting 'verbatim_writeout .false.' .
  in the first line of control.in .
  -----------------------------------------------------------------------
  
  #
  # Input for polarizability replays on generic oligoacene molecular crystals (light settings,  LDA+MBD).
  #
  #########################################################################################
  #
  #  Physical model
  #
    xc                 pw-lda
    spin               none
    relativistic       none
    charge             0.0
    k_grid 	     2 1 1
    DFPT dielectric
  #
  #  GPU acceleration
  #
  # Turns on GPU acceleration everywhere
    use_gpu
  
  # Turns OFF GPU acceleration of ELPA - may be necessary if GPU ELPA is slow
    elsi_elpa_gpu 0
  #
  #  Relaxation
  #
  #  relax_geometry trm 1E-3
  #  relax_unit_cell fixed_angles
  #
  #  SCF convergence        #
    charge_mix_param   0.75
    #sc_accuracy_rho 1E-4
  #
  # i-PI communication
  #
  compute_forces .false.
  # use_pimd_wrapper 130.183.223.27 26118
  #communicate_pimd_wrapper polarizability
  #output_level MD_light
  #
  # Output SALTED info
    ri_density_restart write
    ri_rho1 write
    ri_full_output .true.
  #  sc_accuracy_rho    1d-6
    default_prodbas_acc 1e-6
    default_max_l_prodbas 6
  #
  #
  ################################################################################
  #
  #  FHI-aims code project
  #  VB, Fritz-Haber Institut, 2009
  #
  #  Suggested "light" defaults for H atom (to be pasted into control.in file)
  #  Be sure to double-check any results obtained with these settings for post-processing,
  #  e.g., with the "tight" defaults and larger basis sets.
  #
  ################################################################################
    species        H
  #     global species definitions
      nucleus             1
      mass                1.00794
  #
      l_hartree           4
  #
      cut_pot             3.5  1.5  1.0
      basis_dep_cutoff    1e-4
  #
      radial_base         24 5.0
      radial_multiplier   1
      angular_grids       specified
        division   0.2421   50
        division   0.3822  110
        division   0.4799  194
        division   0.5341  302
  #      division   0.5626  434
  #      division   0.5922  590
  #      division   0.6542  770
  #      division   0.6868 1202
  #      outer_grid  770
        outer_grid  302
  ################################################################################
  #
  #  Definition of "minimal" basis
  #
  ################################################################################
  #     valence basis states
      valence      1  s   1.
  #     ion occupancy
      ion_occ      1  s   0.5
  ################################################################################
  #
  #  Suggested additional basis functions. For production calculations,
  #  uncomment them one after another (the most important basis functions are
  #  listed first).
  #
  #  Basis constructed for dimers: 0.5 A, 0.7 A, 1.0 A, 1.5 A, 2.5 A
  #
  ################################################################################
  #  "First tier" - improvements: -1014.90 meV to -62.69 meV
       hydro 2 s 2.1
       hydro 2 p 3.5
  #  "Second tier" - improvements: -12.89 meV to -1.83 meV
  #     hydro 1 s 0.85
  #     hydro 2 p 3.7
  #     hydro 2 s 1.2
  #     hydro 3 d 7
  #  "Third tier" - improvements: -0.25 meV to -0.12 meV
  #     hydro 4 f 11.2
  #     hydro 3 p 4.8
  #     hydro 4 d 9
  #     hydro 3 s 3.2
  ################################################################################
  ################################################################################
  #
  #  FHI-aims code project
  #  VB, Fritz-Haber Institut, 2009
  #
  #  Suggested "light" defaults for C atom (to be pasted into control.in file)
  #  Be sure to double-check any results obtained with these settings for post-processing,
  #  e.g., with the "tight" defaults and larger basis sets.
  #
  ################################################################################
    species        C
  #     global species definitions
      nucleus             6
      mass                12.0107
  #
      l_hartree           4
  #
      cut_pot             3.5  1.5  1.0
      basis_dep_cutoff    1e-4
  #
      radial_base         34 5.0
      radial_multiplier   1
      angular_grids specified
        division   0.3326   50
        division   0.5710  110
        division   0.7727  194
        division   0.8772  302
  #      division   0.9334  434
  #      division   0.9625  590
  #      division   0.9924  770
  #      division   1.0230  974
  #      division   1.4589 1202
  #     outer_grid  974
       outer_grid 302
  ################################################################################
  #
  #  Definition of "minimal" basis
  #
  ################################################################################
  #     valence basis states
      valence      2  s   2.
      valence      2  p   2.
  #     ion occupancy
      ion_occ      2  s   1.
      ion_occ      2  p   1.
  ################################################################################
  #
  #  Suggested additional basis functions. For production calculations,
  #  uncomment them one after another (the most important basis functions are
  #  listed first).
  #
  #  Constructed for dimers: 1.0 A, 1.25 A, 1.5 A, 2.0 A, 3.0 A
  #
  ################################################################################
  #  "First tier" - improvements: -1214.57 meV to -155.61 meV
       hydro 2 p 1.7
       hydro 3 d 6
       hydro 2 s 4.9
  #  "Second tier" - improvements: -67.75 meV to -5.23 meV
  #     hydro 4 f 9.8
  #     hydro 3 p 5.2
  #     hydro 3 s 4.3
  #     hydro 5 g 14.4
  #     hydro 3 d 6.2
  #  "Third tier" - improvements: -2.43 meV to -0.60 meV
  #     hydro 2 p 5.6
  #     hydro 2 s 1.4
  #     hydro 3 d 4.9
  #     hydro 4 f 11.2
  #  "Fourth tier" - improvements: -0.39 meV to -0.18 meV
  #     hydro 2 p 2.1
  #     hydro 5 g 16.4
  #     hydro 4 d 13.2
  #     hydro 3 s 13.6
  #     hydro 4 f 17.6
  #  Further basis functions - improvements: -0.08 meV and below
  #     hydro 3 s 2
  #     hydro 3 p 6
  #     hydro 4 d 20
  
  -----------------------------------------------------------------------
  Completed first pass over input file control.in .
  -----------------------------------------------------------------------
  
  
  -----------------------------------------------------------------------
  Parsing geometry.in (first pass over file, find array dimensions only).
  The contents of geometry.in will be repeated verbatim below
  unless switched off by setting 'verbatim_writeout .false.' .
  in the first line of geometry.in .
  -----------------------------------------------------------------------
  
  #=======================================================
  # FHI-aims file: /ada/ptmp/mpsd/alewis/naphthalene/qmdata/data/geoms/42.in
  # Created using the Atomic Simulation Environment (ASE)
  # Thu Jan 19 15:19:16 2023
  #=======================================================
  lattice_vector 8.1020000000000003 0.0000000000000000 0.0000000000000000
  lattice_vector 0.0000000000000000 11.8800000000000008 0.0000000000000000
  lattice_vector -9.7850918486534706 0.0000000000000000 14.2571119625755713
  atom -0.9966520000000000 -0.0124142000000000 2.3912399999999998 C
  atom 0.1607600000000000 2.8580000000000001 4.7838300000000000 C
  atom 4.2905400000000000 5.9702299999999999 4.8756500000000003 C
  atom 3.2475999999999998 2.7411599999999998 2.3843399999999999 C
  atom -0.2359130000000000 0.8763480000000000 1.6442500000000000 C
  atom -0.5913330000000000 3.7505400000000000 5.4990600000000001 C
  atom 3.4897499999999999 5.1182699999999999 5.6366899999999998 C
  atom 3.9821000000000000 1.9026900000000000 1.5888000000000000 C
  atom 0.2337450000000000 0.5500920000000000 0.3628610000000000 C
  atom -0.9276470000000000 3.4792200000000002 6.8380999999999998 C
  atom 3.1575899999999999 5.3878000000000004 6.9883899999999999 C
  atom 4.3801199999999998 2.3159500000000000 0.2724120000000000 C
  atom -3.8833299999999999 1.5362899999999999 6.4683999999999999 C
  atom 3.1146199999999999 4.4091699999999996 0.6339950000000000 C
  atom 7.2439600000000004 4.3863899999999996 0.6330180000000000 C
  atom 0.3022200000000000 1.3174800000000000 6.6730600000000004 C
  atom -3.5615700000000001 1.1202200000000000 5.1850199999999997 C
  atom 2.7655799999999999 3.9684100000000000 1.9057900000000001 C
  atom 6.8166300000000000 4.7036100000000003 1.9045900000000000 C
  atom 0.6609830000000000 1.6493400000000000 5.3690800000000003 C
  atom -1.2881600000000000 0.2730580000000000 3.3824100000000001 H
  atom 0.4464100000000000 3.1399100000000000 3.7352200000000000 H
  atom 4.6137600000000001 5.6773699999999998 3.8431500000000001 H
  atom 2.9954800000000001 2.3885399999999999 3.3493499999999998 H
  atom 0.0933683000000000 1.8265300000000000 2.1096800000000000 H
  atom -0.9153250000000001 4.6973900000000004 5.0230399999999999 H
  atom 3.0621000000000000 4.1791200000000002 5.2065999999999999 H
  atom 4.2667299999999999 0.9330520000000000 1.9868100000000000 H
  atom -3.5261800000000001 2.4981000000000000 6.8005500000000003 H
  atom 2.7656800000000001 5.3983900000000000 0.3171720000000000 H
  atom 6.9921800000000003 3.4157099999999998 0.1882560000000000 H
  atom 0.6567300000000000 0.3725030000000000 7.1047599999999997 H
  atom -2.9339900000000001 1.7690300000000001 4.5740900000000000 H
  atom 2.0897500000000000 4.5392999999999999 2.5476000000000001 H
  atom 6.1497500000000000 3.9990399999999999 2.3898600000000001 H
  atom 1.2757900000000000 0.9791120000000000 4.7897600000000002 H
  atom -5.6250099999999996 0.2384910000000000 9.5095799999999997 C
  atom -4.6348799999999999 3.2074400000000001 11.8987999999999996 C
  atom -0.6023800000000000 5.8677700000000002 12.0992999999999995 C
  atom -1.6223099999999999 2.7883900000000001 9.5007400000000004 C
  atom -4.8713800000000003 1.0420300000000000 8.7196300000000004 C
  atom -5.4436299999999997 4.0013899999999998 12.7103000000000002 C
  atom -1.4137200000000001 4.9973799999999997 12.7960999999999991 C
  atom -0.8568050000000000 1.9301999999999999 8.7573699999999999 C
  atom -4.5651400000000004 0.6915650000000000 7.3577000000000004 C
  atom -5.8543700000000003 3.5816300000000001 14.0348000000000006 C
  atom -1.8015500000000000 5.3158799999999999 14.1196999999999999 C
  atom -0.5078290000000000 2.2259600000000002 7.4108799999999997 C
  atom -8.8074800000000000 1.4624999999999999 13.8795999999999999 C
  atom -1.6678700000000000 4.3773099999999996 7.6825099999999997 C
  atom 2.3616600000000001 4.5077800000000003 7.7604400000000000 C
  atom -4.6627099999999997 1.4574400000000001 13.6419999999999995 C
  atom -8.4112799999999996 1.2174100000000001 12.5782000000000007 C
  atom -1.9769300000000001 4.0597700000000003 8.9697899999999997 C
  atom 2.0538599999999998 4.7881799999999997 9.0747199999999992 C
  atom -4.2717900000000002 1.8958200000000001 12.3803999999999998 C
  atom -5.8505399999999996 0.5710190000000001 10.5366000000000000 H
  atom -4.3898400000000004 3.5187900000000001 10.8832000000000004 H
  atom -0.2363870000000000 5.5457400000000003 11.1069999999999993 H
  atom -1.9572200000000000 2.5202599999999999 10.5204000000000004 H
  atom -4.5530799999999996 2.0441500000000001 9.0132600000000007 H
  atom -5.6986800000000004 5.0160299999999998 12.4501000000000008 H
  atom -1.6935899999999999 4.0140700000000002 12.3861000000000008 H
  atom -0.5836310000000000 0.9354590000000000 9.1701800000000002 H
  atom -8.6050799999999992 2.4326099999999999 14.3249999999999993 H
  atom -1.9905800000000000 5.3308299999999997 7.2598700000000003 H
  atom 1.9935799999999999 3.6191700000000000 7.2605399999999998 H
  atom -4.3858600000000001 0.4649070000000000 14.0101999999999993 H
  atom -7.8237899999999998 1.9356199999999999 12.0715000000000003 H
  atom -2.4805799999999998 4.8001699999999996 9.5981100000000001 H
  atom 1.3867799999999999 4.1241399999999997 9.6689200000000000 H
  atom -3.7157000000000000 1.2013300000000000 11.7574000000000005 H
  atom -0.9131880000000000 5.9177099999999996 2.4941100000000000 C
  atom 0.0937647000000000 9.1033799999999996 4.7234999999999996 C
  atom 4.2045500000000002 11.7143999999999995 4.7497999999999996 C
  atom 3.1039699999999999 8.8537099999999995 2.4095700000000000 C
  atom -0.1883540000000000 6.8393899999999999 1.7588200000000001 C
  atom -0.6857490000000001 9.9481300000000008 5.4898199999999999 C
  atom 3.4898699999999998 10.8611000000000004 5.5924500000000004 C
  atom 3.9050699999999998 7.9928800000000004 1.6826500000000000 C
  atom 0.2619670000000000 6.5704399999999996 0.4469650000000000 C
  atom -0.9559700000000000 9.6424599999999998 6.8652800000000003 C
  atom 3.1649099999999999 11.2776999999999994 6.8867099999999999 C
  atom 4.2747299999999999 8.3068200000000001 0.3534330000000000 C
  atom -3.7174100000000001 7.4934300000000000 6.7447200000000000 C
  atom 3.0011100000000002 10.3818000000000001 0.5610740000000000 C
  atom 7.1825700000000001 10.2438000000000002 0.5409250000000000 C
  atom 0.3207520000000000 7.5127300000000004 6.5655799999999997 C
  atom -3.3397700000000001 7.1709399999999999 5.4498899999999999 C
  atom 2.6491099999999999 10.0495999999999999 1.8438099999999999 C
  atom 6.7932800000000002 10.5891000000000002 1.8426800000000001 C
  atom 0.5896930000000000 7.8930199999999999 5.2643899999999997 C
  atom -1.3133100000000000 6.2425400000000000 3.4417700000000000 H
  atom 0.1719530000000000 9.3670100000000005 3.6403400000000001 H
  atom 4.4781899999999997 11.3343000000000007 3.7638600000000002 H
  atom 2.8026700000000000 8.5405800000000003 3.4035099999999998 H
  atom 0.1204560000000000 7.8069499999999996 2.2079800000000001 H
  atom -1.0656900000000000 10.8712999999999997 5.0758299999999998 H
  atom 3.1920299999999999 9.8715399999999995 5.2273500000000004 H
  atom 4.3076200000000000 7.0639599999999998 2.1375199999999999 H
  atom -3.5180300000000000 8.4769799999999993 7.1569099999999999 H
  atom 2.6537899999999999 11.3106000000000009 0.1215410000000000 H
  atom 6.9134500000000001 9.2873199999999994 0.0873419000000000 H
  atom 0.6685840000000000 6.5556900000000002 6.9249000000000001 H
  atom -2.7764400000000000 7.8899299999999997 4.8278900000000000 H
  atom 1.9699199999999999 10.6567000000000007 2.4811999999999999 H
  atom 6.2118599999999997 9.8571100000000005 2.4234900000000001 H
  atom 1.2420100000000001 7.2193800000000001 4.7221200000000003 H
  atom -5.5756300000000003 5.9993400000000001 9.6652199999999997 C
  atom -4.7203999999999997 9.0996500000000005 11.9894999999999996 C
  atom -0.7313130000000000 11.8486999999999991 11.9920000000000009 C
  atom -1.5320400000000001 8.9138000000000002 9.4886999999999997 C
  atom -4.7782499999999999 6.8503600000000002 8.9325299999999999 C
  atom -5.5536899999999996 9.8987400000000001 12.7272999999999996 C
  atom -1.4760500000000001 10.9451000000000001 12.7241999999999997 C
  atom -0.7254090000000000 8.1054399999999998 8.7080599999999997 C
  atom -4.4639300000000004 6.6044499999999999 7.5827799999999996 C
  atom -5.9377199999999997 9.5531900000000007 14.0239999999999991 C
  atom -1.8458800000000000 11.1734000000000009 14.0507000000000009 C
  atom -0.4391270000000000 8.3917099999999998 7.3583299999999996 C
  atom -8.7445199999999996 7.4649099999999997 13.9179999999999993 C
  atom -1.7643300000000000 10.4833999999999996 7.6722999999999999 C
  atom 2.4105599999999998 10.4398000000000000 7.7746000000000004 C
  atom -4.6680299999999999 7.4842399999999998 13.7931000000000008 C
  atom -8.3204999999999991 7.1018999999999997 12.6418999999999997 C
  atom -2.0372300000000001 10.1348000000000003 8.9949399999999997 C
  atom 2.0890900000000001 10.8871000000000002 9.0342900000000004 C
  atom -4.3372200000000003 7.8567600000000004 12.4890000000000008 C
  atom -5.8281200000000002 6.2410300000000003 10.7053999999999991 H
  atom -4.5041099999999998 9.3819499999999998 10.9504999999999999 H
  atom -0.4072070000000000 11.6295000000000002 10.9641000000000002 H
  atom -1.7725100000000000 8.5767000000000007 10.4834999999999994 H
  atom -4.3929499999999999 7.7982800000000001 9.3733900000000006 H
  atom -5.9511900000000004 10.8419000000000008 12.3024000000000004 H
  atom -1.7142900000000001 9.9833700000000007 12.2646999999999995 H
  atom -0.3888610000000000 7.1682600000000001 9.1322500000000009 H
  atom -8.5253999999999994 8.4528199999999991 14.3544999999999998 H
  atom -2.0778099999999999 11.4370999999999992 7.2461200000000003 H
  atom 2.1639599999999999 9.4430800000000001 7.4574299999999996 H
  atom -4.3121200000000002 6.5576699999999999 14.2065000000000001 H
  atom -7.7087300000000001 7.7864300000000002 12.0572999999999997 H
  atom -2.6479499999999998 10.7893000000000008 9.5986799999999999 H
  atom 1.4921400000000000 10.2053999999999991 9.6862100000000009 H
  atom -3.7926600000000001 7.1550500000000001 11.8336000000000006 H
  
  -----------------------------------------------------------------------
  Completed first pass over input file geometry.in .
  -----------------------------------------------------------------------
  

  Basic array size parameters:
  | Number of species                 :        2
  | Number of atoms                   :      144
  | Number of lattice vectors         :        3
  | Max. basis fn. angular momentum   :        2
  | Max. atomic/ionic basis occupied n:        2
  | Max. number of basis fn. types    :        2
  | Max. radial fns per species/type  :        3
  | Max. logarithmic grid size        :     1277
  | Max. radial integration grid size :       34
  | Max. angular integration grid size:      302
  | Max. angular grid division number :        8
  | Radial grid for Hartree potential :     1277
  | Number of spin channels           :        1

------------------------------------------------------------
          Reading file control.in.
------------------------------------------------------------
  XC: Using Perdew-Wang parametrisation of Ceperley-Alder LDA.
  Spin treatment: No spin polarisation.
  Non-relativistic treatment of kinetic energy.
  Charge =   0.000000E+00: Neutral system requested explicitly.
  Found k-point grid:         2         1         1
  DFPT calculation will begin after the DFT/HF calculation.
  Charge density mixing - mixing parameter:     0.7500
  Forces will not be computed.
 
  Reading configuration options for species H                   .
  | Found nuclear charge :   1.0000
  | Found atomic mass :    1.00794000000000      amu
  | Found l_max for Hartree potential  :   4
  | Found cutoff potl. onset [A], width [A], scale factor :    3.50000    1.50000    1.00000
  | Threshold for basis-dependent cutoff potential is   0.100000E-03
  | Found data for basic radial integration grid :    24 points, outermost radius =    5.000 A
  | Found multiplier for basic radial grid :   1
  | Found angular grid specification: user-specified.
  | Specified grid contains     5 separate shells.
  | Check grid settings after all constraints further below.
  | Found free-atom valence shell :  1 s   1.000
  | No ionic wave fns used. Skipping ion_occ.
  | Found hydrogenic basis function :  2 s   2.100
  | Found hydrogenic basis function :  2 p   3.500
  Species H                   : Missing cutoff potential type.
  Defaulting to exp(1/x)/(1-x)^2 type cutoff potential.
  Species H : No 'logarithmic' tag. Using default grid for free atom:
  | Default logarithmic grid data [bohr] : 0.1000E-03 0.1000E+03 0.1012E+01
  Species H : On-site basis accuracy parameter (for Gram-Schmidt orthonormalisation) not specified.
  Using default value basis_acc =  0.1000000E-03.
  Species H                   : Using default innermost maximum threshold i_radial=  2 for radial functions.
  Species H                   : Default cutoff onset for free atom density etc. : 0.35000000E+01 AA.
  Species H                   : Basic radial grid will be enhanced according to radial_multiplier =   1, to contain    24 grid points.
 
  Reading configuration options for species C                   .
  | Found nuclear charge :   6.0000
  | Found atomic mass :    12.0107000000000      amu
  | Found l_max for Hartree potential  :   4
  | Found cutoff potl. onset [A], width [A], scale factor :    3.50000    1.50000    1.00000
  | Threshold for basis-dependent cutoff potential is   0.100000E-03
  | Found data for basic radial integration grid :    34 points, outermost radius =    5.000 A
  | Found multiplier for basic radial grid :   1
  | Found angular grid specification: user-specified.
  | Specified grid contains     5 separate shells.
  | Check grid settings after all constraints further below.
  | Found free-atom valence shell :  2 s   2.000
  | Found free-atom valence shell :  2 p   2.000
  | No ionic wave fns used. Skipping ion_occ.
  | No ionic wave fns used. Skipping ion_occ.
  | Found hydrogenic basis function :  2 p   1.700
  | Found hydrogenic basis function :  3 d   6.000
  | Found hydrogenic basis function :  2 s   4.900
  Species C                   : Missing cutoff potential type.
  Defaulting to exp(1/x)/(1-x)^2 type cutoff potential.
  Species C : No 'logarithmic' tag. Using default grid for free atom:
  | Default logarithmic grid data [bohr] : 0.1000E-03 0.1000E+03 0.1012E+01
  Species C : On-site basis accuracy parameter (for Gram-Schmidt orthonormalisation) not specified.
  Using default value basis_acc =  0.1000000E-03.
  Species C                   : Using default innermost maximum threshold i_radial=  2 for radial functions.
  Species C                   : Default cutoff onset for free atom density etc. : 0.35000000E+01 AA.
  Species C                   : Basic radial grid will be enhanced according to radial_multiplier =   1, to contain    34 grid points.
 
  Finished reading input file 'control.in'.
 
------------------------------------------------------------


------------------------------------------------------------
          Reading geometry description geometry.in.
------------------------------------------------------------
  | The smallest distance between any two atoms is         1.05722041 AA.
  | The first atom of this pair is atom number                     53 .
  | The second atom of this pair is atom number                    69 .
  | Wigner-Seitz cell of the first atom image           0     0     0 .
  | (The Wigner-Seitz cell of the second atom is 0 0 0  by definition.)

  Symmetry information by spglib:
  | Precision set to  0.1E-04
  | Number of Operations  : 1
  | Space group           : 1
  | International         : P1
  | Schoenflies           : C1^1
  Input structure read successfully.
  The structure contains      144 atoms,  and a total of        544.000 electrons.

  Input geometry:
  | Unit cell:
  |        8.10200000        0.00000000        0.00000000
  |        0.00000000       11.88000000        0.00000000
  |       -9.78509185        0.00000000       14.25711196
  | Atomic structure:
  |       Atom                x [A]            y [A]            z [A]
  |    1: Species C            -0.99665200       -0.01241420        2.39124000
  |    2: Species C             0.16076000        2.85800000        4.78383000
  |    3: Species C             4.29054000        5.97023000        4.87565000
  |    4: Species C             3.24760000        2.74116000        2.38434000
  |    5: Species C            -0.23591300        0.87634800        1.64425000
  |    6: Species C            -0.59133300        3.75054000        5.49906000
  |    7: Species C             3.48975000        5.11827000        5.63669000
  |    8: Species C             3.98210000        1.90269000        1.58880000
  |    9: Species C             0.23374500        0.55009200        0.36286100
  |   10: Species C            -0.92764700        3.47922000        6.83810000
  |   11: Species C             3.15759000        5.38780000        6.98839000
  |   12: Species C             4.38012000        2.31595000        0.27241200
  |   13: Species C            -3.88333000        1.53629000        6.46840000
  |   14: Species C             3.11462000        4.40917000        0.63399500
  |   15: Species C             7.24396000        4.38639000        0.63301800
  |   16: Species C             0.30222000        1.31748000        6.67306000
  |   17: Species C            -3.56157000        1.12022000        5.18502000
  |   18: Species C             2.76558000        3.96841000        1.90579000
  |   19: Species C             6.81663000        4.70361000        1.90459000
  |   20: Species C             0.66098300        1.64934000        5.36908000
  |   21: Species H            -1.28816000        0.27305800        3.38241000
  |   22: Species H             0.44641000        3.13991000        3.73522000
  |   23: Species H             4.61376000        5.67737000        3.84315000
  |   24: Species H             2.99548000        2.38854000        3.34935000
  |   25: Species H             0.09336830        1.82653000        2.10968000
  |   26: Species H            -0.91532500        4.69739000        5.02304000
  |   27: Species H             3.06210000        4.17912000        5.20660000
  |   28: Species H             4.26673000        0.93305200        1.98681000
  |   29: Species H            -3.52618000        2.49810000        6.80055000
  |   30: Species H             2.76568000        5.39839000        0.31717200
  |   31: Species H             6.99218000        3.41571000        0.18825600
  |   32: Species H             0.65673000        0.37250300        7.10476000
  |   33: Species H            -2.93399000        1.76903000        4.57409000
  |   34: Species H             2.08975000        4.53930000        2.54760000
  |   35: Species H             6.14975000        3.99904000        2.38986000
  |   36: Species H             1.27579000        0.97911200        4.78976000
  |   37: Species C            -5.62501000        0.23849100        9.50958000
  |   38: Species C            -4.63488000        3.20744000       11.89880000
  |   39: Species C            -0.60238000        5.86777000       12.09930000
  |   40: Species C            -1.62231000        2.78839000        9.50074000
  |   41: Species C            -4.87138000        1.04203000        8.71963000
  |   42: Species C            -5.44363000        4.00139000       12.71030000
  |   43: Species C            -1.41372000        4.99738000       12.79610000
  |   44: Species C            -0.85680500        1.93020000        8.75737000
  |   45: Species C            -4.56514000        0.69156500        7.35770000
  |   46: Species C            -5.85437000        3.58163000       14.03480000
  |   47: Species C            -1.80155000        5.31588000       14.11970000
  |   48: Species C            -0.50782900        2.22596000        7.41088000
  |   49: Species C            -8.80748000        1.46250000       13.87960000
  |   50: Species C            -1.66787000        4.37731000        7.68251000
  |   51: Species C             2.36166000        4.50778000        7.76044000
  |   52: Species C            -4.66271000        1.45744000       13.64200000
  |   53: Species C            -8.41128000        1.21741000       12.57820000
  |   54: Species C            -1.97693000        4.05977000        8.96979000
  |   55: Species C             2.05386000        4.78818000        9.07472000
  |   56: Species C            -4.27179000        1.89582000       12.38040000
  |   57: Species H            -5.85054000        0.57101900       10.53660000
  |   58: Species H            -4.38984000        3.51879000       10.88320000
  |   59: Species H            -0.23638700        5.54574000       11.10700000
  |   60: Species H            -1.95722000        2.52026000       10.52040000
  |   61: Species H            -4.55308000        2.04415000        9.01326000
  |   62: Species H            -5.69868000        5.01603000       12.45010000
  |   63: Species H            -1.69359000        4.01407000       12.38610000
  |   64: Species H            -0.58363100        0.93545900        9.17018000
  |   65: Species H            -8.60508000        2.43261000       14.32500000
  |   66: Species H            -1.99058000        5.33083000        7.25987000
  |   67: Species H             1.99358000        3.61917000        7.26054000
  |   68: Species H            -4.38586000        0.46490700       14.01020000
  |   69: Species H            -7.82379000        1.93562000       12.07150000
  |   70: Species H            -2.48058000        4.80017000        9.59811000
  |   71: Species H             1.38678000        4.12414000        9.66892000
  |   72: Species H            -3.71570000        1.20133000       11.75740000
  |   73: Species C            -0.91318800        5.91771000        2.49411000
  |   74: Species C             0.09376470        9.10338000        4.72350000
  |   75: Species C             4.20455000       11.71440000        4.74980000
  |   76: Species C             3.10397000        8.85371000        2.40957000
  |   77: Species C            -0.18835400        6.83939000        1.75882000
  |   78: Species C            -0.68574900        9.94813000        5.48982000
  |   79: Species C             3.48987000       10.86110000        5.59245000
  |   80: Species C             3.90507000        7.99288000        1.68265000
  |   81: Species C             0.26196700        6.57044000        0.44696500
  |   82: Species C            -0.95597000        9.64246000        6.86528000
  |   83: Species C             3.16491000       11.27770000        6.88671000
  |   84: Species C             4.27473000        8.30682000        0.35343300
  |   85: Species C            -3.71741000        7.49343000        6.74472000
  |   86: Species C             3.00111000       10.38180000        0.56107400
  |   87: Species C             7.18257000       10.24380000        0.54092500
  |   88: Species C             0.32075200        7.51273000        6.56558000
  |   89: Species C            -3.33977000        7.17094000        5.44989000
  |   90: Species C             2.64911000       10.04960000        1.84381000
  |   91: Species C             6.79328000       10.58910000        1.84268000
  |   92: Species C             0.58969300        7.89302000        5.26439000
  |   93: Species H            -1.31331000        6.24254000        3.44177000
  |   94: Species H             0.17195300        9.36701000        3.64034000
  |   95: Species H             4.47819000       11.33430000        3.76386000
  |   96: Species H             2.80267000        8.54058000        3.40351000
  |   97: Species H             0.12045600        7.80695000        2.20798000
  |   98: Species H            -1.06569000       10.87130000        5.07583000
  |   99: Species H             3.19203000        9.87154000        5.22735000
  |  100: Species H             4.30762000        7.06396000        2.13752000
  |  101: Species H            -3.51803000        8.47698000        7.15691000
  |  102: Species H             2.65379000       11.31060000        0.12154100
  |  103: Species H             6.91345000        9.28732000        0.08734190
  |  104: Species H             0.66858400        6.55569000        6.92490000
  |  105: Species H            -2.77644000        7.88993000        4.82789000
  |  106: Species H             1.96992000       10.65670000        2.48120000
  |  107: Species H             6.21186000        9.85711000        2.42349000
  |  108: Species H             1.24201000        7.21938000        4.72212000
  |  109: Species C            -5.57563000        5.99934000        9.66522000
  |  110: Species C            -4.72040000        9.09965000       11.98950000
  |  111: Species C            -0.73131300       11.84870000       11.99200000
  |  112: Species C            -1.53204000        8.91380000        9.48870000
  |  113: Species C            -4.77825000        6.85036000        8.93253000
  |  114: Species C            -5.55369000        9.89874000       12.72730000
  |  115: Species C            -1.47605000       10.94510000       12.72420000
  |  116: Species C            -0.72540900        8.10544000        8.70806000
  |  117: Species C            -4.46393000        6.60445000        7.58278000
  |  118: Species C            -5.93772000        9.55319000       14.02400000
  |  119: Species C            -1.84588000       11.17340000       14.05070000
  |  120: Species C            -0.43912700        8.39171000        7.35833000
  |  121: Species C            -8.74452000        7.46491000       13.91800000
  |  122: Species C            -1.76433000       10.48340000        7.67230000
  |  123: Species C             2.41056000       10.43980000        7.77460000
  |  124: Species C            -4.66803000        7.48424000       13.79310000
  |  125: Species C            -8.32050000        7.10190000       12.64190000
  |  126: Species C            -2.03723000       10.13480000        8.99494000
  |  127: Species C             2.08909000       10.88710000        9.03429000
  |  128: Species C            -4.33722000        7.85676000       12.48900000
  |  129: Species H            -5.82812000        6.24103000       10.70540000
  |  130: Species H            -4.50411000        9.38195000       10.95050000
  |  131: Species H            -0.40720700       11.62950000       10.96410000
  |  132: Species H            -1.77251000        8.57670000       10.48350000
  |  133: Species H            -4.39295000        7.79828000        9.37339000
  |  134: Species H            -5.95119000       10.84190000       12.30240000
  |  135: Species H            -1.71429000        9.98337000       12.26470000
  |  136: Species H            -0.38886100        7.16826000        9.13225000
  |  137: Species H            -8.52540000        8.45282000       14.35450000
  |  138: Species H            -2.07781000       11.43710000        7.24612000
  |  139: Species H             2.16396000        9.44308000        7.45743000
  |  140: Species H            -4.31212000        6.55767000       14.20650000
  |  141: Species H            -7.70873000        7.78643000       12.05730000
  |  142: Species H            -2.64795000       10.78930000        9.59868000
  |  143: Species H             1.49214000       10.20540000        9.68621000
  |  144: Species H            -3.79266000        7.15505000       11.83360000

  Lattice parameters for 3D lattice (in Angstroms) :     8.102000   11.880000   17.292000
  Angle(s) between unit vectors (in degrees)       :    90.000000  124.463000   90.000000


  Quantities derived from the lattice vectors (in Angstrom^-1):
  | Reciprocal lattice vector 1:  0.775510  0.000000  0.532257
  | Reciprocal lattice vector 2:  0.000000  0.528888  0.000000
  | Reciprocal lattice vector 3: -0.000000  0.000000  0.440705
  | Unit cell volume                               :   0.137227E+04  Angstrom^3

  Fractional coordinates:
                         L1                L2                L3
       atom_frac         0.07955185       -0.00104497        0.16772261  C
       atom_frac         0.42508625        0.24057239        0.33553991  C
       atom_frac         0.94258796        0.50254461        0.34198020  C
       atom_frac         0.60281973        0.23073737        0.16723864  C
       atom_frac         0.11016861        0.07376667        0.11532841  C
       atom_frac         0.39284621        0.31570202        0.38570645  C
       atom_frac         0.90821806        0.43083081        0.39535987  C
       atom_frac         0.62608517        0.16015909        0.11143912  C
       atom_frac         0.05958869        0.04630404        0.02545123  C
       atom_frac         0.46476797        0.29286364        0.47962729  C
       atom_frac         0.98172497        0.45351852        0.49016870  C
       atom_frac         0.56369843        0.19494529        0.01910710  C
       atom_frac         0.06864116        0.12931734        0.45369637  C
       atom_frac         0.43813258        0.37114226        0.04446868  C
       atom_frac         0.94771903        0.36922475        0.04440016  C
       atom_frac         0.60258518        0.11089899        0.46805131  C
       atom_frac        -0.00036192        0.09429461        0.36367955  C
       atom_frac         0.50278721        0.33404125        0.13367293  C
       atom_frac         1.00269172        0.39592677        0.13358877  C
       atom_frac         0.53640419        0.13883333        0.37658959  C
       atom_frac         0.12753535        0.02298468        0.23724370  H
       atom_frac         0.37151391        0.26430219        0.26198995  H
       atom_frac         0.89501745        0.47789310        0.26956020  H
       atom_frac         0.65344869        0.20105556        0.23492486  H
       atom_frac         0.19023774        0.15374832        0.14797387  H
       atom_frac         0.31253282        0.39540320        0.35231820  H
       atom_frac         0.81900133        0.35177778        0.36519318  H
       atom_frac         0.69493192        0.07853973        0.13935571  H
       atom_frac         0.14085971        0.21027778        0.47699352  H
       atom_frac         0.36822573        0.45440993        0.02224658  H
       atom_frac         0.87896641        0.28751768        0.01320436  H
       atom_frac         0.68291089        0.03135547        0.49833094  H
       atom_frac         0.02534532        0.14890825        0.32082865  H
       atom_frac         0.47374053        0.38209596        0.17868977  H
       atom_frac         0.96148901        0.33661953        0.16762581  H
       atom_frac         0.56321263        0.08241684        0.33595584  H
       atom_frac         0.11129419        0.02007500        0.66700605  C
       atom_frac         0.43589611        0.26998653        0.83458698  C
       atom_frac         0.95059732        0.49392003        0.84865014  C
       atom_frac         0.60458385        0.23471296        0.66638601  C
       atom_frac         0.13739431        0.08771296        0.61159862  C
       atom_frac         0.40481826        0.33681734        0.89150594  C
       atom_frac         0.90948342        0.42065488        0.89752399  C
       atom_frac         0.63609551        0.16247475        0.61424572  C
       atom_frac         0.05982158        0.05821254        0.51607226  C
       atom_frac         0.46632219        0.30148401        0.98440694  C
       atom_frac         0.97373881        0.44746465        0.99036187  C
       atom_frac         0.56510547        0.18737037        0.51980233  C
       atom_frac         0.08868352        0.12310606        0.97352115  C
       atom_frac         0.44493600        0.36846044        0.53885457  C
       atom_frac         0.94888759        0.37944276        0.54432062  C
       atom_frac         0.58012981        0.12268013        0.95685578  C
       atom_frac         0.02734180        0.10247559        0.88224039  C
       atom_frac         0.51583697        0.34173148        0.62914495  C
       atom_frac         1.02223128        0.40304545        0.63650479  C
       atom_frac         0.52150791        0.15958081        0.86836661  C
       atom_frac         0.17045800        0.04806557        0.73904168  H
       atom_frac         0.38010774        0.29619444        0.76335236  H
       atom_frac         0.91171152        0.46681313        0.77904978  H
       atom_frac         0.64962382        0.21214310        0.73790541  H
       atom_frac         0.20155467        0.17206650        0.63219396  H
       atom_frac         0.35129651        0.42222475        0.87325540  H
       atom_frac         0.84020848        0.33788468        0.86876641  H
       atom_frac         0.70478202        0.07874234        0.64320039  H
       atom_frac         0.15139539        0.20476515        1.00476170  H
       atom_frac         0.36930273        0.44872306        0.50921042  H
       atom_frac         0.86110968        0.30464394        0.50925742  H
       atom_frac         0.64549107        0.03913359        0.98268149  H
       atom_frac         0.05693033        0.16293098        0.84670023  H
       atom_frac         0.50689908        0.40405471        0.67321559  H
       atom_frac         0.99023148        0.34714983        0.67818223  H
       atom_frac         0.53736893        0.10112205        0.82466912  H
       atom_frac         0.09856775        0.49812374        0.17493795  C
       atom_frac         0.41170664        0.76627778        0.33130833  C
       atom_frac         0.92131362        0.98606061        0.33315303  C
       atom_frac         0.58722927        0.74526178        0.16900828  C
       atom_frac         0.12574401        0.57570623        0.12336440  C
       atom_frac         0.38041006        0.83738468        0.38505835  C
       atom_frac         0.90448524        0.91423401        0.39225686  C
       atom_frac         0.62452779        0.67280135        0.11802180  C
       atom_frac         0.07019659        0.55306734        0.03135032  C
       atom_frac         0.46357462        0.81165488        0.48153371  C
       atom_frac         0.97401501        0.94930135        0.48303682  C
       atom_frac         0.55755392        0.69922727        0.02478994  C
       atom_frac         0.11252747        0.63076010        0.47307758  C
       atom_frac         0.41794523        0.87388889        0.03935397  C
       atom_frac         0.93234058        0.86227273        0.03794071  C
       atom_frac         0.59576775        0.63238468        0.46051262  C
       atom_frac         0.04945151        0.60361448        0.38225764  C
       atom_frac         0.48316134        0.84592593        0.12932563  C
       atom_frac         0.99456525        0.89133838        0.12924637  C
       atom_frac         0.51873671        0.66439562        0.36924659  C
       atom_frac         0.12945964        0.52546633        0.24140724  H
       atom_frac         0.32960129        0.78846886        0.25533502  H
       atom_frac         0.87156779        0.95406566        0.26399877  H
       atom_frac         0.63423883        0.71890404        0.23872366  H
       atom_frac         0.20190819        0.65715067        0.15486867  H
       atom_frac         0.29844573        0.91509259        0.35602091  H
       atom_frac         0.83679587        0.83093771        0.36664859  H
       atom_frac         0.71274566        0.59460943        0.14992658  H
       atom_frac         0.17205334        0.71355051        0.50198876  H
       atom_frac         0.33784341        0.95207071        0.00852494  H
       atom_frac         0.86070050        0.78176094        0.00612620  H
       atom_frac         0.66913782        0.55182576        0.48571548  H
       atom_frac         0.06629086        0.66413552        0.33863029  H
       atom_frac         0.45332553        0.89702862        0.17403244  H
       atom_frac         0.97200386        0.82972306        0.16998464  H
       atom_frac         0.55331342        0.60769192        0.33121154  H
       atom_frac         0.13057344        0.50499495        0.67792271  C
       atom_frac         0.43302400        0.76596380        0.84094872  C
       atom_frac         0.92559408        0.99736532        0.84112407  C
       atom_frac         0.61470562        0.75031987        0.66554152  C
       atom_frac         0.16692402        0.57662963        0.62653152  C
       atom_frac         0.39267405        0.83322727        0.89269833  C
       atom_frac         0.89569952        0.92130471        0.89248089  C
       atom_frac         0.64813612        0.68227609        0.61078710  C
       atom_frac         0.09138037        0.55593013        0.53185947  C
       atom_frac         0.45511972        0.80414057        0.98364943  C
       atom_frac         0.96242224        0.94052189        0.98552218  C
       atom_frac         0.56913353        0.70637290        0.51611645  C
       atom_frac         0.09970735        0.62835943        0.97621454  C
       atom_frac         0.43216540        0.88244108        0.53813844  C
       atom_frac         0.95612265        0.87877104        0.54531381  C
       atom_frac         0.59227305        0.62998653        0.96745400  C
       atom_frac         0.04394254        0.59780303        0.88670833  C
       atom_frac         0.51052485        0.85309764        0.63090898  C
       atom_frac         1.02315471        0.91642256        0.63366901  C
       atom_frac         0.52263176        0.66134343        0.87598386  C
       atom_frac         0.18752448        0.52533923        0.75088139  H
       atom_frac         0.37170488        0.78972643        0.76807281  H
       atom_frac         0.87852259        0.97891414        0.76902672  H
       atom_frac         0.66929605        0.72194444        0.73531722  H
       atom_frac         0.25182599        0.65642088        0.65745363  H
       atom_frac         0.30761827        0.91261785        0.86289566  H
       atom_frac         0.82736961        0.84035101        0.86025136  H
       atom_frac         0.72560866        0.60338889        0.64053997  H
       atom_frac         0.16372898        0.71151684        1.00683084  H
       atom_frac         0.35737148        0.96271886        0.50824599  H
       atom_frac         0.89881785        0.79487205        0.52306737  H
       atom_frac         0.67122134        0.55199242        0.99645006  H
       atom_frac         0.06992886        0.65542340        0.84570424  H
       atom_frac         0.48628950        0.90819024        0.67325557  H
       atom_frac         1.00470033        0.85904040        0.67939496  H
       atom_frac         0.53432504        0.60227694        0.83001382  H

 
  Finished reading input file 'geometry.in'.
 

 
  Consistency checks for stacksize environment parameter are next.
 
  | Maximum stacksize for task 0: unlimited
  | Maximum stacksize for task 1: unlimited
  | Maximum stacksize for task 2: unlimited
  | Maximum stacksize for task 3: unlimited
  | Maximum stacksize for task 4: unlimited
  | Maximum stacksize for task 5: unlimited
  | Maximum stacksize for task 6: unlimited
  | Maximum stacksize for task 7: unlimited
  | Maximum stacksize for task 8: unlimited
  | Maximum stacksize for task 9: unlimited
  | Maximum stacksize for task 10: unlimited
  | Maximum stacksize for task 11: unlimited
  | Maximum stacksize for task 12: unlimited
  | Maximum stacksize for task 13: unlimited
  | Maximum stacksize for task 14: unlimited
  | Maximum stacksize for task 15: unlimited
  | Maximum stacksize for task 16: unlimited
  | Maximum stacksize for task 17: unlimited
  | Current stacksize for task 0: unlimited
  | Current stacksize for task 1: unlimited
  | Current stacksize for task 2: unlimited
  | Current stacksize for task 3: unlimited
  | Current stacksize for task 4: unlimited
  | Current stacksize for task 5: unlimited
  | Current stacksize for task 6: unlimited
  | Current stacksize for task 7: unlimited
  | Current stacksize for task 8: unlimited
  | Current stacksize for task 9: unlimited
  | Current stacksize for task 10: unlimited
  | Current stacksize for task 11: unlimited
  | Current stacksize for task 12: unlimited
  | Current stacksize for task 13: unlimited
  | Current stacksize for task 14: unlimited
  | Current stacksize for task 15: unlimited
  | Current stacksize for task 16: unlimited
  | Current stacksize for task 17: unlimited
 
  Consistency checks for the contents of control.in are next.
 
  MPI_IN_PLACE appears to work with this MPI implementation.
  | Keeping use_mpi_in_place .true. (see manual).
  Explicit treatment of the Coulomb operator is needed, but the RI method is not specified.
  Coulomb operator: Defaulting to 'LVL fast' resolution of identity - RI_type = LVL_fast
  Species H: Using default value for prodbas_acc =   1.000000E-06.
  Species H: Using default value max_l_prodbas =     6.
  Species C: Using default value for prodbas_acc =   1.000000E-06.
  Species C: Using default value max_l_prodbas =     6.
  Target number of points in a grid batch is not set.  Since GPU acceleration is enabled, defaulting to  200
  Method for grid partitioning is not set. Defaulting to parallel hash+maxmin partitioning.
  Batch size limit is not set. Defaulting to    200
  By default, will store active basis functions for each batch.
  If in need of memory, prune_basis_once .false. can be used to disable this option.
  communication_type for Hartree potential was not specified.
  Defaulting to calc_hartree .
  Defaulting to Pulay charge density mixer.
  Pulay mixer: Number of relevant iterations not set.
  Defaulting to    8 iterations.
  Pulay mixer: Number of initial linear mixing iterations not set.
  Defaulting to    0 iterations.
  Work space size for distributed Hartree potential not set.
  Defaulting to   0.200000E+03 MB.
  Algorithm-dependent basis array size parameters:
  | n_max_pulay                         :        8
  Maximum number of self-consistency iterations not provided.
  Presetting  1000 iterations.
  Presetting      1001 iterations before the initial mixing cycle
  is restarted anyway using the sc_init_iter criterion / keyword.
  Presetting a factor      1.000 between actual scf density residual
  and density convergence criterion sc_accuracy_rho below which sc_init_iter
  takes no effect.
 * No s.c.f. convergence criteria (sc_accuracy_*) were provided in control.in.
 * The run will proceed with a reasonable default guess, but please check whether.
 * the s.c.f. cycles seem to take too much or too little time.
  Geometry relaxation not requested: no relaxation will be performed.
 * Notice: The s.c.f. convergence criterion sc_accuracy_rho was not provided.
 * We used to stop in this case, and ask the user to provide reasonable
 * scf convergence criteria. However, this led some users to employ criteria
 * that led to extremely long run times, e.g., for simple relaxation.
 * We now preset a default value for sc_accuracy_rho if it is not set.
 * You may still wish to check if this setting is too tight or too loose for your needs.
 * Based on n_atoms and forces and force-correction status, FHI-aims chose sc_accuracy_rho =  0.391918E-04 .
  No accuracy limit for integral partition fn. given. Defaulting to  0.1000E-14.
  No threshold value for u(r) in integrations given. Defaulting to  0.1000E-05.
  No occupation type (smearing scheme) given. Defaulting to Gaussian broadening, width =  0.1000E-01 eV.
  The width will be adjusted in iteration number     2 of the first full s.c.f. cycle only.
  S.C.F. convergence parameters will be adjusted in iteration number     2 of the first full s.c.f. cycle only.
  No accuracy for occupation numbers given. Defaulting to  0.1000E-12.
  No threshold value for occupation numbers given. Defaulting to  0.0000E+00.
  No accuracy for fermi level given. Defaulting to  0.1000E-19.
  Maximum # of iterations to find E_F not set. Defaulting to  200.
  Preferred method for the eigenvalue solver ('KS_method') not specified in 'control.in'.
  Calling BLACS routine to test compilation state
  Since ScaLAPACK support is enabled, defaulting to ELPA (via ELSI).
  Will not use alltoall communication since running on < 1024 CPUs.
  Threshold for basis singularities not set.
  Default threshold for basis singularities:  0.1000E-04
  partition_type (choice of integration weights) for integrals was not specified.
  | Using a version of the partition function of Stratmann and coworkers ('stratmann_sparse').
  | At each grid point, the set of atoms used to build the partition table is smoothly restricted to
  | only those atoms whose free-atom density would be non-zero at that grid point.
  Partitioning for Hartree potential was not defined. Using partition_type for integrals.
  | Adjusted default value of keyword multip_moments_threshold to:       0.10000000E-11
  | This value may affect high angular momentum components of the Hartree potential in periodic systems.
  Angular momentum expansion for Kerker preconditioner not set explicitly.
  | Using default value of   0
  No explicit requirement for turning off preconditioner.
  | By default, it will be turned off when the charge convergence reaches
  | sc_accuracy_rho  =   0.391918E-04
  No special mixing parameter while Kerker preconditioner is on.
  Using default: charge_mix_param =     0.7500.
  Threshold for auxiliary basis singularities not set.
  Default threshold for auxiliary basis singularities:  0.1000E-04
  No q(lm)/r^(l+1) cutoff set for long-range Hartree potential.
  | Using default value of  0.100000E-09 .
  | Verify using the multipole_threshold keyword.
  Defaulting to new monopole extrapolation.
  Density update method: automatic selection selected.
  Using density matrix based charge density update.
  Using density matrix based charge density update.
  Using packed matrix style: index .
  Defaulting to use time-reversal symmetry for k-point grid.
  Charge integration errors on the 3D integration grid will be compensated
  by explicit normalization and distribution of residual charges.
  Use the "compensate_multipole_errors" flag to change this behaviour.
  Default to 1D ("use_logsbt") integrations for auxiliary 2-center integrals.
  Default onset of logarithmic r-grid for SBT is -38.000000000000
  Default onset of logarithmic k-grid for SBT is -25.000000000000
  Default range of logarithmic r- and k-grid for SBT is  45.000000000000
  Default number of logarithmic r- and k-grid for SBT is   4096
  Default of use_2d_corr is to use the efficient 2D distribution where possible
 
  Consistency checks for the contents of geometry.in are next.
 

  Range separation radius for Ewald summation (hartree_convergence_parameter):      2.91768261 bohr.
  Number of empty states per atom not set in control.in .
  | Since you are using a method that relies on the unoccupied spectrum
  | (MP2,GW,RPA et al.), will use the full Hamiltonian size (see below)
  | as the max. possible number of states (occupied plus empty).

  Structure-dependent array size parameters: 
  | Maximum number of distinct radial functions  :        9
  | Maximum number of basis functions            :     1440
  | Number of Kohn-Sham states (occupied + empty):     1440
------------------------------------------------------------
CUDA runtime version: 11060
CUDA driver version: 11060
  Initializing GPUs...

  Number of GPUs available to MPI task         0 :   1
  Number of GPUs available to MPI task         1 :   1
  Number of GPUs available to MPI task         2 :   1
  Number of GPUs available to MPI task         3 :   1
  Number of GPUs available to MPI task         4 :   1
  Number of GPUs available to MPI task         5 :   1
  Number of GPUs available to MPI task         6 :   1
  Number of GPUs available to MPI task         7 :   1
  Number of GPUs available to MPI task         8 :   1
  Number of GPUs available to MPI task         9 :   1
  Number of GPUs available to MPI task        10 :   1
  Number of GPUs available to MPI task        11 :   1
  Number of GPUs available to MPI task        12 :   1
  Number of GPUs available to MPI task        13 :   1
  Number of GPUs available to MPI task        14 :   1
  Number of GPUs available to MPI task        15 :   1
  Number of GPUs available to MPI task        16 :   1
  Number of GPUs available to MPI task        17 :   1

  | MPI task         0, GPU activated = T, Device Name = NVIDIA A100-SXM4-80GB
  | MPI task         1, GPU activated = T, Device Name = NVIDIA A100-SXM4-80GB
  | MPI task         2, GPU activated = T, Device Name = NVIDIA A100-SXM4-80GB
  | MPI task         3, GPU activated = T, Device Name = NVIDIA A100-SXM4-80GB
  | MPI task         4, GPU activated = T, Device Name = NVIDIA A100-SXM4-80GB
  | MPI task         5, GPU activated = T, Device Name = NVIDIA A100-SXM4-80GB
  | MPI task         6, GPU activated = T, Device Name = NVIDIA A100-SXM4-80GB
  | MPI task         7, GPU activated = T, Device Name = NVIDIA A100-SXM4-80GB
  | MPI task         8, GPU activated = T, Device Name = NVIDIA A100-SXM4-80GB
  | MPI task         9, GPU activated = T, Device Name = NVIDIA A100-SXM4-80GB
  | MPI task        10, GPU activated = T, Device Name = NVIDIA A100-SXM4-80GB
  | MPI task        11, GPU activated = T, Device Name = NVIDIA A100-SXM4-80GB
  | MPI task        12, GPU activated = T, Device Name = NVIDIA A100-SXM4-80GB
  | MPI task        13, GPU activated = T, Device Name = NVIDIA A100-SXM4-80GB
  | MPI task        14, GPU activated = T, Device Name = NVIDIA A100-SXM4-80GB
  | MPI task        15, GPU activated = T, Device Name = NVIDIA A100-SXM4-80GB
  | MPI task        16, GPU activated = T, Device Name = NVIDIA A100-SXM4-80GB
  | MPI task        17, GPU activated = T, Device Name = NVIDIA A100-SXM4-80GB

------------------------------------------------------------
          Preparing all fixed parts of the calculation.
------------------------------------------------------------
  Determining machine precision:
    2.225073858507201E-308
  Setting up grids for atomic and cluster calculations.

  Creating wave function, potential, and density for free atoms.
  Runtime choices for atomic solver:
  | atomic solver xc        : PW-LDA
  | compute density gradient: 0
  | compute kinetic density : F

  Species: H

  List of occupied orbitals and eigenvalues:
    n    l              occ      energy [Ha]    energy [eV]
    1    0           1.0000        -0.232375        -6.3233


  Species: C

  List of occupied orbitals and eigenvalues:
    n    l              occ      energy [Ha]    energy [eV]
    1    0           2.0000        -9.944615      -270.6068
    2    0           2.0000        -0.498807       -13.5732
    2    1           2.0000        -0.196968        -5.3598


  Adding cutoff potential to free-atom effective potential.
  Creating fixed part of basis set: Ionic, confined, hydrogenic.
 
  H                    hydrogenic:
 
  List of hydrogenic basis orbitals: 
    n    l      effective z      eigenvalue [eV]  inner max. [A]     outer max. [A]     outer radius [A]   
    2    0         2.100000       -14.9728           0.193243           1.317208           4.583499
    2    1         3.500000       -41.6669           0.602369           0.602369           3.723403
 
 
  C                    hydrogenic:
 
  List of hydrogenic basis orbitals: 
    n    l      effective z      eigenvalue [eV]  inner max. [A]     outer max. [A]     outer radius [A]   
    2    1         1.700000        -9.7616           1.230570           1.230570           4.607917
    3    2         6.000000       -54.4224           0.792453           0.792453           3.883070
    2    0         4.900000       -81.6679           0.082559           0.562749           3.078220
 
  Creating atomic-like basis functions for current effective potential.

  Species H                   :

  List of atomic basis orbitals and eigenvalues:
    n    l      energy [Ha]    energy [eV]    outer radius [A]
    1    0        -0.232375        -6.3233       4.527807


  Species C                   :

  List of atomic basis orbitals and eigenvalues:
    n    l      energy [Ha]    energy [eV]    outer radius [A]
    1    0        -9.944615      -270.6068       1.934409
    2    0        -0.498807       -13.5732       4.496620
    2    1        -0.196968        -5.3598       4.551928

  Assembling full basis from fixed parts.
  | Species H :   atomic orbital   1 s accepted.
  | Species H :    hydro orbital   2 s accepted.
  | Species H :    hydro orbital   2 p accepted.
  | Species C :   atomic orbital   1 s accepted.
  | Species C :    hydro orbital   2 s accepted.
  | Species C :   atomic orbital   2 s accepted.
  | Species C :   atomic orbital   2 p accepted.
  | Species C :    hydro orbital   2 p accepted.
  | Species C :    hydro orbital   3 d accepted.
 
  Basis size parameters after reduction:
  | Total number of radial functions:        9
  | Total number of basis functions :     1440
 
  Per-task memory consumption for arrays in subroutine allocate_ext:
  |           2.242384MB.
  Testing on-site integration grid accuracy.
  |  Species  Function  <phi|h_atom|phi> (log., in eV)  <phi|h_atom|phi> (rad., in eV)
           1        1                 -6.3245358373                 -6.3232436907
           1        2                 14.1326137532                 14.1384481100
           1        3                 25.3627025200                 25.3628451197
           2        4               -270.6067544938               -270.6067222788
           2        5                -10.5634280949                -10.5635685736
           2        6                 16.2089822398                 16.2052121796
           2        7                 -5.3613872565                 -5.3627872378
           2        8                  8.5292058327                  8.5051734780
           2        9                 27.4884461005                 27.4884542459

  Preparing densities etc. for the partition functions (integrals / Hartree potential).

  Preparations completed.
  max(cpu_time)          :      0.075 s.
  Wall clock time (cpu1) :      0.071 s.
------------------------------------------------------------

  Initializing index lists of integration centers etc. from given atomic structure:
  Mapping all atomic coordinates to central unit cell.

  Initializing the k-points
  Using symmetry for reducing the k-points
  | k-points reduced from:        2 to        2
  | Number of k-points                             :         2
  | Consuming          0 KiB for k_phase_exx.
  The eigenvectors in the calculations are REAL.
  | Number of basis functions in the Hamiltonian integrals :      7989
  | Number of basis functions in a single unit cell        :      1440
  | Number of centers in hartree potential         :      3338
  | Number of centers in hartree multipole         :      2560
  | Number of centers in electron density summation:      2000
  | Number of centers in basis integrals           :      2129
  | Number of centers in integrals                 :       965
  | Number of centers in hamiltonian               :      2007
  | Consuming          1 KiB for k_phase.
  | Number of super-cells (origin) [n_cells]                     :         175
  | Number of super-cells (after PM_index) [n_cells]             :          40
  | Number of super-cells in hamiltonian [n_cells_in_hamiltonian]:          40
  | Size of matrix packed + index [n_hamiltonian_matrix_size] :     1930714
  | Size of matrix packed + index (no_symmetry):     3858611

------------------------------------------------------------
          Begin self-consistency loop: Initialization.

          Date     :  20230119, Time     :  175931.572
------------------------------------------------------------
  | Estimated reciprocal-space cutoff momentum G_max:         3.24344278 bohr^-1 .
  | Reciprocal lattice points for long-range Hartree potential:    5310
  Using simple linear distribution as default method for k-point parallelism.
  * Using 18 tasks for Scalapack Eigenvalue solver.
  Detailed listing of tasks and assigned k-points:
   Task     0 k-point     1 on adag003
   Task     1 k-point     1 on adag003
   Task     2 k-point     1 on adag003
   Task     3 k-point     1 on adag003
   Task     4 k-point     1 on adag003
   Task     5 k-point     1 on adag003
   Task     6 k-point     1 on adag003
   Task     7 k-point     1 on adag003
   Task     8 k-point     1 on adag003
   Task     9 k-point     2 on adag003
   Task    10 k-point     2 on adag003
   Task    11 k-point     2 on adag003
   Task    12 k-point     2 on adag003
   Task    13 k-point     2 on adag003
   Task    14 k-point     2 on adag003
   Task    15 k-point     2 on adag003
   Task    16 k-point     2 on adag003
   Task    17 k-point     2 on adag003
  K-point:     1 Tasks:     9 split into      3 X      3 BLACS grid
  Calculating block size based on n_basis =         1440  max_nprow =            3  max_npcol =            3
  ScaLAPACK block size set to:           16
  Allocating        1.758 MB for ovlp
  Allocating        1.758 MB for ham
  Allocating        1.758 MB for eigenvec
  Required Scalapack workspace - INTEGER:            1  REAL:             1
  Partitioning the integration grid into batches with parallel hashing+maxmin method.
  | Number of batches:     5439
  | Maximal batch size:     200
  | Minimal batch size:      99
  | Average batch size:     140.438
  | Standard deviation of batch sizes:      31.855

  Integration load balanced across    18 MPI tasks.
  Work distribution over tasks is as follows:
  Task     0 has      42446 integration points.
  Task     1 has      42451 integration points.
  Task     2 has      42429 integration points.
  Task     3 has      42457 integration points.
  Task     4 has      42383 integration points.
  Task     5 has      42451 integration points.
  Task     6 has      42428 integration points.
  Task     7 has      42437 integration points.
  Task     8 has      42425 integration points.
  Task     9 has      42422 integration points.
  Task    10 has      42440 integration points.
  Task    11 has      42434 integration points.
  Task    12 has      42488 integration points.
  Task    13 has      42407 integration points.
  Task    14 has      42433 integration points.
  Task    15 has      42411 integration points.
  Task    16 has      42443 integration points.
  Task    17 has      42455 integration points.
  Initializing partition tables, free-atom densities, potentials, etc. across the integration grid (initialize_grid_storage).
  | initialize_grid_storage: Actual outermost partition radius vs. multipole_radius_free
  | (-- VB: in principle, multipole_radius_free should be larger, hence this output)
  | Species        1: Confinement radius =              4.999999999999999 AA, multipole_radius_free =              5.054417573612229 AA.
  | Species        1: outer_partition_radius set to              5.054417573612229 AA .
  | Species        2: Confinement radius =              4.999999999999999 AA, multipole_radius_free =              5.019602836301480 AA.
  | Species        2: outer_partition_radius set to              5.019602836301480 AA .
  | The sparse table of interatomic distances needs       7658.50 kbyte instead of     36261.13 kbyte of memory.
  | Net number of integration points:   763840
  | of which are non-zero points    :   605223
  | Numerical average free-atom electrostatic potential    :     -8.61466096 eV
  Renormalizing the initial density to the exact electron count on the 3D integration grid.
  | Initial density: Formal number of electrons (from input files) :     544.0000000000
  | Integrated number of electrons on 3D grid     :     543.9950914157
  | Charge integration error                      :      -0.0049085843
  | Normalization factor for density and gradient :       1.0000090232
  Renormalizing the free-atom superposition density to the exact electron count on the 3D integration grid.
  | Formal number of electrons (from input files) :     544.0000000000
  | Integrated number of electrons on 3D grid     :     543.9950914157
  | Charge integration error                      :      -0.0049085843
  | Normalization factor for density and gradient :       1.0000090232
  Obtaining max. number of non-zero basis functions in each batch (get_n_compute_maxes).
  | Maximal number of non-zero basis functions:      548 in task     0
  | Maximal number of non-zero basis functions:      544 in task     1
  | Maximal number of non-zero basis functions:      535 in task     2
  | Maximal number of non-zero basis functions:      544 in task     3
  | Maximal number of non-zero basis functions:      540 in task     4
  | Maximal number of non-zero basis functions:      556 in task     5
  | Maximal number of non-zero basis functions:      548 in task     6
  | Maximal number of non-zero basis functions:      529 in task     7
  | Maximal number of non-zero basis functions:      549 in task     8
  | Maximal number of non-zero basis functions:      537 in task     9
  | Maximal number of non-zero basis functions:      549 in task    10
  | Maximal number of non-zero basis functions:      549 in task    11
  | Maximal number of non-zero basis functions:      537 in task    12
  | Maximal number of non-zero basis functions:      552 in task    13
  | Maximal number of non-zero basis functions:      544 in task    14
  | Maximal number of non-zero basis functions:      549 in task    15
  | Maximal number of non-zero basis functions:      542 in task    16
  | Maximal number of non-zero basis functions:      548 in task    17
  Integrating Hamiltonian matrix: batch-based integration.
  GPU acceleration will be used when integrating the Hamiltonian matrix.
  Reporting GPU memory usage by myid 0.  Note that it is likely not the only MPI task binding to its GPU!
  Allocating        2.402 MB on GPU for hamiltonian_shell
  Allocating        0.877 MB on GPU for wave
  Allocating        0.002 MB on GPU for partition
  Allocating        0.877 MB on GPU for h_times_psi
  Time summed over all CPUs for integration: real work       24.336 s, elapsed       24.856 s
  Deallocating memory used on GPU for Hamiltonian integration.
  Integrating overlap matrix.
  Time summed over all CPUs for integration: real work       19.346 s, elapsed       19.909 s
  Deallocating overlap matrix.

  Updating Kohn-Sham eigenvalues and eigenvectors using ELSI and the ELPA eigensolver.
  Singularity check in k-point 1 (analysis for other k-points may follow below):
  Overlap matrix is not singular
  | Lowest and highest eigenvalues :  0.7799E-03,  0.8259E+01
  Finished singularity check of overlap matrix
  | Time :     0.098 s
  Starting ELPA eigensolver
  Finished Cholesky decomposition
  | Time :     0.017 s
  Finished transformation to standard eigenproblem
  | Time :     0.023 s
  Finished solving standard eigenproblem
  | Time :     0.206 s
  Finished back-transformation of eigenvectors
  | Time :     0.015 s

  Obtaining occupation numbers and electronic chemical potential using ELSI.
  | Note that, for insulating systems, the printed 'chemical potential' value is not uniquely defined.
  | It can be anywhere in the energy gap, as long as it correctly separates occupied and unoccupied states.
  | In systems with a gap, the physically relevant chemical potential is the VBM or HOMO.

  | Chemical potential (Fermi level):    -8.33517393 eV
  Writing Kohn-Sham eigenvalues.
  K-point:       1 at    0.000000    0.000000    0.000000 (in units of recip. lattice)

  State    Occupation    Eigenvalue [Ha]    Eigenvalue [eV]
      1       2.00000         -10.073093         -274.10280
      2       2.00000         -10.072992         -274.10005
      3       2.00000         -10.068854         -273.98747
      4       2.00000         -10.068561         -273.97949
      5       2.00000         -10.068522         -273.97843
      6       2.00000         -10.068052         -273.96563
      7       2.00000         -10.067610         -273.95361
      8       2.00000         -10.067541         -273.95174
      9       2.00000         -10.067065         -273.93879
     10       2.00000         -10.067054         -273.93847
     11       2.00000         -10.067050         -273.93837
     12       2.00000         -10.066863         -273.93329
     13       2.00000         -10.066740         -273.92995
     14       2.00000         -10.066264         -273.91699
     15       2.00000         -10.066171         -273.91445
     16       2.00000         -10.066134         -273.91344
     17       2.00000         -10.065921         -273.90766
     18       2.00000         -10.065588         -273.89857
     19       2.00000         -10.065550         -273.89755
     20       2.00000         -10.065327         -273.89148
     21       2.00000         -10.065293         -273.89056
     22       2.00000         -10.065271         -273.88995
     23       2.00000         -10.065173         -273.88729
     24       2.00000         -10.065080         -273.88476
     25       2.00000         -10.064960         -273.88148
     26       2.00000         -10.064591         -273.87146
     27       2.00000         -10.064523         -273.86959
     28       2.00000         -10.064486         -273.86859
     29       2.00000         -10.064422         -273.86686
     30       2.00000         -10.064386         -273.86589
     31       2.00000         -10.064304         -273.86365
     32       2.00000         -10.064205         -273.86095
     33       2.00000         -10.064184         -273.86039
     34       2.00000         -10.063984         -273.85493
     35       2.00000         -10.063886         -273.85227
     36       2.00000         -10.063751         -273.84859
     37       2.00000         -10.063341         -273.83744
     38       2.00000         -10.063271         -273.83555
     39       2.00000         -10.063125         -273.83156
     40       2.00000         -10.063096         -273.83078
     41       2.00000         -10.062978         -273.82757
     42       2.00000         -10.062586         -273.81689
     43       2.00000         -10.062259         -273.80800
     44       2.00000         -10.062173         -273.80565
     45       2.00000         -10.061865         -273.79728
     46       2.00000         -10.061826         -273.79622
     47       2.00000         -10.061761         -273.79444
     48       2.00000         -10.061755         -273.79428
     49       2.00000         -10.061747         -273.79407
     50       2.00000         -10.061700         -273.79279
     51       2.00000         -10.061694         -273.79263
     52       2.00000         -10.061209         -273.77942
     53       2.00000         -10.060797         -273.76821
     54       2.00000         -10.060421         -273.75799
     55       2.00000         -10.060128         -273.75002
     56       2.00000         -10.060017         -273.74699
     57       2.00000         -10.060012         -273.74685
     58       2.00000         -10.059791         -273.74084
     59       2.00000         -10.059679         -273.73780
     60       2.00000         -10.059611         -273.73595
     61       2.00000         -10.059475         -273.73224
     62       2.00000         -10.059393         -273.73000
     63       2.00000         -10.058942         -273.71773
     64       2.00000         -10.058768         -273.71299
     65       2.00000         -10.058592         -273.70821
     66       2.00000         -10.058481         -273.70520
     67       2.00000         -10.058440         -273.70409
     68       2.00000         -10.058262         -273.69924
     69       2.00000         -10.058227         -273.69828
     70       2.00000         -10.058214         -273.69793
     71       2.00000         -10.058189         -273.69726
     72       2.00000         -10.057818         -273.68716
     73       2.00000         -10.057546         -273.67975
[...]
  |    H      2     3.678162 A  1.011968E+04 A            0.556529 a.u.
  |    H      1     3.958095 A  1.721251E+06 A            0.841931 a.u.
  |    H      0     4.527807 A  3.866455E+12 A            0.581436 a.u.
  |    C      0     2.562483 A      2.562483 A        6.563029E-17 a.u.
  |    C      0     2.967371 A      2.967371 A        1.352164E-16 a.u.
  |    C      0     3.003870 A      3.003870 A        2.312640E-17 a.u.
  |    C      1     3.272245 A      3.272245 A       -3.835259E-17 a.u.
  |    C      0     3.312494 A      3.312494 A       -2.710381E-16 a.u.
  |    C      3     4.077671 A      4.077671 A       -1.683752E-15 a.u.
  |    C      3     4.077671 A      4.077671 A        1.412852E-15 a.u.
  |    C      1     4.496620 A      4.496620 A       -3.011059E-16 a.u.
  |    C      0     4.496620 A      4.551928 A        2.873903E-17 a.u.
  |    C      2     4.551928 A      4.551928 A       -4.610785E-16 a.u.
  |    C      2     4.551928 A      4.551928 A        7.440584E-16 a.u.
  |    C      2     4.551928 A      4.551928 A       -7.110458E-16 a.u.
  |    C      2     4.551928 A      4.551928 A       -1.935424E-16 a.u.
  |    C      0     4.551928 A      4.607917 A        2.067142E-16 a.u.
  |    C      0     4.551928 A      4.607917 A       -1.109786E-16 a.u.
  |    C      1     4.551928 A      4.607917 A       -9.951742E-17 a.u.
  |    C      1     4.551928 A      4.607917 A        1.937809E-16 a.u.
  |    C      1     4.607917 A      4.607917 A       -2.813308E-16 a.u.
  |    C      1     4.607917 A      4.607917 A       -7.330363E-17 a.u.
  |    C      2     4.607917 A      4.607917 A        1.318462E-15 a.u.
  |    C      2     4.607917 A      4.607917 A       -1.318397E-15 a.u.
  |    C      0     4.607917 A      4.664595 A        3.157826E-16 a.u.
  |    C      1     4.607917 A      4.664595 A        7.356967E-16 a.u.
  |    C      4     3.835889 A  2.962973E+02 A            4.379483 a.u.
  |    C      3     4.127827 A  1.725964E+03 A            9.005588 a.u.
  |    C      2     4.607917 A  2.608475E+04 A            9.531178 a.u.
  |    C      1     4.607917 A  2.736013E+06 A            2.127278 a.u.
  |    C      0     4.607917 A  4.399765E+12 A            0.661635 a.u.

  | Shrink_full_auxil_basis : there are       36  radial auxiliary wave functions
                            accepted and       7 rejected.
  | Shrink_full_auxil_basis : there are totally                8992 partial auxiliary wave functions.
 
  | Maximal number of product basis functions per thread :   512   512
 
  | Minimal total memory requirement for three-center overlap :      72.476 Gbs
  | Number of local auxiliary basis functions on task:      0   512
  | Number of local auxiliary basis functions on task:      1   512
  | Number of local auxiliary basis functions on task:      2   512
  | Number of local auxiliary basis functions on task:      3   512
  | Number of local auxiliary basis functions on task:      4   496
  | Number of local auxiliary basis functions on task:      5   496
  | Number of local auxiliary basis functions on task:      6   496
  | Number of local auxiliary basis functions on task:      7   496
  | Number of local auxiliary basis functions on task:      8   496
  | Number of local auxiliary basis functions on task:      9   496
  | Number of local auxiliary basis functions on task:     10   496
  | Number of local auxiliary basis functions on task:     11   496
  | Number of local auxiliary basis functions on task:     12   496
  | Number of local auxiliary basis functions on task:     13   496
  | Number of local auxiliary basis functions on task:     14   496
  | Number of local auxiliary basis functions on task:     15   496
  | Number of local auxiliary basis functions on task:     16   496
  | Number of local auxiliary basis functions on task:     17   496
  | 2D aux task distribution:      3 X      6
  | 2D block size (nb_aux_2d):     64
 
  Basis pair condensation :   1037520  -->     552914
 
 --------------------------------------------
  Constructing auxiliary basis (full product) ...
 
  Product basis:
  | charge radius: extent of product basis function
  | field radius: extent of its Coulomb potential
  | Species   l  charge radius    field radius  multipol momen
  |    H      1     3.910002 A      3.910002 A       -2.487223E-16 a.u.
  |    H      1     3.958095 A      3.958095 A       -2.441841E-16 a.u.
  |    H      0     4.527807 A      4.527807 A        1.268855E-16 a.u.
  |    H      0     4.527807 A      4.583499 A       -4.900954E-17 a.u.
  |    H      0     4.527807 A      4.583499 A        4.713786E-16 a.u.
  |    H      2     3.678162 A  1.011968E+04 A            0.556529 a.u.
  |    H      1     3.958095 A  1.721251E+06 A            0.841931 a.u.
  |    H      0     4.527807 A  3.866455E+12 A            0.581436 a.u.
  |    C      0     2.562483 A      2.562483 A        6.563029E-17 a.u.
  |    C      0     2.967371 A      2.967371 A        1.352164E-16 a.u.
  |    C      0     3.003870 A      3.003870 A        2.312640E-17 a.u.
  |    C      1     3.272245 A      3.272245 A       -3.835259E-17 a.u.
  |    C      0     3.312494 A      3.312494 A       -2.710381E-16 a.u.
  |    C      3     4.077671 A      4.077671 A       -1.683752E-15 a.u.
  |    C      3     4.077671 A      4.077671 A        1.412852E-15 a.u.
  |    C      1     4.496620 A      4.496620 A       -3.011059E-16 a.u.
  |    C      0     4.496620 A      4.551928 A        2.873903E-17 a.u.
  |    C      2     4.551928 A      4.551928 A       -4.610785E-16 a.u.
  |    C      2     4.551928 A      4.551928 A        7.440584E-16 a.u.
  |    C      2     4.551928 A      4.551928 A       -7.110458E-16 a.u.
  |    C      2     4.551928 A      4.551928 A       -1.935424E-16 a.u.
  |    C      0     4.551928 A      4.607917 A        2.067142E-16 a.u.
  |    C      0     4.551928 A      4.607917 A       -1.109786E-16 a.u.
  |    C      1     4.551928 A      4.607917 A       -9.951742E-17 a.u.
  |    C      1     4.551928 A      4.607917 A        1.937809E-16 a.u.
  |    C      1     4.607917 A      4.607917 A       -2.813308E-16 a.u.
  |    C      1     4.607917 A      4.607917 A       -7.330363E-17 a.u.
  |    C      2     4.607917 A      4.607917 A        1.318462E-15 a.u.
  |    C      2     4.607917 A      4.607917 A       -1.318397E-15 a.u.
  |    C      0     4.607917 A      4.664595 A        3.157826E-16 a.u.
  |    C      1     4.607917 A      4.664595 A        7.356967E-16 a.u.
  |    C      4     3.835889 A  2.962973E+02 A            4.379483 a.u.
  |    C      3     4.127827 A  1.725964E+03 A            9.005588 a.u.
  |    C      2     4.607917 A  2.608475E+04 A            9.531178 a.u.
  |    C      1     4.607917 A  2.736013E+06 A            2.127278 a.u.
  |    C      0     4.607917 A  4.399765E+12 A            0.661635 a.u.

  | Shrink_full_auxil_basis : there are       36  radial auxiliary wave functions
                            accepted and       7 rejected.
  | Shrink_full_auxil_basis : there are totally                8992 partial auxiliary wave functions.
 
  | Maximal number of product basis functions per thread :   512   512
 
  | Minimal total memory requirement for three-center overlap :      72.476 Gbs
  | Number of local auxiliary basis functions on task:      0   512
  | Number of local auxiliary basis functions on task:      1   512
  | Number of local auxiliary basis functions on task:      2   512
  | Number of local auxiliary basis functions on task:      3   512
  | Number of local auxiliary basis functions on task:      4   496
  | Number of local auxiliary basis functions on task:      5   496
  | Number of local auxiliary basis functions on task:      6   496
  | Number of local auxiliary basis functions on task:      7   496
  | Number of local auxiliary basis functions on task:      8   496
  | Number of local auxiliary basis functions on task:      9   496
  | Number of local auxiliary basis functions on task:     10   496
  | Number of local auxiliary basis functions on task:     11   496
  | Number of local auxiliary basis functions on task:     12   496
  | Number of local auxiliary basis functions on task:     13   496
  | Number of local auxiliary basis functions on task:     14   496
  | Number of local auxiliary basis functions on task:     15   496
  | Number of local auxiliary basis functions on task:     16   496
  | Number of local auxiliary basis functions on task:     17   496
  | 2D aux task distribution:      3 X      6
  | 2D block size (nb_aux_2d):     64
 
  Basis pair condensation :   1037520  -->     552914
  Allocating        0.069 MB for t_coeff
  Allocating        0.034 MB for basbas_idx
  Allocating        0.069 MB for wave
  Allocating        0.069 MB for total_wave
  Allocating        0.206 MB for wave_gradient
  Allocating        0.206 MB for total_wave_grad
 HERE1
 HERE2
  Deallocating        0.069 MB for t_coeff
  Deallocating        0.034 MB for basbas_idx
  Deallocating        0.069 MB for wave
  Deallocating        0.206 MB for wave_gradient
  Deallocating        0.206 MB for total_wave_grad
dP_dE (Bohr^3) at every cycle:--->
 (994.035310362599,0.000000000000000E+000) (-8.39361971051090,0.000000000000000E+000) (-451.136114341198,0.000000000000000E+000)
 (-8.48471267617972,0.000000000000000E+000) (1356.97258168718,0.000000000000000E+000) (-13.3169019008081,0.000000000000000E+000)
 (-451.322304854250,0.000000000000000E+000) (-13.3177201036712,0.000000000000000E+000) (1707.08325967138,0.000000000000000E+000)
DFPT polarizability (Bohr^3)        xx        yy        zz        xy        xz        yz
  | Polarizability:--->                       994.035310363                 1356.972581687                 1707.083259671                   -8.393619711                 -451.136114341                  -13.316901901

DFPT for dielectric_constant:--->  # PARSE DFPT_dielectric_tensor
               2.348884712957854            -0.011389962907615            -0.612182084232070
              -0.011513574118975             2.841382848535937            -0.018070751824105
              -0.612434740786758            -0.018071862107937             3.316475570547932

                                               :  max(cpu_time)    wall_clock(cpu1)
  | Time for  dielectric calculation            :        0.000 s           0.000 s
===========================================================================

------------------------------------------------------------------------------
  Final output of selected total energy values:

  The following output summarizes some interesting total energy values
  at the end of a run (AFTER all relaxation, molecular dynamics, etc.).

  | Total energy of the DFT / Hartree-Fock s.c.f. calculation      :         -83267.512101686 eV
  | Final zero-broadening corrected energy (caution - metals only) :         -83267.512101686 eV
  | For reference only, the value of 1 Hartree used in FHI-aims is :             27.211384500 eV
  | For reference only, the overall average (free atom contribution
  | + realspace contribution) of the electrostatic potential after
  | s.c.f. convergence is                                          :             -7.697861673 eV

  Before relying on these values, please be sure to understand exactly which
  total energy value is referred to by a given number. Different objects may
  all carry the same name 'total energy'. Definitions:

  Total energy of the DFT / Hartree-Fock s.c.f. calculation:
  | Note that this energy does not include ANY quantities calculated after the
  | s.c.f. cycle, in particular not ANY RPA, MP2, etc. many-body perturbation terms.

  Final zero-broadening corrected energy:
  | For metallic systems only, a broadening of the occupation numbers at the Fermi
  | level can be extrapolated back to zero broadening by an electron-gas inspired
  | formula. For all systems that are not real metals, this value can be
  | meaningless and should be avoided.

------------------------------------------------------------------------------
  Methods described in the following list of references were used in this FHI-aims run.
  If you publish the results, please make sure to cite these reference if they apply.
  FHI-aims is an academic code, and for our developers (often, Ph.D. students
  and postdocs), scientific credit in the community is essential.
  Thank you for helping us!

  For any use of FHI-aims, please cite:

    Volker Blum, Ralf Gehrke, Felix Hanke, Paula Havu, Ville Havu,
    Xinguo Ren, Karsten Reuter, and Matthias Scheffler
    'Ab initio molecular simulations with numeric atom-centered orbitals'
    Computer Physics Communications 180, 2175-2196 (2009)
    http://doi.org/10.1016/j.cpc.2009.06.022


  For Hartree-Fock, hybrid functionals, or many-body perturbation theory used in your run, please cite:

    Xinguo Ren, Patrick Rinke, Volker Blum, Juergen Wieferink, Alex Tkatchenko,
    Andrea Sanfilippo, Karsten Reuter, and Matthias Scheffler,
    'Resolution-of-identity approach to Hartree-Fock, hybrid density functionals,
    RPA, MP2, and GW with numeric atom-centered orbital basis functions'
    New Journal of Physics 14, 053020 (2012).
    http://doi.org/10.1088/1367-2630/14/5/053020


  The provided symmetry information was generated with SPGlib:

    Atsushi Togo, Yusuke Seto, Dimitar Pashov
    SPGlib 1.7.3 obtained from http://spglib.sourceforge.net
    Copyright (C) 2008 Atsushi Togo


  The DFPT (perturbation by an electric field) part of the code was used.
  Here is the corresponding reference:

    Honghui Shang, Nathaniel Raimbault, Mariana Rossi,
    Christian Carbogno, Patrick Rinke and Matthias Scheffler,
    'All-Electron, Real-Space Perturbation Theory for Homogeneous
    Electric Fields: Theory, Implementation, and Application within dft'
    New Journal of Physics, 20(7):073040, 2018


  The ELSI infrastructure was used in your run to solve the Kohn-Sham electronic structure.
  Please check out http://elsi-interchange.org to learn more.
  If scalability is important for your project, please acknowledge ELSI by citing:

    V. W-z. Yu, F. Corsetti, A. Garcia, W. P. Huhn, M. Jacquelin, W. Jia,
    B. Lange, L. Lin, J. Lu, W. Mi, A. Seifitokaldani, A. Vazquez-Mayagoitia,
    C. Yang, H. Yang, and V. Blum
    'ELSI: A unified software interface for Kohn-Sham electronic structure solvers'
    Computer Physics Communications 222, 267-285 (2018).
    http://doi.org/10.1016/j.cpc.2017.09.007


  For the real-space grid partitioning and parallelization used in this calculation, please cite:

    Ville Havu, Volker Blum, Paula Havu, and Matthias Scheffler,
    'Efficient O(N) integration for all-electron electronic structure calculation'
    'using numerically tabulated basis functions'
    Journal of Computational Physics 228, 8367-8379 (2009).
    http://doi.org/10.1016/j.jcp.2009.08.008


  The high-level electronic structure method used in your calculation
  employed our efficient localized resolution of identity for the Coulomb operator.
  Some calculations, especially large-scale hybrid density functional theory,
  are only possible thanks to this development. For this feature, please cite:

    Arvid Ihrig, Juergen Wieferink, Igor Ying Zhang, Matti Ropo, Xinguo Ren,
    Patrick Rinke, Matthias Scheffler, and Volker Blum,
    'Accurate localized resolution of identity approach for linear-scaling
    hybrid density functionals and for many-body perturbation theory'
    New Journal of Physics 117, 093020 (2015).
    http://doi.org/10.1088/1367-2630/17/9/093020

  Of course, there are many other important community references, e.g., those cited in the
  above references. Our list is limited to references that describe implementations in the
  FHI-aims code. The reason is purely practical (length of this list) - please credit others as well.

------------------------------------------------------------
          Leaving FHI-aims.
          Date     :  20230119, Time     :  182538.769

          Computational steps:
          | Number of self-consistency cycles          :           47
          | Number of SCF (re)initializations          :            1
          | Number of coupled perturbed self-consistency cycles          :            0
          | Number of CPSCF (re)initializations          :            0

          Detailed time accounting                     :  max(cpu_time)    wall_clock(cpu1)
          | Total time                                  :     1569.791 s        1585.091 s
          | GPU initialization                          :        2.258 s          16.752 s
          | Preparation time                            :        0.075 s           0.071 s
          | Boundary condition initalization            :        0.996 s           0.997 s
          | Grid partitioning                           :        1.263 s           1.263 s
          | Preloading free-atom quantities on grid     :        3.986 s           3.987 s
          | Free-atom superposition energy              :        0.513 s           0.513 s
          | Total time for integrations                 :       20.101 s          20.198 s
          | Product basis setup: Total time             :        0.000 s           0.000 s
          | Product basis: | 2-center integrations     :(       0.000 s)  (       0.000 s)
          | Product basis: | LVL 3-center & coefficient:(       0.000 s)  (       0.000 s)
          | Total time for solution of K.-S. equations  :        3.667 s           3.668 s
          | Total time for density update               :       13.711 s          13.837 s
          | Total time for mixing & preconditioning     :       12.770 s          12.773 s
          | Total time for Hartree multipole update     :        0.092 s           0.093 s
          | Total time for Hartree multipole sum        :       45.815 s          45.829 s
          | Total time for total energy evaluation      :        0.007 s           0.004 s
          | Total time first_order_DM                   :        1.969 s           1.963 s
          | Total time first_order_density              :      314.144 s         314.162 s
          | Total time first_order_potential            :      123.301 s         123.337 s
          | Total time first_order_H                    :      596.616 s         596.774 s
          | Total time solving of Sternheimer equations :        1.948 s           1.948 s
          | Total time for dielectric constant          :        0.000 s           0.000 s
          | Total time momentum matrix                  :        0.000 s           0.000 s

          GPU acceleration has been used for charge density update.
          GPU acceleration has been used for real-space Hamiltonian integration.
          Due to GPU usage, wall_clock(cpu1) will give a more reliable estimate for timings.

          Partial memory accounting:
          | Residual value for overall tracked memory usage across tasks:     1.234863 MB (should be 0.000000 MB)
          |
          | Largest tracked array allocation:
          |   Minimum:      103.111 MB (DFPT_pulay_mixing::initialize_pulay_mixing::X_in_diffs on task  0)
          |   Maximum:      103.111 MB (DFPT_pulay_mixing::initialize_pulay_mixing::X_in_diffs on task  0)
          |   Average:      103.111 MB
          |
          | Because the residual tracked memory usage was not zero, the peak value for overall
          | tracked memory usage was not output, as it is probably incorrect.  This is likely due
          | to a missing aims_deallocate statement in the source code, which should be otherwise
          | harmless.
          |
          Note:  These values currently only include a subset of arrays which are explicitly tracked.
          The "true" memory usage will be greater.

          Have a nice day.
------------------------------------------------------------
