------------------------------------------------------------
          Invoking FHI-aims ...

          When using FHI-aims, please cite the following reference:

            Volker Blum, Ralf Gehrke, Felix Hanke, Paula Havu,
            Ville Havu, Xinguo Ren, Karsten Reuter, and Matthias Scheffler,
            'Ab Initio Molecular Simulations with Numeric Atom-Centered Orbitals',
            Computer Physics Communications 180, 2175-2196 (2009)

          In addition, many other developments in FHI-aims are likely important for
          your particular application. A partial list of references is given at the end of
          this file. Thank you for giving credit to the authors of these developments.

          For any questions about FHI-aims, please visit our slack channel at

            https://fhi-aims.slack.com

          and our main development and support site at

            https://aims-git.rz-berlin.mpg.de .

          The latter site, in particular, has a wiki to collect information, as well
          as an issue tracker to log discussions, suggest improvements, and report issues
          or bugs. https://aims-git.rz-berlin.mpg.de is also the main development site
          of the project and all new and updated code versions can be obtained there.
          Please send an email to aims-coordinators@fhi-berlin.mpg.de and we will add
          you to these sites. They are for you and everyone is welcome there.

------------------------------------------------------------



  Date     :  20230125, Time     :  182900.150
  Time zero on CPU 1             :   0.370851000000000E+00  s.
  Internal wall clock time zero  :           443903340.150  s.

  FHI-aims created a unique identifier for this run for later identification
  aims_uuid : AA16A7C7-AD0A-42B4-A943-F457C6E7CD3D

  Build configuration of the current instance of FHI-aims
  -------------------------------------------------------
  FHI-aims version      : 221103
  Commit number         : 42523251a
  CMake host system     : Linux-5.3.18-150300.59.68-default
  CMake version         : 3.17.0
  Fortran compiler      : /mpcdf/soft/SLE_15/packages/x86_64/intel_oneapi/2021.3/mpi/2021.3.0/bin/mpiifort (Intel) version 20.2.3.20210609
  Fortran compiler flags: -O3 -ip -fp-model precise
  C compiler            : /mpcdf/soft/SLE_15/packages/x86_64/intel/2021.3.0/bin/icc (Intel) version 20.2.3.20210609
  C compiler flags      : -O3 -ip -fp-model precise -std=gnu99
  CUDA compiler         : /mpcdf/soft/SLE_15/packages/x86_64/cuda/11.6.2/bin/nvcc
  CUDA compiler flags   : -O3 -DAdd_ -lcublas
  HIP compiler          :
  HIP compiler flags    :
  HIP GPU arch          :
  ELPA2 kernel          : AVX512
  Using MPI
  Using ScaLAPACK
  Using LibXC
  Using CUDA
  Using i-PI
  Using RLSY
  Linking against: /mpcdf/soft/SLE_15/packages/x86_64/cuda/11.6.2/lib64/libcublas.so
                   /mpcdf/soft/SLE_15/packages/x86_64/cuda/11.6.2/lib64/libcudart.so
                   /mpcdf/soft/SLE_15/packages/x86_64/intel_oneapi/2021.3/mkl/latest/lib/intel64/libmkl_intel_lp64.so
                   /mpcdf/soft/SLE_15/packages/x86_64/intel_oneapi/2021.3/mkl/latest/lib/intel64/libmkl_sequential.so
                   /mpcdf/soft/SLE_15/packages/x86_64/intel_oneapi/2021.3/mkl/latest/lib/intel64/libmkl_core.so
                   /mpcdf/soft/SLE_15/packages/x86_64/intel_oneapi/2021.3/mkl/latest/lib/intel64/libmkl_blacs_intelmpi_lp64.so
                   /mpcdf/soft/SLE_15/packages/x86_64/intel_oneapi/2021.3/mkl/latest/lib/intel64/libmkl_scalapack_lp64.so

  Using       18 parallel tasks.
  Task        0 on host adag028 reporting.
  Task        1 on host adag028 reporting.
  Task        2 on host adag028 reporting.
  Task        3 on host adag028 reporting.
  Task        4 on host adag028 reporting.
  Task        5 on host adag028 reporting.
  Task        6 on host adag028 reporting.
  Task        7 on host adag028 reporting.
  Task        8 on host adag028 reporting.
  Task        9 on host adag028 reporting.
  Task       10 on host adag028 reporting.
  Task       11 on host adag028 reporting.
  Task       12 on host adag028 reporting.
  Task       13 on host adag028 reporting.
  Task       14 on host adag028 reporting.
  Task       15 on host adag028 reporting.
  Task       16 on host adag028 reporting.
  Task       17 on host adag028 reporting.

  Obtaining array dimensions for all initial allocations:
  
  -----------------------------------------------------------------------
  Parsing control.in (first pass over file, find array dimensions only).
  The contents of control.in will be repeated verbatim below
  unless switched off by setting 'verbatim_writeout .false.' .
  in the first line of control.in .
  -----------------------------------------------------------------------
  
  #
  # Input for polarizability replays on generic oligoacene molecular crystals (light settings,  LDA+MBD).
  #
  #########################################################################################
  #
  #  Physical model
  #
    xc                 pw-lda
    spin               none
    relativistic       none
    charge             0.0
    k_grid 	     2 1 1
    DFPT dielectric
  #
  #  GPU acceleration
  #
  # Turns on GPU acceleration everywhere
    use_gpu
  
  # Turns OFF GPU acceleration of ELPA - may be necessary if GPU ELPA is slow
    elsi_elpa_gpu 0
  #
  #  Relaxation
  #
  #  relax_geometry trm 1E-3
  #  relax_unit_cell fixed_angles
  #
  #  SCF convergence        #
    charge_mix_param   0.75
    #sc_accuracy_rho 1E-4
  #
  # i-PI communication
  #
  compute_forces .false.
  # use_pimd_wrapper 130.183.223.27 26118
  #communicate_pimd_wrapper polarizability
  #output_level MD_light
  #
  # Output SALTED info
    ri_density_restart write
    ri_rho1 write
    ri_full_output .true.
  #  sc_accuracy_rho    1d-6
    default_prodbas_acc 1e-6
    default_max_l_prodbas 6
  #
  #
  ################################################################################
  #
  #  FHI-aims code project
  #  VB, Fritz-Haber Institut, 2009
  #
  #  Suggested "light" defaults for H atom (to be pasted into control.in file)
  #  Be sure to double-check any results obtained with these settings for post-processing,
  #  e.g., with the "tight" defaults and larger basis sets.
  #
  ################################################################################
    species        H
  #     global species definitions
      nucleus             1
      mass                1.00794
  #
      l_hartree           4
  #
      cut_pot             3.5  1.5  1.0
      basis_dep_cutoff    1e-4
  #
      radial_base         24 5.0
      radial_multiplier   1
      angular_grids       specified
        division   0.2421   50
        division   0.3822  110
        division   0.4799  194
        division   0.5341  302
  #      division   0.5626  434
  #      division   0.5922  590
  #      division   0.6542  770
  #      division   0.6868 1202
  #      outer_grid  770
        outer_grid  302
  ################################################################################
  #
  #  Definition of "minimal" basis
  #
  ################################################################################
  #     valence basis states
      valence      1  s   1.
  #     ion occupancy
      ion_occ      1  s   0.5
  ################################################################################
  #
  #  Suggested additional basis functions. For production calculations,
  #  uncomment them one after another (the most important basis functions are
  #  listed first).
  #
  #  Basis constructed for dimers: 0.5 A, 0.7 A, 1.0 A, 1.5 A, 2.5 A
  #
  ################################################################################
  #  "First tier" - improvements: -1014.90 meV to -62.69 meV
       hydro 2 s 2.1
       hydro 2 p 3.5
  #  "Second tier" - improvements: -12.89 meV to -1.83 meV
  #     hydro 1 s 0.85
  #     hydro 2 p 3.7
  #     hydro 2 s 1.2
  #     hydro 3 d 7
  #  "Third tier" - improvements: -0.25 meV to -0.12 meV
  #     hydro 4 f 11.2
  #     hydro 3 p 4.8
  #     hydro 4 d 9
  #     hydro 3 s 3.2
  ################################################################################
  ################################################################################
  #
  #  FHI-aims code project
  #  VB, Fritz-Haber Institut, 2009
  #
  #  Suggested "light" defaults for C atom (to be pasted into control.in file)
  #  Be sure to double-check any results obtained with these settings for post-processing,
  #  e.g., with the "tight" defaults and larger basis sets.
  #
  ################################################################################
    species        C
  #     global species definitions
      nucleus             6
      mass                12.0107
  #
      l_hartree           4
  #
      cut_pot             3.5  1.5  1.0
      basis_dep_cutoff    1e-4
  #
      radial_base         34 5.0
      radial_multiplier   1
      angular_grids specified
        division   0.3326   50
        division   0.5710  110
        division   0.7727  194
        division   0.8772  302
  #      division   0.9334  434
  #      division   0.9625  590
  #      division   0.9924  770
  #      division   1.0230  974
  #      division   1.4589 1202
  #     outer_grid  974
       outer_grid 302
  ################################################################################
  #
  #  Definition of "minimal" basis
  #
  ################################################################################
  #     valence basis states
      valence      2  s   2.
      valence      2  p   2.
  #     ion occupancy
      ion_occ      2  s   1.
      ion_occ      2  p   1.
  ################################################################################
  #
  #  Suggested additional basis functions. For production calculations,
  #  uncomment them one after another (the most important basis functions are
  #  listed first).
  #
  #  Constructed for dimers: 1.0 A, 1.25 A, 1.5 A, 2.0 A, 3.0 A
  #
  ################################################################################
  #  "First tier" - improvements: -1214.57 meV to -155.61 meV
       hydro 2 p 1.7
       hydro 3 d 6
       hydro 2 s 4.9
  #  "Second tier" - improvements: -67.75 meV to -5.23 meV
  #     hydro 4 f 9.8
  #     hydro 3 p 5.2
  #     hydro 3 s 4.3
  #     hydro 5 g 14.4
  #     hydro 3 d 6.2
  #  "Third tier" - improvements: -2.43 meV to -0.60 meV
  #     hydro 2 p 5.6
  #     hydro 2 s 1.4
  #     hydro 3 d 4.9
  #     hydro 4 f 11.2
  #  "Fourth tier" - improvements: -0.39 meV to -0.18 meV
  #     hydro 2 p 2.1
  #     hydro 5 g 16.4
  #     hydro 4 d 13.2
  #     hydro 3 s 13.6
  #     hydro 4 f 17.6
  #  Further basis functions - improvements: -0.08 meV and below
  #     hydro 3 s 2
  #     hydro 3 p 6
  #     hydro 4 d 20
  
  -----------------------------------------------------------------------
  Completed first pass over input file control.in .
  -----------------------------------------------------------------------
  
  
  -----------------------------------------------------------------------
  Parsing geometry.in (first pass over file, find array dimensions only).
  The contents of geometry.in will be repeated verbatim below
  unless switched off by setting 'verbatim_writeout .false.' .
  in the first line of geometry.in .
  -----------------------------------------------------------------------
  
  #=======================================================
  # FHI-aims file: /ada/ptmp/mpsd/alewis/naphthalene/qmdata/data/geoms/437.in
  # Created using the Atomic Simulation Environment (ASE)
  # Thu Jan 19 15:19:17 2023
  #=======================================================
  lattice_vector 8.1020000000000003 0.0000000000000000 0.0000000000000000
  lattice_vector 0.0000000000000000 11.8800000000000008 0.0000000000000000
  lattice_vector -9.7850918486534706 0.0000000000000000 14.2571119625755713
  atom -0.7689530000000000 0.1157090000000000 2.4279799999999998 C
  atom 0.2308970000000000 3.1336700000000000 4.8580899999999998 C
  atom 4.2483800000000000 5.6922699999999997 4.8417700000000004 C
  atom 3.0043199999999999 2.9539200000000001 2.3185799999999999 C
  atom -0.0246571000000000 0.9934260000000000 1.6480600000000001 C
  atom -0.5825810000000000 3.9759400000000000 5.5840699999999996 C
  atom 3.4737700000000000 4.8327700000000000 5.6087400000000001 C
  atom 3.8535400000000002 2.0879300000000001 1.7011700000000001 C
  atom 0.3390870000000000 0.6989220000000000 0.3021710000000000 C
  atom -0.9713490000000000 3.6099100000000002 6.9274699999999996 C
  atom 3.0942400000000001 5.2183799999999998 6.9306999999999999 C
  atom 4.3224400000000003 2.3658199999999998 0.3943840000000000 C
  atom -3.7867400000000000 1.5381600000000000 6.7000799999999998 C
  atom 3.1771500000000001 4.5354200000000002 0.5134800000000000 C
  atom 7.2442799999999998 4.5274500000000000 0.4475190000000000 C
  atom 0.2895160000000000 1.5239900000000000 6.6834600000000002 C
  atom -3.4592000000000001 1.1863600000000001 5.3934400000000000 C
  atom 2.6920700000000002 4.1978400000000002 1.7418000000000000 C
  atom 6.9561299999999999 4.8176800000000002 1.7792699999999999 C
  atom 0.6417310000000001 1.8826200000000000 5.4014600000000002 C
  atom -0.9878060000000000 0.4204240000000000 3.4611499999999999 H
  atom 0.6127400000000000 3.4255700000000000 3.8823900000000000 H
  atom 4.6365600000000002 5.3499499999999998 3.8435999999999999 H
  atom 2.6921100000000000 2.7269999999999999 3.3462700000000001 H
  atom 0.2444200000000000 1.9658000000000000 2.0789200000000001 H
  atom -0.9456100000000000 4.9484899999999996 5.2085499999999998 H
  atom 3.1483300000000001 3.8704299999999998 5.1966700000000001 H
  atom 4.1939299999999999 1.2077800000000001 2.2143000000000002 H
  atom -3.4122499999999998 2.4704899999999999 7.1446300000000003 H
  atom 2.9486800000000000 5.5225900000000001 0.1100510000000000 H
  atom 6.9782000000000002 3.5372900000000000 0.0235596000000000 H
  atom 0.5399620000000001 0.5377610000000000 7.0762099999999997 H
  atom -2.8121900000000002 1.8209800000000000 4.8302300000000002 H
  atom 2.0640800000000001 4.9242400000000002 2.2716200000000000 H
  atom 6.3991400000000001 4.1564300000000003 2.4448500000000002 H
  atom 1.2940300000000000 1.2088099999999999 4.8081800000000001 H
  atom -5.6533300000000004 0.1281160000000000 9.5813699999999997 C
  atom -4.6147200000000002 2.9781100000000000 12.0805000000000007 C
  atom -0.5131470000000000 5.8398800000000000 11.8354999999999997 C
  atom -1.6996599999999999 2.8479999999999999 9.5625300000000006 C
  atom -4.9301500000000003 1.0250300000000001 8.7965900000000001 C
  atom -5.3841999999999999 3.8764799999999999 12.7482000000000006 C
  atom -1.3269000000000000 5.0265899999999997 12.6105999999999998 C
  atom -0.8700440000000000 2.0219200000000002 8.7977799999999995 C
  atom -4.6063099999999997 0.6758530000000000 7.4678100000000001 C
  atom -5.8257099999999999 3.6122800000000002 14.0305000000000000 C
  atom -1.7461899999999999 5.4017400000000002 13.9212000000000007 C
  atom -0.5650820000000000 2.3380100000000001 7.4676400000000003 C
  atom -8.7252700000000001 1.6087100000000001 13.7310999999999996 C
  atom -1.7772300000000001 4.4606199999999996 7.7582800000000001 C
  atom 2.3082099999999999 4.3395999999999999 7.7171000000000003 C
  atom -4.6747100000000001 1.4276599999999999 13.9588999999999999 C
  atom -8.3266100000000005 1.2329500000000000 12.4716000000000005 C
  atom -2.1615500000000001 4.0536000000000003 9.0296800000000008 C
  atom 1.9415100000000001 4.7381300000000000 8.9795800000000003 C
  atom -4.1806000000000001 1.7484200000000001 12.6882000000000001 C
  atom -5.9452400000000001 0.4137670000000000 10.6052999999999997 H
  atom -4.3188599999999999 3.1739500000000000 11.0542999999999996 H
  atom -0.1388930000000000 5.5512899999999998 10.8417999999999992 H
  atom -1.9185000000000001 2.5491400000000000 10.6158000000000001 H
  atom -4.7458000000000000 2.0522200000000002 9.1533200000000008 H
  atom -5.7422199999999997 4.7770799999999998 12.2683000000000000 H
  atom -1.7051400000000001 4.0805699999999998 12.2280999999999995 H
  atom -0.4879530000000000 1.0678200000000000 9.2166800000000002 H
  atom -8.4095700000000004 2.5785499999999999 14.1038999999999994 H
  atom -2.1419800000000002 5.4436400000000003 7.3810200000000004 H
  atom 1.9796600000000000 3.3798599999999999 7.3286199999999999 H
  atom -4.3901100000000000 0.4847430000000000 14.4250000000000007 H
  atom -7.6211700000000002 1.8575600000000001 11.8940000000000001 H
  atom -2.7696800000000001 4.6946399999999997 9.6856799999999996 H
  atom 1.2803000000000000 4.0927800000000003 9.5426199999999994 H
  atom -3.5258300000000000 1.0664300000000000 12.1448000000000000 H
  atom -0.7256680000000000 6.0854799999999996 2.2765800000000000 C
  atom 0.0850697000000000 8.9123400000000004 4.7744099999999996 C
  atom 4.1951900000000002 11.8216999999999999 4.8376400000000004 C
  atom 3.1819099999999998 8.8214000000000006 2.4985100000000000 C
  atom 0.0044607800000000 6.9797799999999999 1.5260300000000000 C
  atom -0.7241000000000000 9.7489399999999993 5.4790999999999999 C
  atom 3.4336400000000000 10.9755000000000003 5.6079900000000000 C
  atom 3.9604900000000001 7.9063600000000003 1.7820800000000001 C
  atom 0.3803190000000000 6.6632499999999997 0.1906950000000000 C
  atom -1.0112099999999999 9.5089799999999993 6.8535800000000000 C
  atom 3.0611199999999998 11.2967999999999993 6.9436499999999999 C
  atom 4.3520099999999999 8.2466200000000001 0.4568780000000000 C
  atom -3.8897599999999999 7.4022899999999998 6.5493899999999998 C
  atom 3.1482800000000002 10.4221000000000004 0.6545450000000000 C
  atom 7.3144999999999998 10.3659999999999997 0.6223280000000000 C
  atom 0.1912160000000000 7.3891600000000004 6.6703200000000002 C
  atom -3.5432299999999999 6.9846000000000004 5.3050300000000004 C
  atom 2.7843499999999999 10.0693000000000001 1.9463500000000000 C
  atom 6.9604799999999996 10.7493999999999996 1.8977599999999999 C
  atom 0.5596800000000000 7.7130799999999997 5.3818900000000003 C
  atom -0.9901910000000000 6.3918100000000004 3.2826599999999999 H
  atom 0.3248780000000000 9.1002899999999993 3.7262800000000000 H
  atom 4.5683299999999996 11.5146999999999995 3.8555400000000000 H
  atom 2.9045000000000001 8.5708599999999997 3.5544799999999999 H
  atom 0.2480100000000000 7.9578600000000002 1.9279900000000001 H
  atom -1.0993500000000000 10.6449999999999996 4.9565900000000003 H
  atom 3.0859999999999999 9.9911100000000008 5.2411899999999996 H
  atom 4.2710100000000004 6.9528200000000000 2.1602999999999999 H
  atom -3.6560100000000002 8.3873800000000003 6.9137500000000003 H
  atom 2.8984999999999999 11.4166000000000007 0.2440290000000000 H
  atom 7.0430500000000000 9.3811000000000000 0.1888150000000000 H
  atom 0.5326520000000000 6.4209100000000001 7.0586700000000002 H
  atom -2.9774799999999999 7.6581599999999996 4.6558999999999999 H
  atom 2.2189899999999998 10.7515999999999998 2.5553300000000001 H
  atom 6.3562700000000003 10.0718999999999994 2.4884900000000001 H
  atom 1.2445800000000000 7.0038299999999998 4.8415900000000001 H
  atom -5.7632700000000003 5.9741499999999998 9.4776500000000006 C
  atom -4.8325500000000003 8.8989200000000004 12.0325000000000006 C
  atom -0.5760729999999999 11.8541000000000007 11.9419000000000004 C
  atom -1.7216800000000001 8.8581500000000002 9.5522899999999993 C
  atom -5.0226499999999996 6.8843100000000002 8.7215900000000008 C
  atom -5.5522900000000002 9.8183399999999992 12.8154000000000003 C
  atom -1.3026300000000000 10.9417000000000009 12.7103000000000002 C
  atom -1.0037900000000000 7.9549000000000003 8.7972900000000003 C
  atom -4.6540400000000002 6.5254599999999998 7.4040100000000004 C
  atom -5.8778400000000000 9.5008599999999994 14.1211000000000002 C
  atom -1.7130099999999999 11.2736999999999998 14.0268999999999995 C
  atom -0.6363790000000000 8.2479300000000002 7.4363900000000003 C
  atom -8.5542899999999999 7.4924799999999996 13.6539000000000001 C
  atom -1.7542100000000000 10.4154000000000000 7.6512799999999999 C
  atom 2.3620700000000001 10.3841999999999999 7.7585499999999996 C
  atom -4.7122700000000002 7.3408699999999998 13.8971000000000000 C
  atom -8.1256599999999999 7.0728900000000001 12.4085999999999999 C
  atom -2.1060599999999998 10.0952000000000002 8.9535300000000007 C
  atom 2.0025400000000002 10.7379999999999995 9.0571000000000002 C
  atom -4.3803200000000002 7.6786399999999997 12.5886999999999993 C
  atom -6.0299500000000004 6.2494600000000000 10.5132999999999992 H
  atom -4.6240300000000003 9.1795100000000005 10.9955999999999996 H
  atom -0.2468290000000000 11.5762000000000000 10.9517000000000007 H
  atom -2.0758999999999999 8.6964199999999998 10.5539000000000005 H
  atom -4.7165200000000000 7.8678900000000001 9.1377000000000006 H
  atom -5.9183100000000000 10.7887000000000004 12.3849000000000000 H
  atom -1.5003500000000001 9.9443400000000004 12.2324999999999999 H
  atom -0.6983110000000000 7.0207199999999998 9.2503600000000006 H
  atom -8.1534800000000001 8.3861299999999996 14.0884999999999998 H
  atom -2.0519900000000000 11.3855000000000004 7.2213300000000000 H
  atom 2.0680800000000001 9.3890700000000002 7.4235699999999998 H
  atom -4.3905900000000004 6.3836500000000003 14.3093000000000004 H
  atom -7.3417000000000003 7.6091400000000000 11.8440999999999992 H
  atom -2.6793999999999998 10.8419000000000008 9.5351400000000002 H
  atom 1.4319400000000000 10.0816999999999997 9.7200600000000001 H
  atom -3.8207800000000001 6.9757199999999999 11.9741999999999997 H
  
  -----------------------------------------------------------------------
  Completed first pass over input file geometry.in .
  -----------------------------------------------------------------------
  

  Basic array size parameters:
  | Number of species                 :        2
  | Number of atoms                   :      144
  | Number of lattice vectors         :        3
  | Max. basis fn. angular momentum   :        2
  | Max. atomic/ionic basis occupied n:        2
  | Max. number of basis fn. types    :        2
  | Max. radial fns per species/type  :        3
  | Max. logarithmic grid size        :     1277
  | Max. radial integration grid size :       34
  | Max. angular integration grid size:      302
  | Max. angular grid division number :        8
  | Radial grid for Hartree potential :     1277
  | Number of spin channels           :        1

------------------------------------------------------------
          Reading file control.in.
------------------------------------------------------------
  XC: Using Perdew-Wang parametrisation of Ceperley-Alder LDA.
  Spin treatment: No spin polarisation.
  Non-relativistic treatment of kinetic energy.
  Charge =   0.000000E+00: Neutral system requested explicitly.
  Found k-point grid:         2         1         1
  DFPT calculation will begin after the DFT/HF calculation.
  Charge density mixing - mixing parameter:     0.7500
  Forces will not be computed.
 
  Reading configuration options for species H                   .
  | Found nuclear charge :   1.0000
  | Found atomic mass :    1.00794000000000      amu
  | Found l_max for Hartree potential  :   4
  | Found cutoff potl. onset [A], width [A], scale factor :    3.50000    1.50000    1.00000
  | Threshold for basis-dependent cutoff potential is   0.100000E-03
  | Found data for basic radial integration grid :    24 points, outermost radius =    5.000 A
  | Found multiplier for basic radial grid :   1
  | Found angular grid specification: user-specified.
  | Specified grid contains     5 separate shells.
  | Check grid settings after all constraints further below.
  | Found free-atom valence shell :  1 s   1.000
  | No ionic wave fns used. Skipping ion_occ.
  | Found hydrogenic basis function :  2 s   2.100
  | Found hydrogenic basis function :  2 p   3.500
  Species H                   : Missing cutoff potential type.
  Defaulting to exp(1/x)/(1-x)^2 type cutoff potential.
  Species H : No 'logarithmic' tag. Using default grid for free atom:
  | Default logarithmic grid data [bohr] : 0.1000E-03 0.1000E+03 0.1012E+01
  Species H : On-site basis accuracy parameter (for Gram-Schmidt orthonormalisation) not specified.
  Using default value basis_acc =  0.1000000E-03.
  Species H                   : Using default innermost maximum threshold i_radial=  2 for radial functions.
  Species H                   : Default cutoff onset for free atom density etc. : 0.35000000E+01 AA.
  Species H                   : Basic radial grid will be enhanced according to radial_multiplier =   1, to contain    24 grid points.
 
  Reading configuration options for species C                   .
  | Found nuclear charge :   6.0000
  | Found atomic mass :    12.0107000000000      amu
  | Found l_max for Hartree potential  :   4
  | Found cutoff potl. onset [A], width [A], scale factor :    3.50000    1.50000    1.00000
  | Threshold for basis-dependent cutoff potential is   0.100000E-03
  | Found data for basic radial integration grid :    34 points, outermost radius =    5.000 A
  | Found multiplier for basic radial grid :   1
  | Found angular grid specification: user-specified.
  | Specified grid contains     5 separate shells.
  | Check grid settings after all constraints further below.
  | Found free-atom valence shell :  2 s   2.000
  | Found free-atom valence shell :  2 p   2.000
  | No ionic wave fns used. Skipping ion_occ.
  | No ionic wave fns used. Skipping ion_occ.
  | Found hydrogenic basis function :  2 p   1.700
  | Found hydrogenic basis function :  3 d   6.000
  | Found hydrogenic basis function :  2 s   4.900
  Species C                   : Missing cutoff potential type.
  Defaulting to exp(1/x)/(1-x)^2 type cutoff potential.
  Species C : No 'logarithmic' tag. Using default grid for free atom:
  | Default logarithmic grid data [bohr] : 0.1000E-03 0.1000E+03 0.1012E+01
  Species C : On-site basis accuracy parameter (for Gram-Schmidt orthonormalisation) not specified.
  Using default value basis_acc =  0.1000000E-03.
  Species C                   : Using default innermost maximum threshold i_radial=  2 for radial functions.
  Species C                   : Default cutoff onset for free atom density etc. : 0.35000000E+01 AA.
  Species C                   : Basic radial grid will be enhanced according to radial_multiplier =   1, to contain    34 grid points.
 
  Finished reading input file 'control.in'.
 
------------------------------------------------------------


------------------------------------------------------------
          Reading geometry description geometry.in.
------------------------------------------------------------
  | The smallest distance between any two atoms is         1.06703795 AA.
  | The first atom of this pair is atom number                     17 .
  | The second atom of this pair is atom number                    33 .
  | Wigner-Seitz cell of the first atom image           0     0     0 .
  | (The Wigner-Seitz cell of the second atom is 0 0 0  by definition.)

  Symmetry information by spglib:
  | Precision set to  0.1E-04
  | Number of Operations  : 1
  | Space group           : 1
  | International         : P1
  | Schoenflies           : C1^1
  Input structure read successfully.
  The structure contains      144 atoms,  and a total of        544.000 electrons.

  Input geometry:
  | Unit cell:
  |        8.10200000        0.00000000        0.00000000
  |        0.00000000       11.88000000        0.00000000
  |       -9.78509185        0.00000000       14.25711196
  | Atomic structure:
  |       Atom                x [A]            y [A]            z [A]
  |    1: Species C            -0.76895300        0.11570900        2.42798000
  |    2: Species C             0.23089700        3.13367000        4.85809000
  |    3: Species C             4.24838000        5.69227000        4.84177000
  |    4: Species C             3.00432000        2.95392000        2.31858000
  |    5: Species C            -0.02465710        0.99342600        1.64806000
  |    6: Species C            -0.58258100        3.97594000        5.58407000
  |    7: Species C             3.47377000        4.83277000        5.60874000
  |    8: Species C             3.85354000        2.08793000        1.70117000
  |    9: Species C             0.33908700        0.69892200        0.30217100
  |   10: Species C            -0.97134900        3.60991000        6.92747000
  |   11: Species C             3.09424000        5.21838000        6.93070000
  |   12: Species C             4.32244000        2.36582000        0.39438400
  |   13: Species C            -3.78674000        1.53816000        6.70008000
  |   14: Species C             3.17715000        4.53542000        0.51348000
  |   15: Species C             7.24428000        4.52745000        0.44751900
  |   16: Species C             0.28951600        1.52399000        6.68346000
  |   17: Species C            -3.45920000        1.18636000        5.39344000
  |   18: Species C             2.69207000        4.19784000        1.74180000
  |   19: Species C             6.95613000        4.81768000        1.77927000
  |   20: Species C             0.64173100        1.88262000        5.40146000
  |   21: Species H            -0.98780600        0.42042400        3.46115000
  |   22: Species H             0.61274000        3.42557000        3.88239000
  |   23: Species H             4.63656000        5.34995000        3.84360000
  |   24: Species H             2.69211000        2.72700000        3.34627000
  |   25: Species H             0.24442000        1.96580000        2.07892000
  |   26: Species H            -0.94561000        4.94849000        5.20855000
  |   27: Species H             3.14833000        3.87043000        5.19667000
  |   28: Species H             4.19393000        1.20778000        2.21430000
  |   29: Species H            -3.41225000        2.47049000        7.14463000
  |   30: Species H             2.94868000        5.52259000        0.11005100
  |   31: Species H             6.97820000        3.53729000        0.02355960
  |   32: Species H             0.53996200        0.53776100        7.07621000
  |   33: Species H            -2.81219000        1.82098000        4.83023000
  |   34: Species H             2.06408000        4.92424000        2.27162000
  |   35: Species H             6.39914000        4.15643000        2.44485000
  |   36: Species H             1.29403000        1.20881000        4.80818000
  |   37: Species C            -5.65333000        0.12811600        9.58137000
  |   38: Species C            -4.61472000        2.97811000       12.08050000
  |   39: Species C            -0.51314700        5.83988000       11.83550000
  |   40: Species C            -1.69966000        2.84800000        9.56253000
  |   41: Species C            -4.93015000        1.02503000        8.79659000
  |   42: Species C            -5.38420000        3.87648000       12.74820000
  |   43: Species C            -1.32690000        5.02659000       12.61060000
  |   44: Species C            -0.87004400        2.02192000        8.79778000
  |   45: Species C            -4.60631000        0.67585300        7.46781000
  |   46: Species C            -5.82571000        3.61228000       14.03050000
  |   47: Species C            -1.74619000        5.40174000       13.92120000
  |   48: Species C            -0.56508200        2.33801000        7.46764000
  |   49: Species C            -8.72527000        1.60871000       13.73110000
  |   50: Species C            -1.77723000        4.46062000        7.75828000
  |   51: Species C             2.30821000        4.33960000        7.71710000
  |   52: Species C            -4.67471000        1.42766000       13.95890000
  |   53: Species C            -8.32661000        1.23295000       12.47160000
  |   54: Species C            -2.16155000        4.05360000        9.02968000
  |   55: Species C             1.94151000        4.73813000        8.97958000
  |   56: Species C            -4.18060000        1.74842000       12.68820000
  |   57: Species H            -5.94524000        0.41376700       10.60530000
  |   58: Species H            -4.31886000        3.17395000       11.05430000
  |   59: Species H            -0.13889300        5.55129000       10.84180000
  |   60: Species H            -1.91850000        2.54914000       10.61580000
  |   61: Species H            -4.74580000        2.05222000        9.15332000
  |   62: Species H            -5.74222000        4.77708000       12.26830000
  |   63: Species H            -1.70514000        4.08057000       12.22810000
  |   64: Species H            -0.48795300        1.06782000        9.21668000
  |   65: Species H            -8.40957000        2.57855000       14.10390000
  |   66: Species H            -2.14198000        5.44364000        7.38102000
  |   67: Species H             1.97966000        3.37986000        7.32862000
  |   68: Species H            -4.39011000        0.48474300       14.42500000
  |   69: Species H            -7.62117000        1.85756000       11.89400000
  |   70: Species H            -2.76968000        4.69464000        9.68568000
  |   71: Species H             1.28030000        4.09278000        9.54262000
  |   72: Species H            -3.52583000        1.06643000       12.14480000
  |   73: Species C            -0.72566800        6.08548000        2.27658000
  |   74: Species C             0.08506970        8.91234000        4.77441000
  |   75: Species C             4.19519000       11.82170000        4.83764000
  |   76: Species C             3.18191000        8.82140000        2.49851000
  |   77: Species C             0.00446078        6.97978000        1.52603000
  |   78: Species C            -0.72410000        9.74894000        5.47910000
  |   79: Species C             3.43364000       10.97550000        5.60799000
  |   80: Species C             3.96049000        7.90636000        1.78208000
  |   81: Species C             0.38031900        6.66325000        0.19069500
  |   82: Species C            -1.01121000        9.50898000        6.85358000
  |   83: Species C             3.06112000       11.29680000        6.94365000
  |   84: Species C             4.35201000        8.24662000        0.45687800
  |   85: Species C            -3.88976000        7.40229000        6.54939000
  |   86: Species C             3.14828000       10.42210000        0.65454500
  |   87: Species C             7.31450000       10.36600000        0.62232800
  |   88: Species C             0.19121600        7.38916000        6.67032000
  |   89: Species C            -3.54323000        6.98460000        5.30503000
  |   90: Species C             2.78435000       10.06930000        1.94635000
  |   91: Species C             6.96048000       10.74940000        1.89776000
  |   92: Species C             0.55968000        7.71308000        5.38189000
  |   93: Species H            -0.99019100        6.39181000        3.28266000
  |   94: Species H             0.32487800        9.10029000        3.72628000
  |   95: Species H             4.56833000       11.51470000        3.85554000
  |   96: Species H             2.90450000        8.57086000        3.55448000
  |   97: Species H             0.24801000        7.95786000        1.92799000
  |   98: Species H            -1.09935000       10.64500000        4.95659000
  |   99: Species H             3.08600000        9.99111000        5.24119000
  |  100: Species H             4.27101000        6.95282000        2.16030000
  |  101: Species H            -3.65601000        8.38738000        6.91375000
  |  102: Species H             2.89850000       11.41660000        0.24402900
  |  103: Species H             7.04305000        9.38110000        0.18881500
  |  104: Species H             0.53265200        6.42091000        7.05867000
  |  105: Species H            -2.97748000        7.65816000        4.65590000
  |  106: Species H             2.21899000       10.75160000        2.55533000
  |  107: Species H             6.35627000       10.07190000        2.48849000
  |  108: Species H             1.24458000        7.00383000        4.84159000
  |  109: Species C            -5.76327000        5.97415000        9.47765000
  |  110: Species C            -4.83255000        8.89892000       12.03250000
  |  111: Species C            -0.57607300       11.85410000       11.94190000
  |  112: Species C            -1.72168000        8.85815000        9.55229000
  |  113: Species C            -5.02265000        6.88431000        8.72159000
  |  114: Species C            -5.55229000        9.81834000       12.81540000
  |  115: Species C            -1.30263000       10.94170000       12.71030000
  |  116: Species C            -1.00379000        7.95490000        8.79729000
  |  117: Species C            -4.65404000        6.52546000        7.40401000
  |  118: Species C            -5.87784000        9.50086000       14.12110000
  |  119: Species C            -1.71301000       11.27370000       14.02690000
  |  120: Species C            -0.63637900        8.24793000        7.43639000
  |  121: Species C            -8.55429000        7.49248000       13.65390000
  |  122: Species C            -1.75421000       10.41540000        7.65128000
  |  123: Species C             2.36207000       10.38420000        7.75855000
  |  124: Species C            -4.71227000        7.34087000       13.89710000
  |  125: Species C            -8.12566000        7.07289000       12.40860000
  |  126: Species C            -2.10606000       10.09520000        8.95353000
  |  127: Species C             2.00254000       10.73800000        9.05710000
  |  128: Species C            -4.38032000        7.67864000       12.58870000
  |  129: Species H            -6.02995000        6.24946000       10.51330000
  |  130: Species H            -4.62403000        9.17951000       10.99560000
  |  131: Species H            -0.24682900       11.57620000       10.95170000
  |  132: Species H            -2.07590000        8.69642000       10.55390000
  |  133: Species H            -4.71652000        7.86789000        9.13770000
  |  134: Species H            -5.91831000       10.78870000       12.38490000
  |  135: Species H            -1.50035000        9.94434000       12.23250000
  |  136: Species H            -0.69831100        7.02072000        9.25036000
  |  137: Species H            -8.15348000        8.38613000       14.08850000
  |  138: Species H            -2.05199000       11.38550000        7.22133000
  |  139: Species H             2.06808000        9.38907000        7.42357000
  |  140: Species H            -4.39059000        6.38365000       14.30930000
  |  141: Species H            -7.34170000        7.60914000       11.84410000
  |  142: Species H            -2.67940000       10.84190000        9.53514000
  |  143: Species H             1.43194000       10.08170000        9.72006000
  |  144: Species H            -3.82078000        6.97572000       11.97420000

  Lattice parameters for 3D lattice (in Angstroms) :     8.102000   11.880000   17.292000
  Angle(s) between unit vectors (in degrees)       :    90.000000  124.463000   90.000000


  Quantities derived from the lattice vectors (in Angstrom^-1):
  | Reciprocal lattice vector 1:  0.775510  0.000000  0.532257
  | Reciprocal lattice vector 2:  0.000000  0.528888  0.000000
  | Reciprocal lattice vector 3: -0.000000  0.000000  0.440705
  | Unit cell volume                               :   0.137227E+04  Angstrom^3

  Fractional coordinates:
                         L1                L2                L3
       atom_frac         0.11076819        0.00973981        0.17029957  C
       atom_frac         0.44003366        0.26377694        0.34074853  C
       atom_frac         0.93451429        0.47914731        0.33960384  C
       atom_frac         0.56722196        0.24864646        0.16262620  C
       atom_frac         0.13656589        0.08362172        0.11559564  C
       atom_frac         0.40112774        0.33467508        0.39166909  C
       atom_frac         0.90387802        0.40679882        0.39339945  C
       atom_frac         0.61973648        0.17575168        0.11932080  C
       atom_frac         0.06744954        0.05883182        0.02119440  C
       atom_frac         0.46694464        0.30386448        0.48589574  C
       atom_frac         0.96901892        0.43925758        0.48612230  C
       atom_frac         0.56691160        0.19914310        0.02766226  C
       atom_frac         0.10018881        0.12947475        0.46994651  C
       atom_frac         0.43564145        0.38176936        0.03601571  C
       atom_frac         0.93204468        0.38109848        0.03138918  C
       atom_frac         0.60189817        0.12828199        0.46878078  C
       atom_frac         0.02992876        0.09986195        0.37829821  C
       atom_frac         0.47982234        0.35335354        0.12217061  C
       atom_frac         1.00929368        0.40552862        0.12479877  C
       atom_frac         0.53677094        0.15846970        0.37886074  C
       atom_frac         0.17127710        0.03538923        0.24276656  H
       atom_frac         0.40451036        0.28834764        0.27231251  H
       atom_frac         0.89786969        0.45033249        0.26959177  H
       atom_frac         0.61574394        0.22954545        0.23470883  H
       atom_frac         0.20627578        0.16547138        0.14581635  H
       atom_frac         0.32450964        0.41653956        0.36532995  H
       atom_frac         0.82880320        0.32579377        0.36449668  H
       atom_frac         0.70521745        0.10166498        0.15531196  H
       atom_frac         0.18406912        0.20795370        0.50112744  H
       atom_frac         0.37326726        0.46486448        0.00771902  H
       atom_frac         0.86328927        0.29775168        0.00165248  H
       atom_frac         0.66608014        0.04526608        0.49632843  H
       atom_frac         0.06207659        0.15328114        0.33879442  H
       atom_frac         0.44719356        0.41449832        0.15933241  H
       atom_frac         0.99692857        0.34986785        0.17148284  H
       atom_frac         0.56702431        0.10175168        0.33724782  H
       atom_frac         0.11388018        0.01078418        0.67204144  C
       atom_frac         0.45377641        0.25068266        0.84733150  C
       atom_frac         0.93926420        0.49157239        0.83014709  C
       atom_frac         0.60027113        0.23973064        0.67071999  C
       atom_frac         0.13665992        0.08628199        0.61699663  C
       atom_frac         0.41536404        0.32630303        0.89416426  C
       atom_frac         0.90448536        0.42311364        0.88451294  C
       atom_frac         0.63788465        0.17019529        0.61708009  C
       atom_frac         0.06406768        0.05688998        0.52379542  C
       atom_frac         0.46949533        0.30406397        0.98410534  C
       atom_frac         0.96375650        0.45469192        0.97643899  C
       atom_frac         0.56284716        0.19680219        0.52378350  C
       atom_frac         0.08625077        0.13541330        0.96310529  C
       atom_frac         0.43785667        0.37547306        0.54416912  C
       atom_frac         0.93861907        0.36528620        0.54128073  C
       atom_frac         0.60549369        0.12017340        0.97908328  C
       atom_frac         0.02876208        0.10378367        0.87476342  C
       atom_frac         0.49812336        0.34121212        0.63334566  C
       atom_frac         1.00030490        0.39883249        0.62983163  C
       atom_frac         0.55883727        0.14717340        0.88995584  C
       atom_frac         0.16458919        0.03482887        0.74386033  H
       atom_frac         0.40336264        0.26716751        0.77535338  H
       atom_frac         0.90127942        0.46728030        0.76044854  H
       atom_frac         0.66248434        0.21457407        0.74459680  H
       atom_frac         0.18963261        0.17274579        0.64201782  H
       atom_frac         0.33052202        0.40211111        0.86050387  H
       atom_frac         0.82539853        0.34348232        0.85768422  H
       atom_frac         0.72053027        0.08988384        0.64646192  H
       atom_frac         0.15679681        0.21704966        0.98925365  H
       atom_frac         0.36087876        0.45821886        0.51770794  H
       atom_frac         0.86515872        0.28450000        0.51403258  H
       atom_frac         0.68010473        0.04080328        1.01177574  H
       atom_frac         0.06690272        0.15636027        0.83425030  H
       atom_frac         0.47863470        0.39517172        0.67935778  H
       atom_frac         0.96639001        0.34451010        0.66932349  H
       atom_frac         0.59362103        0.08976684        0.85184153  H
       atom_frac         0.10328542        0.51224579        0.15968031  C
       atom_frac         0.41494609        0.75019697        0.33487918  C
       atom_frac         0.92759939        0.99509259        0.33931416  C
       atom_frac         0.60438334        0.74254209        0.17524657  C
       atom_frac         0.12982249        0.58752357        0.10703640  C
       atom_frac         0.37476843        0.82061785        0.38430644  C
       atom_frac         0.89886139        0.92386364        0.39334684  C
       atom_frac         0.63979091        0.66551852        0.12499586  C
       atom_frac         0.06309538        0.56087963        0.01337543  C
       atom_frac         0.45576543        0.80041919        0.48071307  C
       atom_frac         0.96602805        0.95090909        0.48703061  C
       atom_frac         0.57585526        0.69415993        0.03204562  C
       atom_frac         0.07470829        0.62308838        0.45937705  C
       atom_frac         0.44402792        0.87728114        0.04591007  C
       atom_frac         0.95551996        0.87255892        0.04365036  C
       atom_frac         0.58865225        0.62198316        0.46785913  C
       atom_frac         0.01206792        0.58792929        0.37209710  C
       atom_frac         0.50853981        0.84758418        0.13651783  C
       atom_frac         1.01986802        0.90483165        0.13310971  C
       atom_frac         0.52498589        0.64924916        0.37748809  C
       atom_frac         0.15586262        0.53803114        0.23024719  H
       atom_frac         0.35575634        0.76601768        0.26136289  H
       atom_frac         0.89045976        0.96925084        0.27042924  H
       atom_frac         0.65959619        0.72145286        0.24931276  H
       atom_frac         0.19393341        0.66985354        0.13523005  H
       atom_frac         0.28419023        0.89604377        0.34765737  H
       atom_frac         0.82488138        0.84100253        0.36761933  H
       atom_frac         0.71015674        0.58525421        0.15152438  H
       atom_frac         0.13442459        0.70600842        0.48493342  H
       atom_frac         0.37842317        0.96099327        0.01711630  H
       atom_frac         0.88529246        0.78965488        0.01324357  H
       atom_frac         0.66369206        0.54048064        0.49509817  H
       atom_frac         0.02690774        0.64462626        0.32656684  H
       atom_frac         0.49034696        0.90501684        0.17923195  H
       atom_frac         0.99533409        0.84780303        0.17454377  H
       atom_frac         0.56375108        0.58954798        0.33959122  H
       atom_frac         0.09152444        0.50287458        0.66476647  C
       atom_frac         0.42282432        0.74906734        0.84396475  C
       atom_frac         0.94051075        0.99781987        0.83761003  C
       atom_frac         0.59668584        0.74563552        0.67000175  C
       atom_frac         0.11888964        0.57948737        0.61173610  C
       atom_frac         0.40030990        0.82645960        0.89887770  C
       atom_frac         0.91592662        0.92101852        0.89150594  C
       atom_frac         0.62133536        0.66960438        0.61704573  C
       atom_frac         0.05277196        0.54928114        0.51932046  C
       atom_frac         0.47073595        0.79973569        0.99046006  C
       atom_frac         0.97680577        0.94896465        0.98385283  C
       atom_frac         0.55140000        0.69427020        0.52159161  C
       atom_frac         0.10081449        0.63068013        0.95769045  C
       atom_frac         0.43163384        0.87671717        0.53666409  C
       atom_frac         0.94877809        0.87409091        0.54418805  C
       atom_frac         0.59562264        0.61791835        0.97474861  C
       atom_frac         0.04822779        0.59536111        0.87034457  C
       atom_frac         0.49852152        0.84976431        0.62800447  C
       atom_frac         1.01440442        0.90387205        0.63526891  C
       atom_frac         0.52575780        0.64635017        0.88297686  C
       atom_frac         0.14634032        0.52604882        0.73740741  H
       atom_frac         0.36072408        0.77268603        0.77123614  H
       atom_frac         0.89726704        0.97442761        0.76815698  H
       atom_frac         0.63781341        0.73202189        0.74025511  H
       atom_frac         0.19192334        0.66228030        0.64092223  H
       atom_frac         0.31866521        0.90813973        0.86868224  H
       atom_frac         0.85104774        0.83706566        0.85799284  H
       atom_frac         0.69741964        0.59096970        0.64882425  H
       atom_frac         0.18710051        0.70590320        0.98817348  H
       atom_frac         0.35845835        0.95837542        0.50650721  H
       atom_frac         0.88411541        0.79032576        0.52069241  H
       atom_frac         0.67024440        0.53734428        1.00366049  H
       atom_frac         0.09716958        0.64050000        0.83075030  H
       atom_frac         0.47702519        0.91261785        0.66879884  H
       atom_frac         1.00013754        0.84862795        0.68176921  H
       atom_frac         0.54276470        0.58718182        0.83987557  H

 
  Finished reading input file 'geometry.in'.
 

 
  Consistency checks for stacksize environment parameter are next.
 
  | Maximum stacksize for task 0: unlimited
  | Maximum stacksize for task 1: unlimited
  | Maximum stacksize for task 2: unlimited
  | Maximum stacksize for task 3: unlimited
  | Maximum stacksize for task 4: unlimited
  | Maximum stacksize for task 5: unlimited
  | Maximum stacksize for task 6: unlimited
  | Maximum stacksize for task 7: unlimited
  | Maximum stacksize for task 8: unlimited
  | Maximum stacksize for task 9: unlimited
  | Maximum stacksize for task 10: unlimited
  | Maximum stacksize for task 11: unlimited
  | Maximum stacksize for task 12: unlimited
  | Maximum stacksize for task 13: unlimited
  | Maximum stacksize for task 14: unlimited
  | Maximum stacksize for task 15: unlimited
  | Maximum stacksize for task 16: unlimited
  | Maximum stacksize for task 17: unlimited
  | Current stacksize for task 0: unlimited
  | Current stacksize for task 1: unlimited
  | Current stacksize for task 2: unlimited
  | Current stacksize for task 3: unlimited
  | Current stacksize for task 4: unlimited
  | Current stacksize for task 5: unlimited
  | Current stacksize for task 6: unlimited
  | Current stacksize for task 7: unlimited
  | Current stacksize for task 8: unlimited
  | Current stacksize for task 9: unlimited
  | Current stacksize for task 10: unlimited
  | Current stacksize for task 11: unlimited
  | Current stacksize for task 12: unlimited
  | Current stacksize for task 13: unlimited
  | Current stacksize for task 14: unlimited
  | Current stacksize for task 15: unlimited
  | Current stacksize for task 16: unlimited
  | Current stacksize for task 17: unlimited
 
  Consistency checks for the contents of control.in are next.
 
  MPI_IN_PLACE appears to work with this MPI implementation.
  | Keeping use_mpi_in_place .true. (see manual).
  Explicit treatment of the Coulomb operator is needed, but the RI method is not specified.
  Coulomb operator: Defaulting to 'LVL fast' resolution of identity - RI_type = LVL_fast
  Species H: Using default value for prodbas_acc =   1.000000E-06.
  Species H: Using default value max_l_prodbas =     6.
  Species C: Using default value for prodbas_acc =   1.000000E-06.
  Species C: Using default value max_l_prodbas =     6.
  Target number of points in a grid batch is not set.  Since GPU acceleration is enabled, defaulting to  200
  Method for grid partitioning is not set. Defaulting to parallel hash+maxmin partitioning.
  Batch size limit is not set. Defaulting to    200
  By default, will store active basis functions for each batch.
  If in need of memory, prune_basis_once .false. can be used to disable this option.
  communication_type for Hartree potential was not specified.
  Defaulting to calc_hartree .
  Defaulting to Pulay charge density mixer.
  Pulay mixer: Number of relevant iterations not set.
  Defaulting to    8 iterations.
  Pulay mixer: Number of initial linear mixing iterations not set.
  Defaulting to    0 iterations.
  Work space size for distributed Hartree potential not set.
  Defaulting to   0.200000E+03 MB.
  Algorithm-dependent basis array size parameters:
  | n_max_pulay                         :        8
  Maximum number of self-consistency iterations not provided.
  Presetting  1000 iterations.
  Presetting      1001 iterations before the initial mixing cycle
  is restarted anyway using the sc_init_iter criterion / keyword.
  Presetting a factor      1.000 between actual scf density residual
  and density convergence criterion sc_accuracy_rho below which sc_init_iter
  takes no effect.
 * No s.c.f. convergence criteria (sc_accuracy_*) were provided in control.in.
 * The run will proceed with a reasonable default guess, but please check whether.
 * the s.c.f. cycles seem to take too much or too little time.
  Geometry relaxation not requested: no relaxation will be performed.
 * Notice: The s.c.f. convergence criterion sc_accuracy_rho was not provided.
 * We used to stop in this case, and ask the user to provide reasonable
 * scf convergence criteria. However, this led some users to employ criteria
 * that led to extremely long run times, e.g., for simple relaxation.
 * We now preset a default value for sc_accuracy_rho if it is not set.
 * You may still wish to check if this setting is too tight or too loose for your needs.
 * Based on n_atoms and forces and force-correction status, FHI-aims chose sc_accuracy_rho =  0.391918E-04 .
  No accuracy limit for integral partition fn. given. Defaulting to  0.1000E-14.
  No threshold value for u(r) in integrations given. Defaulting to  0.1000E-05.
  No occupation type (smearing scheme) given. Defaulting to Gaussian broadening, width =  0.1000E-01 eV.
  The width will be adjusted in iteration number     2 of the first full s.c.f. cycle only.
  S.C.F. convergence parameters will be adjusted in iteration number     2 of the first full s.c.f. cycle only.
  No accuracy for occupation numbers given. Defaulting to  0.1000E-12.
  No threshold value for occupation numbers given. Defaulting to  0.0000E+00.
  No accuracy for fermi level given. Defaulting to  0.1000E-19.
  Maximum # of iterations to find E_F not set. Defaulting to  200.
  Preferred method for the eigenvalue solver ('KS_method') not specified in 'control.in'.
  Calling BLACS routine to test compilation state
  Since ScaLAPACK support is enabled, defaulting to ELPA (via ELSI).
  Will not use alltoall communication since running on < 1024 CPUs.
  Threshold for basis singularities not set.
  Default threshold for basis singularities:  0.1000E-04
  partition_type (choice of integration weights) for integrals was not specified.
  | Using a version of the partition function of Stratmann and coworkers ('stratmann_sparse').
  | At each grid point, the set of atoms used to build the partition table is smoothly restricted to
  | only those atoms whose free-atom density would be non-zero at that grid point.
  Partitioning for Hartree potential was not defined. Using partition_type for integrals.
  | Adjusted default value of keyword multip_moments_threshold to:       0.10000000E-11
  | This value may affect high angular momentum components of the Hartree potential in periodic systems.
  Angular momentum expansion for Kerker preconditioner not set explicitly.
  | Using default value of   0
  No explicit requirement for turning off preconditioner.
  | By default, it will be turned off when the charge convergence reaches
  | sc_accuracy_rho  =   0.391918E-04
  No special mixing parameter while Kerker preconditioner is on.
  Using default: charge_mix_param =     0.7500.
  Threshold for auxiliary basis singularities not set.
  Default threshold for auxiliary basis singularities:  0.1000E-04
  No q(lm)/r^(l+1) cutoff set for long-range Hartree potential.
  | Using default value of  0.100000E-09 .
  | Verify using the multipole_threshold keyword.
  Defaulting to new monopole extrapolation.
  Density update method: automatic selection selected.
  Using density matrix based charge density update.
  Using density matrix based charge density update.
  Using packed matrix style: index .
  Defaulting to use time-reversal symmetry for k-point grid.
  Charge integration errors on the 3D integration grid will be compensated
  by explicit normalization and distribution of residual charges.
  Use the "compensate_multipole_errors" flag to change this behaviour.
  Default to 1D ("use_logsbt") integrations for auxiliary 2-center integrals.
  Default onset of logarithmic r-grid for SBT is -38.000000000000
  Default onset of logarithmic k-grid for SBT is -25.000000000000
  Default range of logarithmic r- and k-grid for SBT is  45.000000000000
  Default number of logarithmic r- and k-grid for SBT is   4096
  Default of use_2d_corr is to use the efficient 2D distribution where possible
 
  Consistency checks for the contents of geometry.in are next.
 

  Range separation radius for Ewald summation (hartree_convergence_parameter):      2.91768261 bohr.
  Number of empty states per atom not set in control.in .
  | Since you are using a method that relies on the unoccupied spectrum
  | (MP2,GW,RPA et al.), will use the full Hamiltonian size (see below)
  | as the max. possible number of states (occupied plus empty).

  Structure-dependent array size parameters: 
  | Maximum number of distinct radial functions  :        9
  | Maximum number of basis functions            :     1440
  | Number of Kohn-Sham states (occupied + empty):     1440
------------------------------------------------------------

  Performing system and environment tests:
  | Environment variable OMP_NUM_THREADS correctly set to 1.
  | Checking for ScaLAPACK...
  | Testing pdtran()...
  | All pdtran() tests passed.
CUDA runtime version: 11060
CUDA driver version: 11060
  Initializing GPUs...

  Number of GPUs available to MPI task         0 :   1
  Number of GPUs available to MPI task         1 :   1
  Number of GPUs available to MPI task         2 :   1
  Number of GPUs available to MPI task         3 :   1
  Number of GPUs available to MPI task         4 :   1
  Number of GPUs available to MPI task         5 :   1
  Number of GPUs available to MPI task         6 :   1
  Number of GPUs available to MPI task         7 :   1
  Number of GPUs available to MPI task         8 :   1
  Number of GPUs available to MPI task         9 :   1
  Number of GPUs available to MPI task        10 :   1
  Number of GPUs available to MPI task        11 :   1
  Number of GPUs available to MPI task        12 :   1
  Number of GPUs available to MPI task        13 :   1
  Number of GPUs available to MPI task        14 :   1
  Number of GPUs available to MPI task        15 :   1
  Number of GPUs available to MPI task        16 :   1
  Number of GPUs available to MPI task        17 :   1

  | MPI task         0, GPU activated = T, Device Name = NVIDIA A100-SXM4-80GB
  | MPI task         1, GPU activated = T, Device Name = NVIDIA A100-SXM4-80GB
  | MPI task         2, GPU activated = T, Device Name = NVIDIA A100-SXM4-80GB
  | MPI task         3, GPU activated = T, Device Name = NVIDIA A100-SXM4-80GB
  | MPI task         4, GPU activated = T, Device Name = NVIDIA A100-SXM4-80GB
  | MPI task         5, GPU activated = T, Device Name = NVIDIA A100-SXM4-80GB
  | MPI task         6, GPU activated = T, Device Name = NVIDIA A100-SXM4-80GB
  | MPI task         7, GPU activated = T, Device Name = NVIDIA A100-SXM4-80GB
  | MPI task         8, GPU activated = T, Device Name = NVIDIA A100-SXM4-80GB
  | MPI task         9, GPU activated = T, Device Name = NVIDIA A100-SXM4-80GB
  | MPI task        10, GPU activated = T, Device Name = NVIDIA A100-SXM4-80GB
  | MPI task        11, GPU activated = T, Device Name = NVIDIA A100-SXM4-80GB
  | MPI task        12, GPU activated = T, Device Name = NVIDIA A100-SXM4-80GB
  | MPI task        13, GPU activated = T, Device Name = NVIDIA A100-SXM4-80GB
  | MPI task        14, GPU activated = T, Device Name = NVIDIA A100-SXM4-80GB
  | MPI task        15, GPU activated = T, Device Name = NVIDIA A100-SXM4-80GB
  | MPI task        16, GPU activated = T, Device Name = NVIDIA A100-SXM4-80GB
  | MPI task        17, GPU activated = T, Device Name = NVIDIA A100-SXM4-80GB

------------------------------------------------------------
          Preparing all fixed parts of the calculation.
------------------------------------------------------------
  Determining machine precision:
    2.225073858507201E-308
  Setting up grids for atomic and cluster calculations.

  Creating wave function, potential, and density for free atoms.
  Runtime choices for atomic solver:
  | atomic solver xc        : PW-LDA
  | compute density gradient: 0
  | compute kinetic density : F

  Species: H

  List of occupied orbitals and eigenvalues:
    n    l              occ      energy [Ha]    energy [eV]
    1    0           1.0000        -0.232375        -6.3233


  Species: C

  List of occupied orbitals and eigenvalues:
    n    l              occ      energy [Ha]    energy [eV]
    1    0           2.0000        -9.944615      -270.6068
    2    0           2.0000        -0.498807       -13.5732
    2    1           2.0000        -0.196968        -5.3598


  Adding cutoff potential to free-atom effective potential.
  Creating fixed part of basis set: Ionic, confined, hydrogenic.
 
  H                    hydrogenic:
 
  List of hydrogenic basis orbitals: 
    n    l      effective z      eigenvalue [eV]  inner max. [A]     outer max. [A]     outer radius [A]   
    2    0         2.100000       -14.9728           0.193243           1.317208           4.583499
    2    1         3.500000       -41.6669           0.602369           0.602369           3.723403
 
 
  C                    hydrogenic:
 
  List of hydrogenic basis orbitals: 
    n    l      effective z      eigenvalue [eV]  inner max. [A]     outer max. [A]     outer radius [A]   
    2    1         1.700000        -9.7616           1.230570           1.230570           4.607917
    3    2         6.000000       -54.4224           0.792453           0.792453           3.883070
    2    0         4.900000       -81.6679           0.082559           0.562749           3.078220
 
  Creating atomic-like basis functions for current effective potential.

  Species H                   :

  List of atomic basis orbitals and eigenvalues:
    n    l      energy [Ha]    energy [eV]    outer radius [A]
    1    0        -0.232375        -6.3233       4.527807


  Species C                   :

  List of atomic basis orbitals and eigenvalues:
    n    l      energy [Ha]    energy [eV]    outer radius [A]
    1    0        -9.944615      -270.6068       1.934409
    2    0        -0.498807       -13.5732       4.496620
    2    1        -0.196968        -5.3598       4.551928

  Assembling full basis from fixed parts.
  | Species H :   atomic orbital   1 s accepted.
  | Species H :    hydro orbital   2 s accepted.
  | Species H :    hydro orbital   2 p accepted.
  | Species C :   atomic orbital   1 s accepted.
  | Species C :    hydro orbital   2 s accepted.
  | Species C :   atomic orbital   2 s accepted.
  | Species C :   atomic orbital   2 p accepted.
  | Species C :    hydro orbital   2 p accepted.
  | Species C :    hydro orbital   3 d accepted.
 
  Basis size parameters after reduction:
  | Total number of radial functions:        9
  | Total number of basis functions :     1440
 
  Per-task memory consumption for arrays in subroutine allocate_ext:
  |           2.242384MB.
  Testing on-site integration grid accuracy.
  |  Species  Function  <phi|h_atom|phi> (log., in eV)  <phi|h_atom|phi> (rad., in eV)
           1        1                 -6.3245358373                 -6.3232436907
           1        2                 14.1326137532                 14.1384481100
           1        3                 25.3627025200                 25.3628451197
           2        4               -270.6067544938               -270.6067222788
           2        5                -10.5634280949                -10.5635685736
           2        6                 16.2089822398                 16.2052121796
           2        7                 -5.3613872565                 -5.3627872378
           2        8                  8.5292058327                  8.5051734780
           2        9                 27.4884461005                 27.4884542459

  Preparing densities etc. for the partition functions (integrals / Hartree potential).

  Preparations completed.
  max(cpu_time)          :      0.073 s.
  Wall clock time (cpu1) :      0.067 s.
------------------------------------------------------------

  Initializing index lists of integration centers etc. from given atomic structure:
  Mapping all atomic coordinates to central unit cell.

  Initializing the k-points
  Using symmetry for reducing the k-points
  | k-points reduced from:        2 to        2
  | Number of k-points                             :         2
  | Consuming          0 KiB for k_phase_exx.
  The eigenvectors in the calculations are REAL.
  | Number of basis functions in the Hamiltonian integrals :      8067
  | Number of basis functions in a single unit cell        :      1440
  | Number of centers in hartree potential         :      3317
  | Number of centers in hartree multipole         :      2542
  | Number of centers in electron density summation:      1978
  | Number of centers in basis integrals           :      2117
  | Number of centers in integrals                 :       971
  | Number of centers in hamiltonian               :      1984
  | Consuming          1 KiB for k_phase.
  | Number of super-cells (origin) [n_cells]                     :         175
  | Number of super-cells (after PM_index) [n_cells]             :          36
  | Number of super-cells in hamiltonian [n_cells_in_hamiltonian]:          36
  | Size of matrix packed + index [n_hamiltonian_matrix_size] :     1932364
  | Size of matrix packed + index (no_symmetry):     3861911

------------------------------------------------------------
          Begin self-consistency loop: Initialization.

          Date     :  20230125, Time     :  182916.518
------------------------------------------------------------
  | Estimated reciprocal-space cutoff momentum G_max:         3.24344278 bohr^-1 .
  | Reciprocal lattice points for long-range Hartree potential:    5310
  Using simple linear distribution as default method for k-point parallelism.
  * Using 18 tasks for Scalapack Eigenvalue solver.
  Detailed listing of tasks and assigned k-points:
   Task     0 k-point     1 on adag028
   Task     1 k-point     1 on adag028
   Task     2 k-point     1 on adag028
   Task     3 k-point     1 on adag028
   Task     4 k-point     1 on adag028
   Task     5 k-point     1 on adag028
   Task     6 k-point     1 on adag028
   Task     7 k-point     1 on adag028
   Task     8 k-point     1 on adag028
   Task     9 k-point     2 on adag028
   Task    10 k-point     2 on adag028
   Task    11 k-point     2 on adag028
   Task    12 k-point     2 on adag028
   Task    13 k-point     2 on adag028
   Task    14 k-point     2 on adag028
   Task    15 k-point     2 on adag028
   Task    16 k-point     2 on adag028
   Task    17 k-point     2 on adag028
  K-point:     1 Tasks:     9 split into      3 X      3 BLACS grid
  Calculating block size based on n_basis =         1440  max_nprow =            3  max_npcol =            3
  ScaLAPACK block size set to:           16
  Allocating        1.758 MB for ovlp
  Allocating        1.758 MB for ham
  Allocating        1.758 MB for eigenvec
  Required Scalapack workspace - INTEGER:            1  REAL:             1
  Partitioning the integration grid into batches with parallel hashing+maxmin method.
  | Number of batches:     5456
  | Maximal batch size:     200
  | Minimal batch size:      99
  | Average batch size:     140.000
  | Standard deviation of batch sizes:      32.543

  Integration load balanced across    18 MPI tasks.
  Work distribution over tasks is as follows:
  Task     0 has      42425 integration points.
  Task     1 has      42460 integration points.
  Task     2 has      42454 integration points.
  Task     3 has      42432 integration points.
  Task     4 has      42435 integration points.
  Task     5 has      42451 integration points.
  Task     6 has      42457 integration points.
  Task     7 has      42442 integration points.
  Task     8 has      42421 integration points.
  Task     9 has      42404 integration points.
  Task    10 has      42429 integration points.
  Task    11 has      42485 integration points.
  Task    12 has      42438 integration points.
  Task    13 has      42387 integration points.
  Task    14 has      42403 integration points.
  Task    15 has      42447 integration points.
  Task    16 has      42429 integration points.
  Task    17 has      42441 integration points.
  Initializing partition tables, free-atom densities, potentials, etc. across the integration grid (initialize_grid_storage).
  | initialize_grid_storage: Actual outermost partition radius vs. multipole_radius_free
  | (-- VB: in principle, multipole_radius_free should be larger, hence this output)
  | Species        1: Confinement radius =              4.999999999999999 AA, multipole_radius_free =              5.054417573612229 AA.
  | Species        1: outer_partition_radius set to              5.054417573612229 AA .
  | Species        2: Confinement radius =              4.999999999999999 AA, multipole_radius_free =              5.019602836301480 AA.
  | Species        2: outer_partition_radius set to              5.019602836301480 AA .
  | The sparse table of interatomic distances needs       7610.47 kbyte instead of     35853.51 kbyte of memory.
  | Net number of integration points:   763840
  | of which are non-zero points    :   605445
  | Numerical average free-atom electrostatic potential    :     -8.61469418 eV
  Renormalizing the initial density to the exact electron count on the 3D integration grid.
  | Initial density: Formal number of electrons (from input files) :     544.0000000000
  | Integrated number of electrons on 3D grid     :     543.9977636179
  | Charge integration error                      :      -0.0022363821
  | Normalization factor for density and gradient :       1.0000041110
  Renormalizing the free-atom superposition density to the exact electron count on the 3D integration grid.
  | Formal number of electrons (from input files) :     544.0000000000
  | Integrated number of electrons on 3D grid     :     543.9977636179
  | Charge integration error                      :      -0.0022363821
  | Normalization factor for density and gradient :       1.0000041110
  Obtaining max. number of non-zero basis functions in each batch (get_n_compute_maxes).
  | Maximal number of non-zero basis functions:      538 in task     0
  | Maximal number of non-zero basis functions:      548 in task     1
  | Maximal number of non-zero basis functions:      546 in task     2
  | Maximal number of non-zero basis functions:      545 in task     3
  | Maximal number of non-zero basis functions:      558 in task     4
  | Maximal number of non-zero basis functions:      544 in task     5
  | Maximal number of non-zero basis functions:      527 in task     6
  | Maximal number of non-zero basis functions:      555 in task     7
  | Maximal number of non-zero basis functions:      549 in task     8
  | Maximal number of non-zero basis functions:      544 in task     9
  | Maximal number of non-zero basis functions:      541 in task    10
  | Maximal number of non-zero basis functions:      533 in task    11
  | Maximal number of non-zero basis functions:      552 in task    12
  | Maximal number of non-zero basis functions:      550 in task    13
  | Maximal number of non-zero basis functions:      543 in task    14
  | Maximal number of non-zero basis functions:      531 in task    15
  | Maximal number of non-zero basis functions:      552 in task    16
  | Maximal number of non-zero basis functions:      548 in task    17
  Integrating Hamiltonian matrix: batch-based integration.
  GPU acceleration will be used when integrating the Hamiltonian matrix.
  Reporting GPU memory usage by myid 0.  Note that it is likely not the only MPI task binding to its GPU!
  Allocating        2.316 MB on GPU for hamiltonian_shell
  Allocating        0.861 MB on GPU for wave
  Allocating        0.002 MB on GPU for partition
  Allocating        0.861 MB on GPU for h_times_psi
  Time summed over all CPUs for integration: real work       18.646 s, elapsed       18.959 s
  Deallocating memory used on GPU for Hamiltonian integration.
  Integrating overlap matrix.
  Time summed over all CPUs for integration: real work       16.538 s, elapsed       16.736 s
  Deallocating overlap matrix.

  Updating Kohn-Sham eigenvalues and eigenvectors using ELSI and the ELPA eigensolver.
  Singularity check in k-point 1 (analysis for other k-points may follow below):
  Overlap matrix is not singular
  | Lowest and highest eigenvalues :  0.7940E-03,  0.8242E+01
  Finished singularity check of overlap matrix
  | Time :     0.090 s
  Starting ELPA eigensolver
  Finished Cholesky decomposition
  | Time :     0.015 s
  Finished transformation to standard eigenproblem
  | Time :     0.019 s
  Finished solving standard eigenproblem
  | Time :     0.184 s
  Finished back-transformation of eigenvectors
  | Time :     0.013 s

  Obtaining occupation numbers and electronic chemical potential using ELSI.
  | Note that, for insulating systems, the printed 'chemical potential' value is not uniquely defined.
  | It can be anywhere in the energy gap, as long as it correctly separates occupied and unoccupied states.
  | In systems with a gap, the physically relevant chemical potential is the VBM or HOMO.

  | Chemical potential (Fermi level):    -7.95319187 eV
  Writing Kohn-Sham eigenvalues.
  K-point:       1 at    0.000000    0.000000    0.000000 (in units of recip. lattice)

  State    Occupation    Eigenvalue [Ha]    Eigenvalue [eV]
      1       2.00000         -10.074559         -274.14271
      2       2.00000         -10.070602         -274.03501
      3       2.00000         -10.070135         -274.02233
      4       2.00000         -10.069186         -273.99649
      5       2.00000         -10.068493         -273.97765
      6       2.00000         -10.068100         -273.96693
      7       2.00000         -10.067251         -273.94384
      8       2.00000         -10.067184         -273.94201
      9       2.00000         -10.066559         -273.92501
     10       2.00000         -10.066312         -273.91829
     11       2.00000         -10.066098         -273.91245
     12       2.00000         -10.065934         -273.90800
     13       2.00000         -10.065168         -273.88717
     14       2.00000         -10.064973         -273.88186
     15       2.00000         -10.064937         -273.88086
     16       2.00000         -10.064904         -273.87997
     17       2.00000         -10.064764         -273.87616
     18       2.00000         -10.064749         -273.87576
     19       2.00000         -10.064471         -273.86819
     20       2.00000         -10.064471         -273.86818
     21       2.00000         -10.064435         -273.86721
     22       2.00000         -10.064396         -273.86614
     23       2.00000         -10.064150         -273.85946
     24       2.00000         -10.064119         -273.85861
     25       2.00000         -10.063895         -273.85252
     26       2.00000         -10.063498         -273.84172
     27       2.00000         -10.063341         -273.83744
     28       2.00000         -10.063333         -273.83721
     29       2.00000         -10.063255         -273.83511
     30       2.00000         -10.063017         -273.82863
     31       2.00000         -10.062811         -273.82301
     32       2.00000         -10.062771         -273.82192
     33       2.00000         -10.062589         -273.81699
     34       2.00000         -10.062441         -273.81294
     35       2.00000         -10.062430         -273.81266
     36       2.00000         -10.062264         -273.80814
     37       2.00000         -10.062058         -273.80253
     38       2.00000         -10.061916         -273.79866
     39       2.00000         -10.061591         -273.78983
     40       2.00000         -10.061588         -273.78973
     41       2.00000         -10.061487         -273.78699
     42       2.00000         -10.061467         -273.78644
     43       2.00000         -10.061386         -273.78426
     44       2.00000         -10.061191         -273.77893
     45       2.00000         -10.061038         -273.77478
     46       2.00000         -10.060897         -273.77093
     47       2.00000         -10.060726         -273.76627
     48       2.00000         -10.060677         -273.76494
     49       2.00000         -10.060122         -273.74985
     50       2.00000         -10.060061         -273.74818
     51       2.00000         -10.059973         -273.74578
     52       2.00000         -10.059696         -273.73824
     53       2.00000         -10.059479         -273.73236
     54       2.00000         -10.059420         -273.73074
     55       2.00000         -10.059383         -273.72974
     56       2.00000         -10.059325         -273.72817
     57       2.00000         -10.059306         -273.72763
     58       2.00000         -10.059092         -273.72181
     59       2.00000         -10.058825         -273.71455
     60       2.00000         -10.058485         -273.70530
     61       2.00000         -10.058469         -273.70487
     62       2.00000         -10.058295         -273.70012
     63       2.00000         -10.058290         -273.69998
     64       2.00000         -10.058202         -273.69759
     65       2.00000         -10.057981         -273.69160
     66       2.00000         -10.057137         -273.66861
     67       2.00000         -10.057109         -273.66786
     68       2.00000         -10.057036         -273.66587
     69       2.00000         -10.056887         -273.66182
     70       2.00000         -10.056742         -273.65788
     71       2.00000         -10.056417         -273.64904
[...]
  | charge radius: extent of product basis function
  | field radius: extent of its Coulomb potential
  | Species   l  charge radius    field radius  multipol momen
  |    H      1     3.910002 A      3.910002 A       -2.487223E-16 a.u.
  |    H      1     3.958095 A      3.958095 A       -2.441841E-16 a.u.
  |    H      0     4.527807 A      4.527807 A        1.268855E-16 a.u.
  |    H      0     4.527807 A      4.583499 A       -4.900954E-17 a.u.
  |    H      0     4.527807 A      4.583499 A        4.713786E-16 a.u.
  |    H      2     3.678162 A  1.011968E+04 A            0.556529 a.u.
  |    H      1     3.958095 A  1.721251E+06 A            0.841931 a.u.
  |    H      0     4.527807 A  3.866455E+12 A            0.581436 a.u.
  |    C      0     2.562483 A      2.562483 A        6.563029E-17 a.u.
  |    C      0     2.967371 A      2.967371 A        1.352164E-16 a.u.
  |    C      0     3.003870 A      3.003870 A        2.312640E-17 a.u.
  |    C      1     3.272245 A      3.272245 A       -3.835259E-17 a.u.
  |    C      0     3.312494 A      3.312494 A       -2.710381E-16 a.u.
  |    C      3     4.077671 A      4.077671 A       -1.683752E-15 a.u.
  |    C      3     4.077671 A      4.077671 A        1.412852E-15 a.u.
  |    C      1     4.496620 A      4.496620 A       -3.011059E-16 a.u.
  |    C      0     4.496620 A      4.551928 A        2.873903E-17 a.u.
  |    C      2     4.551928 A      4.551928 A       -4.610785E-16 a.u.
  |    C      2     4.551928 A      4.551928 A        7.440584E-16 a.u.
  |    C      2     4.551928 A      4.551928 A       -7.110458E-16 a.u.
  |    C      2     4.551928 A      4.551928 A       -1.935424E-16 a.u.
  |    C      0     4.551928 A      4.607917 A        2.067142E-16 a.u.
  |    C      0     4.551928 A      4.607917 A       -1.109786E-16 a.u.
  |    C      1     4.551928 A      4.607917 A       -9.951742E-17 a.u.
  |    C      1     4.551928 A      4.607917 A        1.937809E-16 a.u.
  |    C      1     4.607917 A      4.607917 A       -2.813308E-16 a.u.
  |    C      1     4.607917 A      4.607917 A       -7.330363E-17 a.u.
  |    C      2     4.607917 A      4.607917 A        1.318462E-15 a.u.
  |    C      2     4.607917 A      4.607917 A       -1.318397E-15 a.u.
  |    C      0     4.607917 A      4.664595 A        3.157826E-16 a.u.
  |    C      1     4.607917 A      4.664595 A        7.356967E-16 a.u.
  |    C      4     3.835889 A  2.962973E+02 A            4.379483 a.u.
  |    C      3     4.127827 A  1.725964E+03 A            9.005588 a.u.
  |    C      2     4.607917 A  2.608475E+04 A            9.531178 a.u.
  |    C      1     4.607917 A  2.736013E+06 A            2.127278 a.u.
  |    C      0     4.607917 A  4.399765E+12 A            0.661635 a.u.

  | Shrink_full_auxil_basis : there are       36  radial auxiliary wave functions
                            accepted and       7 rejected.
  | Shrink_full_auxil_basis : there are totally                8992 partial auxiliary wave functions.
 
  | Maximal number of product basis functions per thread :   512   512
 
  | Minimal total memory requirement for three-center overlap :      72.476 Gbs
  | Number of local auxiliary basis functions on task:      0   512
  | Number of local auxiliary basis functions on task:      1   512
  | Number of local auxiliary basis functions on task:      2   512
  | Number of local auxiliary basis functions on task:      3   512
  | Number of local auxiliary basis functions on task:      4   496
  | Number of local auxiliary basis functions on task:      5   496
  | Number of local auxiliary basis functions on task:      6   496
  | Number of local auxiliary basis functions on task:      7   496
  | Number of local auxiliary basis functions on task:      8   496
  | Number of local auxiliary basis functions on task:      9   496
  | Number of local auxiliary basis functions on task:     10   496
  | Number of local auxiliary basis functions on task:     11   496
  | Number of local auxiliary basis functions on task:     12   496
  | Number of local auxiliary basis functions on task:     13   496
  | Number of local auxiliary basis functions on task:     14   496
  | Number of local auxiliary basis functions on task:     15   496
  | Number of local auxiliary basis functions on task:     16   496
  | Number of local auxiliary basis functions on task:     17   496
  | 2D aux task distribution:      3 X      6
  | 2D block size (nb_aux_2d):     64
 
  Basis pair condensation :   1037520  -->     539736
 
 --------------------------------------------
  Constructing auxiliary basis (full product) ...
 
  Product basis:
  | charge radius: extent of product basis function
  | field radius: extent of its Coulomb potential
  | Species   l  charge radius    field radius  multipol momen
  |    H      1     3.910002 A      3.910002 A       -2.487223E-16 a.u.
  |    H      1     3.958095 A      3.958095 A       -2.441841E-16 a.u.
  |    H      0     4.527807 A      4.527807 A        1.268855E-16 a.u.
  |    H      0     4.527807 A      4.583499 A       -4.900954E-17 a.u.
  |    H      0     4.527807 A      4.583499 A        4.713786E-16 a.u.
  |    H      2     3.678162 A  1.011968E+04 A            0.556529 a.u.
  |    H      1     3.958095 A  1.721251E+06 A            0.841931 a.u.
  |    H      0     4.527807 A  3.866455E+12 A            0.581436 a.u.
  |    C      0     2.562483 A      2.562483 A        6.563029E-17 a.u.
  |    C      0     2.967371 A      2.967371 A        1.352164E-16 a.u.
  |    C      0     3.003870 A      3.003870 A        2.312640E-17 a.u.
  |    C      1     3.272245 A      3.272245 A       -3.835259E-17 a.u.
  |    C      0     3.312494 A      3.312494 A       -2.710381E-16 a.u.
  |    C      3     4.077671 A      4.077671 A       -1.683752E-15 a.u.
  |    C      3     4.077671 A      4.077671 A        1.412852E-15 a.u.
  |    C      1     4.496620 A      4.496620 A       -3.011059E-16 a.u.
  |    C      0     4.496620 A      4.551928 A        2.873903E-17 a.u.
  |    C      2     4.551928 A      4.551928 A       -4.610785E-16 a.u.
  |    C      2     4.551928 A      4.551928 A        7.440584E-16 a.u.
  |    C      2     4.551928 A      4.551928 A       -7.110458E-16 a.u.
  |    C      2     4.551928 A      4.551928 A       -1.935424E-16 a.u.
  |    C      0     4.551928 A      4.607917 A        2.067142E-16 a.u.
  |    C      0     4.551928 A      4.607917 A       -1.109786E-16 a.u.
  |    C      1     4.551928 A      4.607917 A       -9.951742E-17 a.u.
  |    C      1     4.551928 A      4.607917 A        1.937809E-16 a.u.
  |    C      1     4.607917 A      4.607917 A       -2.813308E-16 a.u.
  |    C      1     4.607917 A      4.607917 A       -7.330363E-17 a.u.
  |    C      2     4.607917 A      4.607917 A        1.318462E-15 a.u.
  |    C      2     4.607917 A      4.607917 A       -1.318397E-15 a.u.
  |    C      0     4.607917 A      4.664595 A        3.157826E-16 a.u.
  |    C      1     4.607917 A      4.664595 A        7.356967E-16 a.u.
  |    C      4     3.835889 A  2.962973E+02 A            4.379483 a.u.
  |    C      3     4.127827 A  1.725964E+03 A            9.005588 a.u.
  |    C      2     4.607917 A  2.608475E+04 A            9.531178 a.u.
  |    C      1     4.607917 A  2.736013E+06 A            2.127278 a.u.
  |    C      0     4.607917 A  4.399765E+12 A            0.661635 a.u.

  | Shrink_full_auxil_basis : there are       36  radial auxiliary wave functions
                            accepted and       7 rejected.
  | Shrink_full_auxil_basis : there are totally                8992 partial auxiliary wave functions.
 
  | Maximal number of product basis functions per thread :   512   512
 
  | Minimal total memory requirement for three-center overlap :      72.476 Gbs
  | Number of local auxiliary basis functions on task:      0   512
  | Number of local auxiliary basis functions on task:      1   512
  | Number of local auxiliary basis functions on task:      2   512
  | Number of local auxiliary basis functions on task:      3   512
  | Number of local auxiliary basis functions on task:      4   496
  | Number of local auxiliary basis functions on task:      5   496
  | Number of local auxiliary basis functions on task:      6   496
  | Number of local auxiliary basis functions on task:      7   496
  | Number of local auxiliary basis functions on task:      8   496
  | Number of local auxiliary basis functions on task:      9   496
  | Number of local auxiliary basis functions on task:     10   496
  | Number of local auxiliary basis functions on task:     11   496
  | Number of local auxiliary basis functions on task:     12   496
  | Number of local auxiliary basis functions on task:     13   496
  | Number of local auxiliary basis functions on task:     14   496
  | Number of local auxiliary basis functions on task:     15   496
  | Number of local auxiliary basis functions on task:     16   496
  | Number of local auxiliary basis functions on task:     17   496
  | 2D aux task distribution:      3 X      6
  | 2D block size (nb_aux_2d):     64
 
  Basis pair condensation :   1037520  -->     539736
dP_dE (Bohr^3) at every cycle:--->
 (1007.41208678615,0.000000000000000E+000) (-14.2785136797262,0.000000000000000E+000) (-460.829198868938,0.000000000000000E+000)
 (-14.2985434775534,0.000000000000000E+000) (1379.48565918397,0.000000000000000E+000) (-1.72753507943976,0.000000000000000E+000)
 (-461.035248049285,0.000000000000000E+000) (-1.73383722354424,0.000000000000000E+000) (1687.26606657472,0.000000000000000E+000)
DFPT polarizability (Bohr^3)        xx        yy        zz        xy        xz        yz
  | Polarizability:--->                      1007.412086786                 1379.485659184                 1687.266066575                  -14.278513680                 -460.829198869                   -1.727535079

DFPT for dielectric_constant:--->  # PARSE DFPT_dielectric_tensor
               2.367036713232176            -0.019375638496500            -0.625335393178517
              -0.019402818504908             2.871932614485385            -0.002344228253727
              -0.625614997521129            -0.002352780128850             3.289584062225085

                                               :  max(cpu_time)    wall_clock(cpu1)
  | Time for  dielectric calculation            :        0.000 s           0.000 s
===========================================================================

------------------------------------------------------------------------------
  Final output of selected total energy values:

  The following output summarizes some interesting total energy values
  at the end of a run (AFTER all relaxation, molecular dynamics, etc.).

  | Total energy of the DFT / Hartree-Fock s.c.f. calculation      :         -83267.488746441 eV
  | Final zero-broadening corrected energy (caution - metals only) :         -83267.488746441 eV
  | For reference only, the value of 1 Hartree used in FHI-aims is :             27.211384500 eV
  | For reference only, the overall average (free atom contribution
  | + realspace contribution) of the electrostatic potential after
  | s.c.f. convergence is                                          :             -7.707122466 eV

  Before relying on these values, please be sure to understand exactly which
  total energy value is referred to by a given number. Different objects may
  all carry the same name 'total energy'. Definitions:

  Total energy of the DFT / Hartree-Fock s.c.f. calculation:
  | Note that this energy does not include ANY quantities calculated after the
  | s.c.f. cycle, in particular not ANY RPA, MP2, etc. many-body perturbation terms.

  Final zero-broadening corrected energy:
  | For metallic systems only, a broadening of the occupation numbers at the Fermi
  | level can be extrapolated back to zero broadening by an electron-gas inspired
  | formula. For all systems that are not real metals, this value can be
  | meaningless and should be avoided.

------------------------------------------------------------------------------
  Methods described in the following list of references were used in this FHI-aims run.
  If you publish the results, please make sure to cite these reference if they apply.
  FHI-aims is an academic code, and for our developers (often, Ph.D. students
  and postdocs), scientific credit in the community is essential.
  Thank you for helping us!

  For any use of FHI-aims, please cite:

    Volker Blum, Ralf Gehrke, Felix Hanke, Paula Havu, Ville Havu,
    Xinguo Ren, Karsten Reuter, and Matthias Scheffler
    'Ab initio molecular simulations with numeric atom-centered orbitals'
    Computer Physics Communications 180, 2175-2196 (2009)
    http://doi.org/10.1016/j.cpc.2009.06.022


  For Hartree-Fock, hybrid functionals, or many-body perturbation theory used in your run, please cite:

    Xinguo Ren, Patrick Rinke, Volker Blum, Juergen Wieferink, Alex Tkatchenko,
    Andrea Sanfilippo, Karsten Reuter, and Matthias Scheffler,
    'Resolution-of-identity approach to Hartree-Fock, hybrid density functionals,
    RPA, MP2, and GW with numeric atom-centered orbital basis functions'
    New Journal of Physics 14, 053020 (2012).
    http://doi.org/10.1088/1367-2630/14/5/053020


  The provided symmetry information was generated with SPGlib:

    Atsushi Togo, Yusuke Seto, Dimitar Pashov
    SPGlib 1.7.3 obtained from http://spglib.sourceforge.net
    Copyright (C) 2008 Atsushi Togo


  The DFPT (perturbation by an electric field) part of the code was used.
  Here is the corresponding reference:

    Honghui Shang, Nathaniel Raimbault, Mariana Rossi,
    Christian Carbogno, Patrick Rinke and Matthias Scheffler,
    'All-Electron, Real-Space Perturbation Theory for Homogeneous
    Electric Fields: Theory, Implementation, and Application within dft'
    New Journal of Physics, 20(7):073040, 2018


  The ELSI infrastructure was used in your run to solve the Kohn-Sham electronic structure.
  Please check out http://elsi-interchange.org to learn more.
  If scalability is important for your project, please acknowledge ELSI by citing:

    V. W-z. Yu, F. Corsetti, A. Garcia, W. P. Huhn, M. Jacquelin, W. Jia,
    B. Lange, L. Lin, J. Lu, W. Mi, A. Seifitokaldani, A. Vazquez-Mayagoitia,
    C. Yang, H. Yang, and V. Blum
    'ELSI: A unified software interface for Kohn-Sham electronic structure solvers'
    Computer Physics Communications 222, 267-285 (2018).
    http://doi.org/10.1016/j.cpc.2017.09.007


  For the real-space grid partitioning and parallelization used in this calculation, please cite:

    Ville Havu, Volker Blum, Paula Havu, and Matthias Scheffler,
    'Efficient O(N) integration for all-electron electronic structure calculation'
    'using numerically tabulated basis functions'
    Journal of Computational Physics 228, 8367-8379 (2009).
    http://doi.org/10.1016/j.jcp.2009.08.008


  The high-level electronic structure method used in your calculation
  employed our efficient localized resolution of identity for the Coulomb operator.
  Some calculations, especially large-scale hybrid density functional theory,
  are only possible thanks to this development. For this feature, please cite:

    Arvid Ihrig, Juergen Wieferink, Igor Ying Zhang, Matti Ropo, Xinguo Ren,
    Patrick Rinke, Matthias Scheffler, and Volker Blum,
    'Accurate localized resolution of identity approach for linear-scaling
    hybrid density functionals and for many-body perturbation theory'
    New Journal of Physics 117, 093020 (2015).
    http://doi.org/10.1088/1367-2630/17/9/093020

  Of course, there are many other important community references, e.g., those cited in the
  above references. Our list is limited to references that describe implementations in the
  FHI-aims code. The reason is purely practical (length of this list) - please credit others as well.

------------------------------------------------------------
          Leaving FHI-aims.
          Date     :  20230125, Time     :  185428.959

          Computational steps:
          | Number of self-consistency cycles          :           47
          | Number of SCF (re)initializations          :            1
          | Number of coupled perturbed self-consistency cycles          :            0
          | Number of CPSCF (re)initializations          :            0

          Detailed time accounting                     :  max(cpu_time)    wall_clock(cpu1)
          | Total time                                  :     1517.376 s        1528.809 s
          | GPU initialization                          :        1.775 s          10.670 s
          | Preparation time                            :        0.073 s           0.067 s
          | Boundary condition initalization            :        5.580 s           5.581 s
          | Grid partitioning                           :        1.181 s           1.181 s
          | Preloading free-atom quantities on grid     :        3.277 s           3.278 s
          | Free-atom superposition energy              :        0.446 s           0.446 s
          | Total time for integrations                 :       18.546 s          19.210 s
          | Product basis setup: Total time             :        0.000 s           0.000 s
          | Product basis: | 2-center integrations     :(       0.000 s)  (       0.000 s)
          | Product basis: | LVL 3-center & coefficient:(       0.000 s)  (       0.000 s)
          | Total time for solution of K.-S. equations  :        3.502 s           3.503 s
          | Total time for density update               :       12.765 s          14.110 s
          | Total time for mixing & preconditioning     :       10.449 s          10.450 s
          | Total time for Hartree multipole update     :        0.086 s           0.087 s
          | Total time for Hartree multipole sum        :       41.485 s          41.496 s
          | Total time for total energy evaluation      :        0.007 s           0.003 s
          | Total time for DFPT                         :     1416.639 s        1417.061 s
          | Total time first_order_DM                   :        1.924 s           1.923 s
          | Total time first_order_density              :      299.314 s         299.335 s
          | Total time first_order_potential            :      118.216 s         118.249 s
          | Total time first_order_H                    :      632.589 s         632.739 s
          | Total time solving of Sternheimer equations :        1.907 s           1.911 s
          | Total time for dielectric constant          :        0.000 s           0.000 s
          | Total time momentum matrix                  :        0.000 s           0.000 s

          GPU acceleration has been used for charge density update.
          GPU acceleration has been used for real-space Hamiltonian integration.
          Due to GPU usage, wall_clock(cpu1) will give a more reliable estimate for timings.

          Partial memory accounting:
          | Residual value for overall tracked memory usage across tasks:     0.000000 MB (should be 0.000000 MB)
          | Peak values for overall tracked memory usage:
          |   Minimum:      292.760 MB (on task  0 after allocating DFPT_pulay_mixing::pulay_mix::alphas)
          |   Maximum:      292.760 MB (on task  0 after allocating DFPT_pulay_mixing::pulay_mix::alphas)
          |   Average:      292.760 MB
          | Largest tracked array allocation:
          |   Minimum:      103.199 MB (DFPT_pulay_mixing::initialize_pulay_mixing::X_in_diffs on task  0)
          |   Maximum:      103.199 MB (DFPT_pulay_mixing::initialize_pulay_mixing::X_in_diffs on task  0)
          |   Average:      103.199 MB
          Note:  These values currently only include a subset of arrays which are explicitly tracked.
          The "true" memory usage will be greater.

          Have a nice day.
------------------------------------------------------------
