------------------------------------------------------------
          Invoking FHI-aims ...

          When using FHI-aims, please cite the following reference:

            Volker Blum, Ralf Gehrke, Felix Hanke, Paula Havu,
            Ville Havu, Xinguo Ren, Karsten Reuter, and Matthias Scheffler,
            'Ab Initio Molecular Simulations with Numeric Atom-Centered Orbitals',
            Computer Physics Communications 180, 2175-2196 (2009)

          In addition, many other developments in FHI-aims are likely important for
          your particular application. A partial list of references is given at the end of
          this file. Thank you for giving credit to the authors of these developments.

          For any questions about FHI-aims, please visit our slack channel at

            https://fhi-aims.slack.com

          and our main development and support site at

            https://aims-git.rz-berlin.mpg.de .

          The latter site, in particular, has a wiki to collect information, as well
          as an issue tracker to log discussions, suggest improvements, and report issues
          or bugs. https://aims-git.rz-berlin.mpg.de is also the main development site
          of the project and all new and updated code versions can be obtained there.
          Please send an email to aims-coordinators@fhi-berlin.mpg.de and we will add
          you to these sites. They are for you and everyone is welcome there.

------------------------------------------------------------



  Date     :  20230125, Time     :  123040.148
  Time zero on CPU 1             :   0.401894000000000E+00  s.
  Internal wall clock time zero  :           443881840.148  s.

  FHI-aims created a unique identifier for this run for later identification
  aims_uuid : 034EB0E5-D1D1-4FF5-A111-3BB19460872E

  Build configuration of the current instance of FHI-aims
  -------------------------------------------------------
  FHI-aims version      : 221103
  Commit number         : 42523251a
  CMake host system     : Linux-5.3.18-150300.59.68-default
  CMake version         : 3.17.0
  Fortran compiler      : /mpcdf/soft/SLE_15/packages/x86_64/intel_oneapi/2021.3/mpi/2021.3.0/bin/mpiifort (Intel) version 20.2.3.20210609
  Fortran compiler flags: -O3 -ip -fp-model precise
  C compiler            : /mpcdf/soft/SLE_15/packages/x86_64/intel/2021.3.0/bin/icc (Intel) version 20.2.3.20210609
  C compiler flags      : -O3 -ip -fp-model precise -std=gnu99
  CUDA compiler         : /mpcdf/soft/SLE_15/packages/x86_64/cuda/11.6.2/bin/nvcc
  CUDA compiler flags   : -O3 -DAdd_ -lcublas
  HIP compiler          :
  HIP compiler flags    :
  HIP GPU arch          :
  ELPA2 kernel          : AVX512
  Using MPI
  Using ScaLAPACK
  Using LibXC
  Using CUDA
  Using i-PI
  Using RLSY
  Linking against: /mpcdf/soft/SLE_15/packages/x86_64/cuda/11.6.2/lib64/libcublas.so
                   /mpcdf/soft/SLE_15/packages/x86_64/cuda/11.6.2/lib64/libcudart.so
                   /mpcdf/soft/SLE_15/packages/x86_64/intel_oneapi/2021.3/mkl/latest/lib/intel64/libmkl_intel_lp64.so
                   /mpcdf/soft/SLE_15/packages/x86_64/intel_oneapi/2021.3/mkl/latest/lib/intel64/libmkl_sequential.so
                   /mpcdf/soft/SLE_15/packages/x86_64/intel_oneapi/2021.3/mkl/latest/lib/intel64/libmkl_core.so
                   /mpcdf/soft/SLE_15/packages/x86_64/intel_oneapi/2021.3/mkl/latest/lib/intel64/libmkl_blacs_intelmpi_lp64.so
                   /mpcdf/soft/SLE_15/packages/x86_64/intel_oneapi/2021.3/mkl/latest/lib/intel64/libmkl_scalapack_lp64.so

  Using       18 parallel tasks.
  Task        0 on host adag035 reporting.
  Task        1 on host adag035 reporting.
  Task        2 on host adag035 reporting.
  Task        3 on host adag035 reporting.
  Task        4 on host adag035 reporting.
  Task        5 on host adag035 reporting.
  Task        6 on host adag035 reporting.
  Task        7 on host adag035 reporting.
  Task        8 on host adag035 reporting.
  Task        9 on host adag035 reporting.
  Task       10 on host adag035 reporting.
  Task       11 on host adag035 reporting.
  Task       12 on host adag035 reporting.
  Task       13 on host adag035 reporting.
  Task       14 on host adag035 reporting.
  Task       15 on host adag035 reporting.
  Task       16 on host adag035 reporting.
  Task       17 on host adag035 reporting.

  Obtaining array dimensions for all initial allocations:
  
  -----------------------------------------------------------------------
  Parsing control.in (first pass over file, find array dimensions only).
  The contents of control.in will be repeated verbatim below
  unless switched off by setting 'verbatim_writeout .false.' .
  in the first line of control.in .
  -----------------------------------------------------------------------
  
  #
  # Input for polarizability replays on generic oligoacene molecular crystals (light settings,  LDA+MBD).
  #
  #########################################################################################
  #
  #  Physical model
  #
    xc                 pw-lda
    spin               none
    relativistic       none
    charge             0.0
    k_grid 	     2 1 1
    DFPT dielectric
  #
  #  GPU acceleration
  #
  # Turns on GPU acceleration everywhere
    use_gpu
  
  # Turns OFF GPU acceleration of ELPA - may be necessary if GPU ELPA is slow
    elsi_elpa_gpu 0
  #
  #  Relaxation
  #
  #  relax_geometry trm 1E-3
  #  relax_unit_cell fixed_angles
  #
  #  SCF convergence        #
    charge_mix_param   0.75
    #sc_accuracy_rho 1E-4
  #
  # i-PI communication
  #
  compute_forces .false.
  # use_pimd_wrapper 130.183.223.27 26118
  #communicate_pimd_wrapper polarizability
  #output_level MD_light
  #
  # Output SALTED info
    ri_density_restart write
    ri_rho1 write
    ri_full_output .true.
  #  sc_accuracy_rho    1d-6
    default_prodbas_acc 1e-6
    default_max_l_prodbas 6
  #
  #
  ################################################################################
  #
  #  FHI-aims code project
  #  VB, Fritz-Haber Institut, 2009
  #
  #  Suggested "light" defaults for H atom (to be pasted into control.in file)
  #  Be sure to double-check any results obtained with these settings for post-processing,
  #  e.g., with the "tight" defaults and larger basis sets.
  #
  ################################################################################
    species        H
  #     global species definitions
      nucleus             1
      mass                1.00794
  #
      l_hartree           4
  #
      cut_pot             3.5  1.5  1.0
      basis_dep_cutoff    1e-4
  #
      radial_base         24 5.0
      radial_multiplier   1
      angular_grids       specified
        division   0.2421   50
        division   0.3822  110
        division   0.4799  194
        division   0.5341  302
  #      division   0.5626  434
  #      division   0.5922  590
  #      division   0.6542  770
  #      division   0.6868 1202
  #      outer_grid  770
        outer_grid  302
  ################################################################################
  #
  #  Definition of "minimal" basis
  #
  ################################################################################
  #     valence basis states
      valence      1  s   1.
  #     ion occupancy
      ion_occ      1  s   0.5
  ################################################################################
  #
  #  Suggested additional basis functions. For production calculations,
  #  uncomment them one after another (the most important basis functions are
  #  listed first).
  #
  #  Basis constructed for dimers: 0.5 A, 0.7 A, 1.0 A, 1.5 A, 2.5 A
  #
  ################################################################################
  #  "First tier" - improvements: -1014.90 meV to -62.69 meV
       hydro 2 s 2.1
       hydro 2 p 3.5
  #  "Second tier" - improvements: -12.89 meV to -1.83 meV
  #     hydro 1 s 0.85
  #     hydro 2 p 3.7
  #     hydro 2 s 1.2
  #     hydro 3 d 7
  #  "Third tier" - improvements: -0.25 meV to -0.12 meV
  #     hydro 4 f 11.2
  #     hydro 3 p 4.8
  #     hydro 4 d 9
  #     hydro 3 s 3.2
  ################################################################################
  ################################################################################
  #
  #  FHI-aims code project
  #  VB, Fritz-Haber Institut, 2009
  #
  #  Suggested "light" defaults for C atom (to be pasted into control.in file)
  #  Be sure to double-check any results obtained with these settings for post-processing,
  #  e.g., with the "tight" defaults and larger basis sets.
  #
  ################################################################################
    species        C
  #     global species definitions
      nucleus             6
      mass                12.0107
  #
      l_hartree           4
  #
      cut_pot             3.5  1.5  1.0
      basis_dep_cutoff    1e-4
  #
      radial_base         34 5.0
      radial_multiplier   1
      angular_grids specified
        division   0.3326   50
        division   0.5710  110
        division   0.7727  194
        division   0.8772  302
  #      division   0.9334  434
  #      division   0.9625  590
  #      division   0.9924  770
  #      division   1.0230  974
  #      division   1.4589 1202
  #     outer_grid  974
       outer_grid 302
  ################################################################################
  #
  #  Definition of "minimal" basis
  #
  ################################################################################
  #     valence basis states
      valence      2  s   2.
      valence      2  p   2.
  #     ion occupancy
      ion_occ      2  s   1.
      ion_occ      2  p   1.
  ################################################################################
  #
  #  Suggested additional basis functions. For production calculations,
  #  uncomment them one after another (the most important basis functions are
  #  listed first).
  #
  #  Constructed for dimers: 1.0 A, 1.25 A, 1.5 A, 2.0 A, 3.0 A
  #
  ################################################################################
  #  "First tier" - improvements: -1214.57 meV to -155.61 meV
       hydro 2 p 1.7
       hydro 3 d 6
       hydro 2 s 4.9
  #  "Second tier" - improvements: -67.75 meV to -5.23 meV
  #     hydro 4 f 9.8
  #     hydro 3 p 5.2
  #     hydro 3 s 4.3
  #     hydro 5 g 14.4
  #     hydro 3 d 6.2
  #  "Third tier" - improvements: -2.43 meV to -0.60 meV
  #     hydro 2 p 5.6
  #     hydro 2 s 1.4
  #     hydro 3 d 4.9
  #     hydro 4 f 11.2
  #  "Fourth tier" - improvements: -0.39 meV to -0.18 meV
  #     hydro 2 p 2.1
  #     hydro 5 g 16.4
  #     hydro 4 d 13.2
  #     hydro 3 s 13.6
  #     hydro 4 f 17.6
  #  Further basis functions - improvements: -0.08 meV and below
  #     hydro 3 s 2
  #     hydro 3 p 6
  #     hydro 4 d 20
  
  -----------------------------------------------------------------------
  Completed first pass over input file control.in .
  -----------------------------------------------------------------------
  
  
  -----------------------------------------------------------------------
  Parsing geometry.in (first pass over file, find array dimensions only).
  The contents of geometry.in will be repeated verbatim below
  unless switched off by setting 'verbatim_writeout .false.' .
  in the first line of geometry.in .
  -----------------------------------------------------------------------
  
  #=======================================================
  # FHI-aims file: /ada/ptmp/mpsd/alewis/naphthalene/qmdata/data/geoms/452.in
  # Created using the Atomic Simulation Environment (ASE)
  # Thu Jan 19 15:19:17 2023
  #=======================================================
  lattice_vector 8.1020000000000003 0.0000000000000000 0.0000000000000000
  lattice_vector 0.0000000000000000 11.8800000000000008 0.0000000000000000
  lattice_vector -9.7850918486534706 0.0000000000000000 14.2571119625755713
  atom -0.7530960000000000 0.0318037000000000 2.5227800000000000 C
  atom 0.1061700000000000 3.2757399999999999 4.6792699999999998 C
  atom 4.2093299999999996 5.8651200000000001 4.9432799999999997 C
  atom 3.2366799999999998 2.8078200000000000 2.3974700000000002 C
  atom 0.0165788000000000 0.9241750000000000 1.7864800000000001 C
  atom -0.6418570000000000 4.1143500000000000 5.4885999999999999 C
  atom 3.3580399999999999 5.0404700000000000 5.6330499999999999 C
  atom 3.9527800000000002 1.9439900000000001 1.5985000000000000 C
  atom 0.3436260000000000 0.6235000000000001 0.4355270000000000 C
  atom -1.0722700000000001 3.6725099999999999 6.7574800000000002 C
  atom 3.0369700000000002 5.2988200000000001 6.9684299999999997 C
  atom 4.3548900000000001 2.3260200000000002 0.3183330000000000 C
  atom -3.8669199999999999 1.4885699999999999 6.6715600000000004 C
  atom 3.1882400000000000 4.4638099999999996 0.6433390000000000 C
  atom 7.1552800000000003 4.5374600000000003 0.6349140000000000 C
  atom 0.1325760000000000 1.5666500000000001 6.3633800000000003 C
  atom -3.5037099999999999 1.0664000000000000 5.3884200000000000 C
  atom 2.8548600000000000 4.0847800000000003 1.9479400000000000 C
  atom 6.7719600000000000 4.9955600000000002 1.8697200000000000 C
  atom 0.4776750000000000 1.9904999999999999 5.1175199999999998 C
  atom -1.1029800000000001 0.2810120000000000 3.5353900000000000 H
  atom 0.4400220000000000 3.6486900000000002 3.7260800000000001 H
  atom 4.4589999999999996 5.6006400000000003 3.9364100000000000 H
  atom 2.9914600000000000 2.5294400000000001 3.4159500000000000 H
  atom 0.3330440000000000 1.9080200000000000 2.1203400000000001 H
  atom -1.0004800000000000 5.0593899999999996 5.0710899999999999 H
  atom 2.9035600000000001 4.1355700000000004 5.1867599999999996 H
  atom 4.1915300000000002 0.9402770000000000 1.9356700000000000 H
  atom -3.5872199999999999 2.4948100000000002 7.0044399999999998 H
  atom 2.8691700000000000 5.4182899999999998 0.2311740000000000 H
  atom 6.8663999999999996 3.5444200000000001 0.2463660000000000 H
  atom 0.4860040000000000 0.6214110000000000 6.7338300000000002 H
  atom -2.9864899999999999 1.7312300000000000 4.7200699999999998 H
  atom 2.2710300000000001 4.7674099999999999 2.5668199999999999 H
  atom 6.0985899999999997 4.3403499999999999 2.4625400000000002 H
  atom 1.0246400000000000 1.3052600000000001 4.4592799999999997 H
  atom -5.7290900000000002 0.1742290000000000 9.6400299999999994 C
  atom -4.6093400000000004 3.1442500000000000 12.0536999999999992 C
  atom -0.5973630000000000 5.5749700000000004 11.9558000000000000 C
  atom -1.6185000000000000 2.8366199999999999 9.4262099999999993 C
  atom -5.0265300000000002 1.0499499999999999 8.8267500000000005 C
  atom -5.3715900000000003 3.9643799999999998 12.8112999999999992 C
  atom -1.4000900000000001 4.7976999999999999 12.7830999999999992 C
  atom -0.9068910000000000 2.0184500000000001 8.5776100000000000 C
  atom -4.6471999999999998 0.6505649999999999 7.5025800000000000 C
  atom -5.7909400000000000 3.6096400000000002 14.1151999999999997 C
  atom -1.7726000000000000 5.2817699999999999 14.0561000000000007 C
  atom -0.6020370000000000 2.3913300000000000 7.2289099999999999 C
  atom -8.6501999999999999 1.5132200000000000 13.8978999999999999 C
  atom -1.8248200000000001 4.5058400000000001 7.6350199999999999 C
  atom 2.1466699999999999 4.4434699999999996 7.6839199999999996 C
  atom -4.6093299999999999 1.4871000000000001 13.7954000000000008 C
  atom -8.3327200000000001 1.2341700000000000 12.5996000000000006 C
  atom -2.1321300000000001 4.0865799999999997 8.9031500000000001 C
  atom 1.8353500000000000 4.7368199999999998 8.9889100000000006 C
  atom -4.1976300000000002 1.9074400000000000 12.5600000000000005 C
  atom -6.0426700000000002 0.4799110000000000 10.6358999999999995 H
  atom -4.2538600000000004 3.5069699999999999 11.0698000000000008 H
  atom -0.3894040000000000 5.1628200000000000 10.9941999999999993 H
  atom -1.7981300000000000 2.5125999999999999 10.4413999999999998 H
  atom -4.6681699999999999 2.0102799999999998 9.1865600000000001 H
  atom -5.5702100000000003 4.9792600000000000 12.4352000000000000 H
  atom -1.7443700000000000 3.7974100000000002 12.4707000000000008 H
  atom -0.6079360000000000 1.0047999999999999 8.9095800000000001 H
  atom -8.3542299999999994 2.4363700000000001 14.3717000000000006 H
  atom -2.1541600000000001 5.4859400000000003 7.2686700000000002 H
  atom 1.7927000000000000 3.5356999999999998 7.1648199999999997 H
  atom -4.2334699999999996 0.5655640000000000 14.2119000000000000 H
  atom -7.8116899999999996 1.9309900000000000 11.9214000000000002 H
  atom -2.6641699999999999 4.8140400000000003 9.5491399999999995 H
  atom 1.1942400000000000 4.1338400000000002 9.5810499999999994 H
  atom -3.4687500000000000 1.3268899999999999 11.9995999999999992 H
  atom -0.9718320000000000 6.2962100000000003 2.3231400000000000 C
  atom 0.1538700000000000 9.1535700000000002 4.8160499999999997 C
  atom 4.1999599999999999 11.6819000000000006 4.9243100000000002 C
  atom 3.1868200000000000 8.6904000000000003 2.2648899999999998 C
  atom -0.0715247000000000 7.0199800000000003 1.5479099999999999 C
  atom -0.6100190000000000 9.9529099999999993 5.6390399999999996 C
  atom 3.4538700000000002 10.8065999999999995 5.7188299999999996 C
  atom 3.9413600000000000 7.8305999999999996 1.5121300000000000 C
  atom 0.3497900000000000 6.5735900000000003 0.2476480000000000 C
  atom -0.9508380000000000 9.5693800000000007 6.9557000000000002 C
  atom 3.0739500000000000 11.2264999999999997 7.0142499999999997 C
  atom 4.3839100000000002 8.1791699999999992 0.2080200000000000 C
  atom -3.7501500000000001 7.3715099999999998 6.7912499999999998 C
  atom 3.2314400000000001 10.3621999999999996 0.5088640000000000 C
  atom 7.1250900000000001 10.4212000000000007 0.6172350000000000 C
  atom 0.2931890000000000 7.4917600000000002 6.5980600000000003 C
  atom -3.4499399999999998 7.0373099999999997 5.5017199999999997 C
  atom 2.8390499999999999 9.9818499999999997 1.7793099999999999 C
  atom 6.8744199999999998 10.7321000000000009 1.9294400000000000 C
  atom 0.5678810000000000 7.8925400000000003 5.2705500000000001 C
  atom -1.3284400000000001 6.7646100000000002 3.2360500000000001 H
  atom 0.3498060000000000 9.4859600000000004 3.8155500000000000 H
  atom 4.4705800000000000 11.3582999999999998 3.8969299999999998 H
  atom 2.8457699999999999 8.3636999999999997 3.2675900000000002 H
  atom 0.2884750000000000 7.9554700000000000 1.9028799999999999 H
  atom -0.9850700000000000 10.9002999999999997 5.2533899999999996 H
  atom 3.2527100000000000 9.7890499999999996 5.4128900000000000 H
  atom 4.2263000000000002 6.8756700000000004 1.9164800000000000 H
  atom -3.3263300000000000 8.2628900000000005 7.2520400000000000 H
  atom 2.9834700000000001 11.3251000000000008 0.0405592000000000 H
  atom 6.7369000000000003 9.5157299999999996 0.1709530000000000 H
  atom 0.6119980000000000 6.5084499999999998 7.0143000000000004 H
  atom -2.7168399999999999 7.6529100000000003 4.9465100000000000 H
  atom 2.3292999999999999 10.7112999999999996 2.4233600000000002 H
  atom 6.2503000000000002 10.0275999999999996 2.5143200000000001 H
  atom 1.1195200000000001 7.2381399999999996 4.6154500000000001 H
  atom -5.7650199999999998 5.9220100000000002 9.5867799999999992 C
  atom -4.5668699999999998 8.9971200000000007 11.9298000000000002 C
  atom -0.6547630000000000 11.8930000000000007 12.0015999999999998 C
  atom -1.6002200000000000 8.7464099999999991 9.5862400000000001 C
  atom -5.0059100000000001 6.8423499999999997 8.8741500000000002 C
  atom -5.3678699999999999 9.8584399999999999 12.6709999999999994 C
  atom -1.4161900000000001 10.9788999999999994 12.7386999999999997 C
  atom -0.7972270000000000 7.9563899999999999 8.7807600000000008 C
  atom -4.5729899999999999 6.5313800000000004 7.5818700000000003 C
  atom -5.7387300000000003 9.4786599999999996 13.9894999999999996 C
  atom -1.8107000000000000 11.2819000000000003 14.0717999999999996 C
  atom -0.4288420000000000 8.3380399999999995 7.4796600000000000 C
  atom -8.5847999999999995 7.3329000000000004 13.6690000000000005 C
  atom -1.8100400000000001 10.3430000000000000 7.7938999999999998 C
  atom 2.3755500000000001 10.3414000000000001 7.8705299999999996 C
  atom -4.5849900000000003 7.3063399999999996 13.6785999999999994 C
  atom -8.1878700000000002 6.8299200000000004 12.4262999999999995 C
  atom -2.1676899999999999 9.9475899999999999 9.0917700000000004 C
  atom 2.0000900000000001 10.7589000000000006 9.1345600000000005 C
  atom -4.1802900000000003 7.7391100000000002 12.4456000000000007 C
  atom -6.1201499999999998 6.1996200000000004 10.5909999999999993 H
  atom -4.2397700000000000 9.3312399999999993 10.9161000000000001 H
  atom -0.5060920000000000 11.7880000000000003 10.9021000000000008 H
  atom -1.7896000000000001 8.3635099999999998 10.6074000000000002 H
  atom -4.6557199999999996 7.7598599999999998 9.3338400000000004 H
  atom -5.6819199999999999 10.8408999999999995 12.2471999999999994 H
  atom -1.7744200000000001 10.0581999999999994 12.2690000000000001 H
  atom -0.4320010000000000 7.0197200000000004 9.1598900000000008 H
  atom -8.2867800000000003 8.3282299999999996 13.9656000000000002 H
  atom -2.1860900000000001 11.3234999999999992 7.4603200000000003 H
  atom 2.0829499999999999 9.3635800000000007 7.4786200000000003 H
  atom -4.2760800000000003 6.3262900000000002 14.0501000000000005 H
  atom -7.5723900000000004 7.4632500000000004 11.8000000000000007 H
  atom -2.8765700000000001 10.5909999999999993 9.6329499999999992 H
  atom 1.4173100000000001 10.1091999999999995 9.7827699999999993 H
  atom -3.5362300000000002 7.0737800000000002 11.8402999999999992 H
  
  -----------------------------------------------------------------------
  Completed first pass over input file geometry.in .
  -----------------------------------------------------------------------
  

  Basic array size parameters:
  | Number of species                 :        2
  | Number of atoms                   :      144
  | Number of lattice vectors         :        3
  | Max. basis fn. angular momentum   :        2
  | Max. atomic/ionic basis occupied n:        2
  | Max. number of basis fn. types    :        2
  | Max. radial fns per species/type  :        3
  | Max. logarithmic grid size        :     1277
  | Max. radial integration grid size :       34
  | Max. angular integration grid size:      302
  | Max. angular grid division number :        8
  | Radial grid for Hartree potential :     1277
  | Number of spin channels           :        1

------------------------------------------------------------
          Reading file control.in.
------------------------------------------------------------
  XC: Using Perdew-Wang parametrisation of Ceperley-Alder LDA.
  Spin treatment: No spin polarisation.
  Non-relativistic treatment of kinetic energy.
  Charge =   0.000000E+00: Neutral system requested explicitly.
  Found k-point grid:         2         1         1
  DFPT calculation will begin after the DFT/HF calculation.
  Charge density mixing - mixing parameter:     0.7500
  Forces will not be computed.
 
  Reading configuration options for species H                   .
  | Found nuclear charge :   1.0000
  | Found atomic mass :    1.00794000000000      amu
  | Found l_max for Hartree potential  :   4
  | Found cutoff potl. onset [A], width [A], scale factor :    3.50000    1.50000    1.00000
  | Threshold for basis-dependent cutoff potential is   0.100000E-03
  | Found data for basic radial integration grid :    24 points, outermost radius =    5.000 A
  | Found multiplier for basic radial grid :   1
  | Found angular grid specification: user-specified.
  | Specified grid contains     5 separate shells.
  | Check grid settings after all constraints further below.
  | Found free-atom valence shell :  1 s   1.000
  | No ionic wave fns used. Skipping ion_occ.
  | Found hydrogenic basis function :  2 s   2.100
  | Found hydrogenic basis function :  2 p   3.500
  Species H                   : Missing cutoff potential type.
  Defaulting to exp(1/x)/(1-x)^2 type cutoff potential.
  Species H : No 'logarithmic' tag. Using default grid for free atom:
  | Default logarithmic grid data [bohr] : 0.1000E-03 0.1000E+03 0.1012E+01
  Species H : On-site basis accuracy parameter (for Gram-Schmidt orthonormalisation) not specified.
  Using default value basis_acc =  0.1000000E-03.
  Species H                   : Using default innermost maximum threshold i_radial=  2 for radial functions.
  Species H                   : Default cutoff onset for free atom density etc. : 0.35000000E+01 AA.
  Species H                   : Basic radial grid will be enhanced according to radial_multiplier =   1, to contain    24 grid points.
 
  Reading configuration options for species C                   .
  | Found nuclear charge :   6.0000
  | Found atomic mass :    12.0107000000000      amu
  | Found l_max for Hartree potential  :   4
  | Found cutoff potl. onset [A], width [A], scale factor :    3.50000    1.50000    1.00000
  | Threshold for basis-dependent cutoff potential is   0.100000E-03
  | Found data for basic radial integration grid :    34 points, outermost radius =    5.000 A
  | Found multiplier for basic radial grid :   1
  | Found angular grid specification: user-specified.
  | Specified grid contains     5 separate shells.
  | Check grid settings after all constraints further below.
  | Found free-atom valence shell :  2 s   2.000
  | Found free-atom valence shell :  2 p   2.000
  | No ionic wave fns used. Skipping ion_occ.
  | No ionic wave fns used. Skipping ion_occ.
  | Found hydrogenic basis function :  2 p   1.700
  | Found hydrogenic basis function :  3 d   6.000
  | Found hydrogenic basis function :  2 s   4.900
  Species C                   : Missing cutoff potential type.
  Defaulting to exp(1/x)/(1-x)^2 type cutoff potential.
  Species C : No 'logarithmic' tag. Using default grid for free atom:
  | Default logarithmic grid data [bohr] : 0.1000E-03 0.1000E+03 0.1012E+01
  Species C : On-site basis accuracy parameter (for Gram-Schmidt orthonormalisation) not specified.
  Using default value basis_acc =  0.1000000E-03.
  Species C                   : Using default innermost maximum threshold i_radial=  2 for radial functions.
  Species C                   : Default cutoff onset for free atom density etc. : 0.35000000E+01 AA.
  Species C                   : Basic radial grid will be enhanced according to radial_multiplier =   1, to contain    34 grid points.
 
  Finished reading input file 'control.in'.
 
------------------------------------------------------------


------------------------------------------------------------
          Reading geometry description geometry.in.
------------------------------------------------------------
  | The smallest distance between any two atoms is         1.06077174 AA.
  | The first atom of this pair is atom number                     55 .
  | The second atom of this pair is atom number                    71 .
  | Wigner-Seitz cell of the first atom image           0     0     0 .
  | (The Wigner-Seitz cell of the second atom is 0 0 0  by definition.)

  Symmetry information by spglib:
  | Precision set to  0.1E-04
  | Number of Operations  : 1
  | Space group           : 1
  | International         : P1
  | Schoenflies           : C1^1
  Input structure read successfully.
  The structure contains      144 atoms,  and a total of        544.000 electrons.

  Input geometry:
  | Unit cell:
  |        8.10200000        0.00000000        0.00000000
  |        0.00000000       11.88000000        0.00000000
  |       -9.78509185        0.00000000       14.25711196
  | Atomic structure:
  |       Atom                x [A]            y [A]            z [A]
  |    1: Species C            -0.75309600        0.03180370        2.52278000
  |    2: Species C             0.10617000        3.27574000        4.67927000
  |    3: Species C             4.20933000        5.86512000        4.94328000
  |    4: Species C             3.23668000        2.80782000        2.39747000
  |    5: Species C             0.01657880        0.92417500        1.78648000
  |    6: Species C            -0.64185700        4.11435000        5.48860000
  |    7: Species C             3.35804000        5.04047000        5.63305000
  |    8: Species C             3.95278000        1.94399000        1.59850000
  |    9: Species C             0.34362600        0.62350000        0.43552700
  |   10: Species C            -1.07227000        3.67251000        6.75748000
  |   11: Species C             3.03697000        5.29882000        6.96843000
  |   12: Species C             4.35489000        2.32602000        0.31833300
  |   13: Species C            -3.86692000        1.48857000        6.67156000
  |   14: Species C             3.18824000        4.46381000        0.64333900
  |   15: Species C             7.15528000        4.53746000        0.63491400
  |   16: Species C             0.13257600        1.56665000        6.36338000
  |   17: Species C            -3.50371000        1.06640000        5.38842000
  |   18: Species C             2.85486000        4.08478000        1.94794000
  |   19: Species C             6.77196000        4.99556000        1.86972000
  |   20: Species C             0.47767500        1.99050000        5.11752000
  |   21: Species H            -1.10298000        0.28101200        3.53539000
  |   22: Species H             0.44002200        3.64869000        3.72608000
  |   23: Species H             4.45900000        5.60064000        3.93641000
  |   24: Species H             2.99146000        2.52944000        3.41595000
  |   25: Species H             0.33304400        1.90802000        2.12034000
  |   26: Species H            -1.00048000        5.05939000        5.07109000
  |   27: Species H             2.90356000        4.13557000        5.18676000
  |   28: Species H             4.19153000        0.94027700        1.93567000
  |   29: Species H            -3.58722000        2.49481000        7.00444000
  |   30: Species H             2.86917000        5.41829000        0.23117400
  |   31: Species H             6.86640000        3.54442000        0.24636600
  |   32: Species H             0.48600400        0.62141100        6.73383000
  |   33: Species H            -2.98649000        1.73123000        4.72007000
  |   34: Species H             2.27103000        4.76741000        2.56682000
  |   35: Species H             6.09859000        4.34035000        2.46254000
  |   36: Species H             1.02464000        1.30526000        4.45928000
  |   37: Species C            -5.72909000        0.17422900        9.64003000
  |   38: Species C            -4.60934000        3.14425000       12.05370000
  |   39: Species C            -0.59736300        5.57497000       11.95580000
  |   40: Species C            -1.61850000        2.83662000        9.42621000
  |   41: Species C            -5.02653000        1.04995000        8.82675000
  |   42: Species C            -5.37159000        3.96438000       12.81130000
  |   43: Species C            -1.40009000        4.79770000       12.78310000
  |   44: Species C            -0.90689100        2.01845000        8.57761000
  |   45: Species C            -4.64720000        0.65056500        7.50258000
  |   46: Species C            -5.79094000        3.60964000       14.11520000
  |   47: Species C            -1.77260000        5.28177000       14.05610000
  |   48: Species C            -0.60203700        2.39133000        7.22891000
  |   49: Species C            -8.65020000        1.51322000       13.89790000
  |   50: Species C            -1.82482000        4.50584000        7.63502000
  |   51: Species C             2.14667000        4.44347000        7.68392000
  |   52: Species C            -4.60933000        1.48710000       13.79540000
  |   53: Species C            -8.33272000        1.23417000       12.59960000
  |   54: Species C            -2.13213000        4.08658000        8.90315000
  |   55: Species C             1.83535000        4.73682000        8.98891000
  |   56: Species C            -4.19763000        1.90744000       12.56000000
  |   57: Species H            -6.04267000        0.47991100       10.63590000
  |   58: Species H            -4.25386000        3.50697000       11.06980000
  |   59: Species H            -0.38940400        5.16282000       10.99420000
  |   60: Species H            -1.79813000        2.51260000       10.44140000
  |   61: Species H            -4.66817000        2.01028000        9.18656000
  |   62: Species H            -5.57021000        4.97926000       12.43520000
  |   63: Species H            -1.74437000        3.79741000       12.47070000
  |   64: Species H            -0.60793600        1.00480000        8.90958000
  |   65: Species H            -8.35423000        2.43637000       14.37170000
  |   66: Species H            -2.15416000        5.48594000        7.26867000
  |   67: Species H             1.79270000        3.53570000        7.16482000
  |   68: Species H            -4.23347000        0.56556400       14.21190000
  |   69: Species H            -7.81169000        1.93099000       11.92140000
  |   70: Species H            -2.66417000        4.81404000        9.54914000
  |   71: Species H             1.19424000        4.13384000        9.58105000
  |   72: Species H            -3.46875000        1.32689000       11.99960000
  |   73: Species C            -0.97183200        6.29621000        2.32314000
  |   74: Species C             0.15387000        9.15357000        4.81605000
  |   75: Species C             4.19996000       11.68190000        4.92431000
  |   76: Species C             3.18682000        8.69040000        2.26489000
  |   77: Species C            -0.07152470        7.01998000        1.54791000
  |   78: Species C            -0.61001900        9.95291000        5.63904000
  |   79: Species C             3.45387000       10.80660000        5.71883000
  |   80: Species C             3.94136000        7.83060000        1.51213000
  |   81: Species C             0.34979000        6.57359000        0.24764800
  |   82: Species C            -0.95083800        9.56938000        6.95570000
  |   83: Species C             3.07395000       11.22650000        7.01425000
  |   84: Species C             4.38391000        8.17917000        0.20802000
  |   85: Species C            -3.75015000        7.37151000        6.79125000
  |   86: Species C             3.23144000       10.36220000        0.50886400
  |   87: Species C             7.12509000       10.42120000        0.61723500
  |   88: Species C             0.29318900        7.49176000        6.59806000
  |   89: Species C            -3.44994000        7.03731000        5.50172000
  |   90: Species C             2.83905000        9.98185000        1.77931000
  |   91: Species C             6.87442000       10.73210000        1.92944000
  |   92: Species C             0.56788100        7.89254000        5.27055000
  |   93: Species H            -1.32844000        6.76461000        3.23605000
  |   94: Species H             0.34980600        9.48596000        3.81555000
  |   95: Species H             4.47058000       11.35830000        3.89693000
  |   96: Species H             2.84577000        8.36370000        3.26759000
  |   97: Species H             0.28847500        7.95547000        1.90288000
  |   98: Species H            -0.98507000       10.90030000        5.25339000
  |   99: Species H             3.25271000        9.78905000        5.41289000
  |  100: Species H             4.22630000        6.87567000        1.91648000
  |  101: Species H            -3.32633000        8.26289000        7.25204000
  |  102: Species H             2.98347000       11.32510000        0.04055920
  |  103: Species H             6.73690000        9.51573000        0.17095300
  |  104: Species H             0.61199800        6.50845000        7.01430000
  |  105: Species H            -2.71684000        7.65291000        4.94651000
  |  106: Species H             2.32930000       10.71130000        2.42336000
  |  107: Species H             6.25030000       10.02760000        2.51432000
  |  108: Species H             1.11952000        7.23814000        4.61545000
  |  109: Species C            -5.76502000        5.92201000        9.58678000
  |  110: Species C            -4.56687000        8.99712000       11.92980000
  |  111: Species C            -0.65476300       11.89300000       12.00160000
  |  112: Species C            -1.60022000        8.74641000        9.58624000
  |  113: Species C            -5.00591000        6.84235000        8.87415000
  |  114: Species C            -5.36787000        9.85844000       12.67100000
  |  115: Species C            -1.41619000       10.97890000       12.73870000
  |  116: Species C            -0.79722700        7.95639000        8.78076000
  |  117: Species C            -4.57299000        6.53138000        7.58187000
  |  118: Species C            -5.73873000        9.47866000       13.98950000
  |  119: Species C            -1.81070000       11.28190000       14.07180000
  |  120: Species C            -0.42884200        8.33804000        7.47966000
  |  121: Species C            -8.58480000        7.33290000       13.66900000
  |  122: Species C            -1.81004000       10.34300000        7.79390000
  |  123: Species C             2.37555000       10.34140000        7.87053000
  |  124: Species C            -4.58499000        7.30634000       13.67860000
  |  125: Species C            -8.18787000        6.82992000       12.42630000
  |  126: Species C            -2.16769000        9.94759000        9.09177000
  |  127: Species C             2.00009000       10.75890000        9.13456000
  |  128: Species C            -4.18029000        7.73911000       12.44560000
  |  129: Species H            -6.12015000        6.19962000       10.59100000
  |  130: Species H            -4.23977000        9.33124000       10.91610000
  |  131: Species H            -0.50609200       11.78800000       10.90210000
  |  132: Species H            -1.78960000        8.36351000       10.60740000
  |  133: Species H            -4.65572000        7.75986000        9.33384000
  |  134: Species H            -5.68192000       10.84090000       12.24720000
  |  135: Species H            -1.77442000       10.05820000       12.26900000
  |  136: Species H            -0.43200100        7.01972000        9.15989000
  |  137: Species H            -8.28678000        8.32823000       13.96560000
  |  138: Species H            -2.18609000       11.32350000        7.46032000
  |  139: Species H             2.08295000        9.36358000        7.47862000
  |  140: Species H            -4.27608000        6.32629000       14.05010000
  |  141: Species H            -7.57239000        7.46325000       11.80000000
  |  142: Species H            -2.87657000       10.59100000        9.63295000
  |  143: Species H             1.41731000       10.10920000        9.78277000
  |  144: Species H            -3.53623000        7.07378000       11.84030000

  Lattice parameters for 3D lattice (in Angstroms) :     8.102000   11.880000   17.292000
  Angle(s) between unit vectors (in degrees)       :    90.000000  124.463000   90.000000


  Quantities derived from the lattice vectors (in Angstrom^-1):
  | Reciprocal lattice vector 1:  0.775510  0.000000  0.532257
  | Reciprocal lattice vector 2:  0.000000  0.528888  0.000000
  | Reciprocal lattice vector 3: -0.000000  0.000000  0.440705
  | Unit cell volume                               :   0.137227E+04  Angstrom^3

  Fractional coordinates:
                         L1                L2                L3
       atom_frac         0.12075599        0.00267708        0.17694888  C
       atom_frac         0.40949100        0.27573569        0.32820602  C
       atom_frac         0.93829353        0.49369697        0.34672380  C
       atom_frac         0.60258417        0.23634848        0.16815958  C
       atom_frac         0.15338122        0.07779251        0.12530448  C
       atom_frac         0.38572414        0.34632576        0.38497278  C
       atom_frac         0.89165323        0.42428199        0.39510456  C
       atom_frac         0.62328801        0.16363552        0.11211948  C
       atom_frac         0.07930653        0.05248316        0.03054805  C
       atom_frac         0.44008827        0.30913384        0.47397257  C
       atom_frac         0.96514645        0.44602862        0.48876869  C
       atom_frac         0.56447441        0.19579293        0.02232801  C
       atom_frac         0.08787653        0.12530051        0.46794610  C
       atom_frac         0.44801077        0.37574158        0.04512408  C
       atom_frac         0.93693420        0.38194108        0.04453314  C
       atom_frac         0.55541326        0.13187290        0.44633023  C
       atom_frac         0.02400980        0.08976431        0.37794611  C
       atom_frac         0.51737729        0.34383670        0.13662935  C
       atom_frac         0.99422439        0.42050168        0.13114297  C
       atom_frac         0.49246920        0.16755051        0.35894507  C
       atom_frac         0.16335056        0.02365421        0.24797378  H
       atom_frac         0.36995120        0.30712879        0.26134886  H
       atom_frac         0.88381616        0.47143434        0.27610150  H
       atom_frac         0.65859429        0.21291582        0.23959621  H
       atom_frac         0.22072305        0.16060774        0.14872156  H
       atom_frac         0.30609283        0.42587458        0.35568845  H
       atom_frac         0.79775265        0.34811195        0.36380159  H
       atom_frac         0.68131813        0.07914790        0.13576873  H
       atom_frac         0.15059755        0.21000084        0.49129445  H
       atom_frac         0.37371412        0.45608502        0.01621464  H
       atom_frac         0.86836442        0.29835185        0.01728022  H
       atom_frac         0.63041686        0.05230732        0.47231375  H
       atom_frac         0.03123159        0.14572643        0.33106775  H
       atom_frac         0.49774340        0.40129714        0.18003787  H
       atom_frac         0.96133134        0.36534933        0.17272362  H
       atom_frac         0.50421874        0.10987037        0.31277583  H
       atom_frac         0.10949856        0.01466574        0.67615587  C
       atom_frac         0.45217019        0.26466751        0.84545173  C
       atom_frac         0.93906049        0.46927357        0.83858498  C
       atom_frac         0.59874057        0.23877273        0.66115845  C
       atom_frac         0.12731898        0.08837963        0.61911206  C
       atom_frac         0.42226572        0.33370202        0.89859012  C
       atom_frac         0.91006447        0.40384680        0.89661216  C
       atom_frac         0.61468588        0.16990320        0.60163728  C
       atom_frac         0.06196619        0.05476136        0.52623421  C
       atom_frac         0.48096190        0.30384175        0.99004623  C
       atom_frac         0.97192436        0.44459343        0.98590093  C
       atom_frac         0.53806282        0.20129040        0.50703887  C
       atom_frac         0.10964622        0.12737542        0.97480472  C
       atom_frac         0.42154131        0.37927946        0.53552361  C
       atom_frac         0.91587006        0.37402946        0.53895347  C
       atom_frac         0.59971301        0.12517677        0.96761532  C
       atom_frac         0.03885099        0.10388636        0.88374139  C
       atom_frac         0.49103605        0.34398822        0.62447079  C
       atom_frac         0.98799232        0.39872222        0.63048604  C
       atom_frac         0.54587534        0.16055892        0.88096383  C
       atom_frac         0.15515593        0.04039655        0.74600663  H
       atom_frac         0.41269837        0.29519949        0.77644056  H
       atom_frac         0.88326976        0.43458081        0.77113794  H
       atom_frac         0.66256752        0.21149832        0.73236431  H
       atom_frac         0.20202999        0.16921549        0.64434929  H
       atom_frac         0.36589089        0.41912963        0.87221031  H
       atom_frac         0.84110747        0.31964731        0.87470029  H
       atom_frac         0.67970639        0.08457912        0.62492180  H
       atom_frac         0.18631290        0.20508165        1.00803725  H
       atom_frac         0.34985812        0.46177946        0.50982766  H
       atom_frac         0.82820724        0.29761785        0.50254357  H
       atom_frac         0.68138626        0.04760640        0.99682881  H
       atom_frac         0.04570863        0.16254125        0.83617215  H
       atom_frac         0.48009093        0.40522222        0.66978081  H
       atom_frac         0.95902340        0.34796633        0.67201899  H
       atom_frac         0.58836613        0.11169108        0.84165713  H
       atom_frac         0.07684646        0.52998401        0.16294604  C
       atom_frac         0.42696524        0.77050253        0.33779983  C
       atom_frac         0.93553006        0.98332492        0.34539323  C
       atom_frac         0.58519912        0.73151515        0.15886036  C
       atom_frac         0.12229737        0.59090741        0.10857108  C
       atom_frac         0.40239775        0.83778704        0.39552470  C
       atom_frac         0.91074770        0.90964646        0.40112121  C
       atom_frac         0.61456197        0.65914141        0.10606145  C
       atom_frac         0.06415186        0.55333249        0.01737014  C
       atom_frac         0.47186764        0.80550337        0.48787581  C
       atom_frac         0.97359223        0.94499158        0.49198253  C
       atom_frac         0.55871149        0.68848232        0.01459061  C
       atom_frac         0.11242811        0.62049747        0.47634121  C
       atom_frac         0.44195124        0.87223906        0.03569194  C
       atom_frac         0.93171035        0.87720539        0.04329313  C
       atom_frac         0.59511717        0.63061953        0.46279078  C
       atom_frac         0.04024422        0.59236616        0.38589302  C
       atom_frac         0.50114106        0.84022306        0.12480157  C
       atom_frac         1.01192961        0.90337542        0.13533176  C
       atom_frac         0.51656636        0.66435522        0.36967866  C
       atom_frac         0.11016540        0.56941162        0.22697795  H
       atom_frac         0.36639529        0.79848148        0.26762433  H
       atom_frac         0.88190104        0.95608586        0.27333236  H
       atom_frac         0.62804455        0.70401515        0.22919018  H
       atom_frac         0.19680076        0.66965236        0.13346883  H
       atom_frac         0.32343769        0.91753367        0.36847505  H
       atom_frac         0.86000270        0.82399411        0.37966245  H
       atom_frac         0.68398406        0.57876010        0.13442274  H
       atom_frac         0.20377275        0.69552946        0.50866122  H
       atom_frac         0.37167453        0.95329125        0.00284484  H
       atom_frac         0.84599238        0.80098737        0.01199072  H
       atom_frac         0.66972680        0.54784933        0.49198604  H
       atom_frac         0.08369551        0.64418434        0.34695035  H
       atom_frac         0.49278278        0.90162458        0.16997552  H
       atom_frac         0.98444269        0.84407407        0.17635549  H
       atom_frac         0.52915878        0.60927104        0.32372966  H
       atom_frac         0.10055298        0.49848569        0.67242090  C
       atom_frac         0.44691638        0.75733333        0.83676133  C
       atom_frac         0.93585559        1.00109428        0.84179742  C
       atom_frac         0.61455315        0.73622980        0.67238302  C
       atom_frac         0.13387935        0.57595539        0.62243672  C
       atom_frac         0.41083988        0.82983502        0.88874942  C
       atom_frac         0.90431613        0.92414983        0.89349793  C
       atom_frac         0.64543039        0.66972980        0.61588630  C
       atom_frac         0.07784241        0.54977946        0.53179564  C
       atom_frac         0.47675779        0.79786700        0.98122958  C
       atom_frac         0.96855179        0.94965488        0.98700214  C
       atom_frac         0.58068099        0.70185522        0.52462659  C
       atom_frac         0.09832790        0.61724747        0.95874957  C
       atom_frac         0.43682447        0.87062290        0.54666752  C
       atom_frac         0.95992784        0.87048822        0.55204238  C
       atom_frac         0.59282293        0.61501178        0.95942292  C
       atom_frac         0.04204883        0.57490909        0.87158606  C
       atom_frac         0.50262524        0.83733923        0.63770068  C
       atom_frac         1.02066376        0.90563131        0.64070199  C
       atom_frac         0.53832459        0.65144024        0.87293977  C
       atom_frac         0.14178933        0.52185354        0.74285732  H
       atom_frac         0.40141733        0.78545791        0.76565998  H
       atom_frac         0.86106549        0.99225589        0.76467801  H
       atom_frac         0.67768242        0.70399916        0.74400762  H
       atom_frac         0.21604292        0.65318687        0.65467957  H
       atom_frac         0.33617722        0.91253367        0.85902391  H
       atom_frac         0.82031225        0.84664983        0.86055297  H
       atom_frac         0.72262547        0.59088552        0.64247865  H
       atom_frac         0.16023677        0.70102946        0.97955322  H
       atom_frac         0.36215203        0.95315657        0.52327007  H
       atom_frac         0.89061412        0.78818013        0.52455364  H
       atom_frac         0.66242079        0.53251599        0.98548009  H
       atom_frac         0.06496060        0.62821970        0.82765710  H
       atom_frac         0.46097483        0.89149832        0.67565928  H
       atom_frac         1.00364406        0.85094276        0.68616772  H
       atom_frac         0.56654282        0.59543603        0.83048376  H

 
  Finished reading input file 'geometry.in'.
 

 
  Consistency checks for stacksize environment parameter are next.
 
  | Maximum stacksize for task 0: unlimited
  | Maximum stacksize for task 1: unlimited
  | Maximum stacksize for task 2: unlimited
  | Maximum stacksize for task 3: unlimited
  | Maximum stacksize for task 4: unlimited
  | Maximum stacksize for task 5: unlimited
  | Maximum stacksize for task 6: unlimited
  | Maximum stacksize for task 7: unlimited
  | Maximum stacksize for task 8: unlimited
  | Maximum stacksize for task 9: unlimited
  | Maximum stacksize for task 10: unlimited
  | Maximum stacksize for task 11: unlimited
  | Maximum stacksize for task 12: unlimited
  | Maximum stacksize for task 13: unlimited
  | Maximum stacksize for task 14: unlimited
  | Maximum stacksize for task 15: unlimited
  | Maximum stacksize for task 16: unlimited
  | Maximum stacksize for task 17: unlimited
  | Current stacksize for task 0: unlimited
  | Current stacksize for task 1: unlimited
  | Current stacksize for task 2: unlimited
  | Current stacksize for task 3: unlimited
  | Current stacksize for task 4: unlimited
  | Current stacksize for task 5: unlimited
  | Current stacksize for task 6: unlimited
  | Current stacksize for task 7: unlimited
  | Current stacksize for task 8: unlimited
  | Current stacksize for task 9: unlimited
  | Current stacksize for task 10: unlimited
  | Current stacksize for task 11: unlimited
  | Current stacksize for task 12: unlimited
  | Current stacksize for task 13: unlimited
  | Current stacksize for task 14: unlimited
  | Current stacksize for task 15: unlimited
  | Current stacksize for task 16: unlimited
  | Current stacksize for task 17: unlimited
 
  Consistency checks for the contents of control.in are next.
 
  MPI_IN_PLACE appears to work with this MPI implementation.
  | Keeping use_mpi_in_place .true. (see manual).
  Explicit treatment of the Coulomb operator is needed, but the RI method is not specified.
  Coulomb operator: Defaulting to 'LVL fast' resolution of identity - RI_type = LVL_fast
  Species H: Using default value for prodbas_acc =   1.000000E-06.
  Species H: Using default value max_l_prodbas =     6.
  Species C: Using default value for prodbas_acc =   1.000000E-06.
  Species C: Using default value max_l_prodbas =     6.
  Target number of points in a grid batch is not set.  Since GPU acceleration is enabled, defaulting to  200
  Method for grid partitioning is not set. Defaulting to parallel hash+maxmin partitioning.
  Batch size limit is not set. Defaulting to    200
  By default, will store active basis functions for each batch.
  If in need of memory, prune_basis_once .false. can be used to disable this option.
  communication_type for Hartree potential was not specified.
  Defaulting to calc_hartree .
  Defaulting to Pulay charge density mixer.
  Pulay mixer: Number of relevant iterations not set.
  Defaulting to    8 iterations.
  Pulay mixer: Number of initial linear mixing iterations not set.
  Defaulting to    0 iterations.
  Work space size for distributed Hartree potential not set.
  Defaulting to   0.200000E+03 MB.
  Algorithm-dependent basis array size parameters:
  | n_max_pulay                         :        8
  Maximum number of self-consistency iterations not provided.
  Presetting  1000 iterations.
  Presetting      1001 iterations before the initial mixing cycle
  is restarted anyway using the sc_init_iter criterion / keyword.
  Presetting a factor      1.000 between actual scf density residual
  and density convergence criterion sc_accuracy_rho below which sc_init_iter
  takes no effect.
 * No s.c.f. convergence criteria (sc_accuracy_*) were provided in control.in.
 * The run will proceed with a reasonable default guess, but please check whether.
 * the s.c.f. cycles seem to take too much or too little time.
  Geometry relaxation not requested: no relaxation will be performed.
 * Notice: The s.c.f. convergence criterion sc_accuracy_rho was not provided.
 * We used to stop in this case, and ask the user to provide reasonable
 * scf convergence criteria. However, this led some users to employ criteria
 * that led to extremely long run times, e.g., for simple relaxation.
 * We now preset a default value for sc_accuracy_rho if it is not set.
 * You may still wish to check if this setting is too tight or too loose for your needs.
 * Based on n_atoms and forces and force-correction status, FHI-aims chose sc_accuracy_rho =  0.391918E-04 .
  No accuracy limit for integral partition fn. given. Defaulting to  0.1000E-14.
  No threshold value for u(r) in integrations given. Defaulting to  0.1000E-05.
  No occupation type (smearing scheme) given. Defaulting to Gaussian broadening, width =  0.1000E-01 eV.
  The width will be adjusted in iteration number     2 of the first full s.c.f. cycle only.
  S.C.F. convergence parameters will be adjusted in iteration number     2 of the first full s.c.f. cycle only.
  No accuracy for occupation numbers given. Defaulting to  0.1000E-12.
  No threshold value for occupation numbers given. Defaulting to  0.0000E+00.
  No accuracy for fermi level given. Defaulting to  0.1000E-19.
  Maximum # of iterations to find E_F not set. Defaulting to  200.
  Preferred method for the eigenvalue solver ('KS_method') not specified in 'control.in'.
  Calling BLACS routine to test compilation state
  Since ScaLAPACK support is enabled, defaulting to ELPA (via ELSI).
  Will not use alltoall communication since running on < 1024 CPUs.
  Threshold for basis singularities not set.
  Default threshold for basis singularities:  0.1000E-04
  partition_type (choice of integration weights) for integrals was not specified.
  | Using a version of the partition function of Stratmann and coworkers ('stratmann_sparse').
  | At each grid point, the set of atoms used to build the partition table is smoothly restricted to
  | only those atoms whose free-atom density would be non-zero at that grid point.
  Partitioning for Hartree potential was not defined. Using partition_type for integrals.
  | Adjusted default value of keyword multip_moments_threshold to:       0.10000000E-11
  | This value may affect high angular momentum components of the Hartree potential in periodic systems.
  Angular momentum expansion for Kerker preconditioner not set explicitly.
  | Using default value of   0
  No explicit requirement for turning off preconditioner.
  | By default, it will be turned off when the charge convergence reaches
  | sc_accuracy_rho  =   0.391918E-04
  No special mixing parameter while Kerker preconditioner is on.
  Using default: charge_mix_param =     0.7500.
  Threshold for auxiliary basis singularities not set.
  Default threshold for auxiliary basis singularities:  0.1000E-04
  No q(lm)/r^(l+1) cutoff set for long-range Hartree potential.
  | Using default value of  0.100000E-09 .
  | Verify using the multipole_threshold keyword.
  Defaulting to new monopole extrapolation.
  Density update method: automatic selection selected.
  Using density matrix based charge density update.
  Using density matrix based charge density update.
  Using packed matrix style: index .
  Defaulting to use time-reversal symmetry for k-point grid.
  Charge integration errors on the 3D integration grid will be compensated
  by explicit normalization and distribution of residual charges.
  Use the "compensate_multipole_errors" flag to change this behaviour.
  Default to 1D ("use_logsbt") integrations for auxiliary 2-center integrals.
  Default onset of logarithmic r-grid for SBT is -38.000000000000
  Default onset of logarithmic k-grid for SBT is -25.000000000000
  Default range of logarithmic r- and k-grid for SBT is  45.000000000000
  Default number of logarithmic r- and k-grid for SBT is   4096
  Default of use_2d_corr is to use the efficient 2D distribution where possible
 
  Consistency checks for the contents of geometry.in are next.
 

  Range separation radius for Ewald summation (hartree_convergence_parameter):      2.91768261 bohr.
  Number of empty states per atom not set in control.in .
  | Since you are using a method that relies on the unoccupied spectrum
  | (MP2,GW,RPA et al.), will use the full Hamiltonian size (see below)
  | as the max. possible number of states (occupied plus empty).

  Structure-dependent array size parameters: 
  | Maximum number of distinct radial functions  :        9
  | Maximum number of basis functions            :     1440
  | Number of Kohn-Sham states (occupied + empty):     1440
------------------------------------------------------------

  Performing system and environment tests:
  | Environment variable OMP_NUM_THREADS correctly set to 1.
  | Checking for ScaLAPACK...
  | Testing pdtran()...
  | All pdtran() tests passed.
CUDA runtime version: 11060
CUDA driver version: 11060
  Initializing GPUs...

  Number of GPUs available to MPI task         0 :   1
  Number of GPUs available to MPI task         1 :   1
  Number of GPUs available to MPI task         2 :   1
  Number of GPUs available to MPI task         3 :   1
  Number of GPUs available to MPI task         4 :   1
  Number of GPUs available to MPI task         5 :   1
  Number of GPUs available to MPI task         6 :   1
  Number of GPUs available to MPI task         7 :   1
  Number of GPUs available to MPI task         8 :   1
  Number of GPUs available to MPI task         9 :   1
  Number of GPUs available to MPI task        10 :   1
  Number of GPUs available to MPI task        11 :   1
  Number of GPUs available to MPI task        12 :   1
  Number of GPUs available to MPI task        13 :   1
  Number of GPUs available to MPI task        14 :   1
  Number of GPUs available to MPI task        15 :   1
  Number of GPUs available to MPI task        16 :   1
  Number of GPUs available to MPI task        17 :   1

  | MPI task         0, GPU activated = T, Device Name = NVIDIA A100-SXM4-80GB
  | MPI task         1, GPU activated = T, Device Name = NVIDIA A100-SXM4-80GB
  | MPI task         2, GPU activated = T, Device Name = NVIDIA A100-SXM4-80GB
  | MPI task         3, GPU activated = T, Device Name = NVIDIA A100-SXM4-80GB
  | MPI task         4, GPU activated = T, Device Name = NVIDIA A100-SXM4-80GB
  | MPI task         5, GPU activated = T, Device Name = NVIDIA A100-SXM4-80GB
  | MPI task         6, GPU activated = T, Device Name = NVIDIA A100-SXM4-80GB
  | MPI task         7, GPU activated = T, Device Name = NVIDIA A100-SXM4-80GB
  | MPI task         8, GPU activated = T, Device Name = NVIDIA A100-SXM4-80GB
  | MPI task         9, GPU activated = T, Device Name = NVIDIA A100-SXM4-80GB
  | MPI task        10, GPU activated = T, Device Name = NVIDIA A100-SXM4-80GB
  | MPI task        11, GPU activated = T, Device Name = NVIDIA A100-SXM4-80GB
  | MPI task        12, GPU activated = T, Device Name = NVIDIA A100-SXM4-80GB
  | MPI task        13, GPU activated = T, Device Name = NVIDIA A100-SXM4-80GB
  | MPI task        14, GPU activated = T, Device Name = NVIDIA A100-SXM4-80GB
  | MPI task        15, GPU activated = T, Device Name = NVIDIA A100-SXM4-80GB
  | MPI task        16, GPU activated = T, Device Name = NVIDIA A100-SXM4-80GB
  | MPI task        17, GPU activated = T, Device Name = NVIDIA A100-SXM4-80GB

------------------------------------------------------------
          Preparing all fixed parts of the calculation.
------------------------------------------------------------
  Determining machine precision:
    2.225073858507201E-308
  Setting up grids for atomic and cluster calculations.

  Creating wave function, potential, and density for free atoms.
  Runtime choices for atomic solver:
  | atomic solver xc        : PW-LDA
  | compute density gradient: 0
  | compute kinetic density : F

  Species: H

  List of occupied orbitals and eigenvalues:
    n    l              occ      energy [Ha]    energy [eV]
    1    0           1.0000        -0.232375        -6.3233


  Species: C

  List of occupied orbitals and eigenvalues:
    n    l              occ      energy [Ha]    energy [eV]
    1    0           2.0000        -9.944615      -270.6068
    2    0           2.0000        -0.498807       -13.5732
    2    1           2.0000        -0.196968        -5.3598


  Adding cutoff potential to free-atom effective potential.
  Creating fixed part of basis set: Ionic, confined, hydrogenic.
 
  H                    hydrogenic:
 
  List of hydrogenic basis orbitals: 
    n    l      effective z      eigenvalue [eV]  inner max. [A]     outer max. [A]     outer radius [A]   
    2    0         2.100000       -14.9728           0.193243           1.317208           4.583499
    2    1         3.500000       -41.6669           0.602369           0.602369           3.723403
 
 
  C                    hydrogenic:
 
  List of hydrogenic basis orbitals: 
    n    l      effective z      eigenvalue [eV]  inner max. [A]     outer max. [A]     outer radius [A]   
    2    1         1.700000        -9.7616           1.230570           1.230570           4.607917
    3    2         6.000000       -54.4224           0.792453           0.792453           3.883070
    2    0         4.900000       -81.6679           0.082559           0.562749           3.078220
 
  Creating atomic-like basis functions for current effective potential.

  Species H                   :

  List of atomic basis orbitals and eigenvalues:
    n    l      energy [Ha]    energy [eV]    outer radius [A]
    1    0        -0.232375        -6.3233       4.527807


  Species C                   :

  List of atomic basis orbitals and eigenvalues:
    n    l      energy [Ha]    energy [eV]    outer radius [A]
    1    0        -9.944615      -270.6068       1.934409
    2    0        -0.498807       -13.5732       4.496620
    2    1        -0.196968        -5.3598       4.551928

  Assembling full basis from fixed parts.
  | Species H :   atomic orbital   1 s accepted.
  | Species H :    hydro orbital   2 s accepted.
  | Species H :    hydro orbital   2 p accepted.
  | Species C :   atomic orbital   1 s accepted.
  | Species C :    hydro orbital   2 s accepted.
  | Species C :   atomic orbital   2 s accepted.
  | Species C :   atomic orbital   2 p accepted.
  | Species C :    hydro orbital   2 p accepted.
  | Species C :    hydro orbital   3 d accepted.
 
  Basis size parameters after reduction:
  | Total number of radial functions:        9
  | Total number of basis functions :     1440
 
  Per-task memory consumption for arrays in subroutine allocate_ext:
  |           2.242384MB.
  Testing on-site integration grid accuracy.
  |  Species  Function  <phi|h_atom|phi> (log., in eV)  <phi|h_atom|phi> (rad., in eV)
           1        1                 -6.3245358373                 -6.3232436907
           1        2                 14.1326137532                 14.1384481100
           1        3                 25.3627025200                 25.3628451197
           2        4               -270.6067544938               -270.6067222788
           2        5                -10.5634280949                -10.5635685736
           2        6                 16.2089822398                 16.2052121796
           2        7                 -5.3613872565                 -5.3627872378
           2        8                  8.5292058327                  8.5051734780
           2        9                 27.4884461005                 27.4884542459

  Preparing densities etc. for the partition functions (integrals / Hartree potential).

  Preparations completed.
  max(cpu_time)          :      0.073 s.
  Wall clock time (cpu1) :      0.072 s.
------------------------------------------------------------

  Initializing index lists of integration centers etc. from given atomic structure:
  Mapping all atomic coordinates to central unit cell.

  Initializing the k-points
  Using symmetry for reducing the k-points
  | k-points reduced from:        2 to        2
  | Number of k-points                             :         2
  | Consuming          0 KiB for k_phase_exx.
  The eigenvectors in the calculations are REAL.
  | Number of basis functions in the Hamiltonian integrals :      8024
  | Number of basis functions in a single unit cell        :      1440
  | Number of centers in hartree potential         :      3319
  | Number of centers in hartree multipole         :      2553
  | Number of centers in electron density summation:      2000
  | Number of centers in basis integrals           :      2121
  | Number of centers in integrals                 :       963
  | Number of centers in hamiltonian               :      2011
  | Consuming          1 KiB for k_phase.
  | Number of super-cells (origin) [n_cells]                     :         175
  | Number of super-cells (after PM_index) [n_cells]             :          38
  | Number of super-cells in hamiltonian [n_cells_in_hamiltonian]:          38
  | Size of matrix packed + index [n_hamiltonian_matrix_size] :     1931874
  | Size of matrix packed + index (no_symmetry):     3860931

------------------------------------------------------------
          Begin self-consistency loop: Initialization.

          Date     :  20230125, Time     :  123100.630
------------------------------------------------------------
  | Estimated reciprocal-space cutoff momentum G_max:         3.24344278 bohr^-1 .
  | Reciprocal lattice points for long-range Hartree potential:    5310
  Using simple linear distribution as default method for k-point parallelism.
  * Using 18 tasks for Scalapack Eigenvalue solver.
  Detailed listing of tasks and assigned k-points:
   Task     0 k-point     1 on adag035
   Task     1 k-point     1 on adag035
   Task     2 k-point     1 on adag035
   Task     3 k-point     1 on adag035
   Task     4 k-point     1 on adag035
   Task     5 k-point     1 on adag035
   Task     6 k-point     1 on adag035
   Task     7 k-point     1 on adag035
   Task     8 k-point     1 on adag035
   Task     9 k-point     2 on adag035
   Task    10 k-point     2 on adag035
   Task    11 k-point     2 on adag035
   Task    12 k-point     2 on adag035
   Task    13 k-point     2 on adag035
   Task    14 k-point     2 on adag035
   Task    15 k-point     2 on adag035
   Task    16 k-point     2 on adag035
   Task    17 k-point     2 on adag035
  K-point:     1 Tasks:     9 split into      3 X      3 BLACS grid
  Calculating block size based on n_basis =         1440  max_nprow =            3  max_npcol =            3
  ScaLAPACK block size set to:           16
  Allocating        1.758 MB for ovlp
  Allocating        1.758 MB for ham
  Allocating        1.758 MB for eigenvec
  Required Scalapack workspace - INTEGER:            1  REAL:             1
  Partitioning the integration grid into batches with parallel hashing+maxmin method.
  | Number of batches:     5629
  | Maximal batch size:     200
  | Minimal batch size:      99
  | Average batch size:     135.697
  | Standard deviation of batch sizes:      31.145

  Integration load balanced across    18 MPI tasks.
  Work distribution over tasks is as follows:
  Task     0 has      42427 integration points.
  Task     1 has      42421 integration points.
  Task     2 has      42404 integration points.
  Task     3 has      42446 integration points.
  Task     4 has      42382 integration points.
  Task     5 has      42427 integration points.
  Task     6 has      42453 integration points.
  Task     7 has      42467 integration points.
  Task     8 has      42436 integration points.
  Task     9 has      42439 integration points.
  Task    10 has      42431 integration points.
  Task    11 has      42443 integration points.
  Task    12 has      42468 integration points.
  Task    13 has      42431 integration points.
  Task    14 has      42453 integration points.
  Task    15 has      42423 integration points.
  Task    16 has      42490 integration points.
  Task    17 has      42399 integration points.
  Initializing partition tables, free-atom densities, potentials, etc. across the integration grid (initialize_grid_storage).
  | initialize_grid_storage: Actual outermost partition radius vs. multipole_radius_free
  | (-- VB: in principle, multipole_radius_free should be larger, hence this output)
  | Species        1: Confinement radius =              4.999999999999999 AA, multipole_radius_free =              5.054417573612229 AA.
  | Species        1: outer_partition_radius set to              5.054417573612229 AA .
  | Species        2: Confinement radius =              4.999999999999999 AA, multipole_radius_free =              5.019602836301480 AA.
  | Species        2: outer_partition_radius set to              5.019602836301480 AA .
  | The sparse table of interatomic distances needs       7637.20 kbyte instead of     35989.13 kbyte of memory.
  | Net number of integration points:   763840
  | of which are non-zero points    :   605285
  | Numerical average free-atom electrostatic potential    :     -8.61480669 eV
  Renormalizing the initial density to the exact electron count on the 3D integration grid.
  | Initial density: Formal number of electrons (from input files) :     544.0000000000
  | Integrated number of electrons on 3D grid     :     544.0056038795
  | Charge integration error                      :       0.0056038795
  | Normalization factor for density and gradient :       0.9999896989
  Renormalizing the free-atom superposition density to the exact electron count on the 3D integration grid.
  | Formal number of electrons (from input files) :     544.0000000000
  | Integrated number of electrons on 3D grid     :     544.0056038795
  | Charge integration error                      :       0.0056038795
  | Normalization factor for density and gradient :       0.9999896989
  Obtaining max. number of non-zero basis functions in each batch (get_n_compute_maxes).
  | Maximal number of non-zero basis functions:      543 in task     0
  | Maximal number of non-zero basis functions:      524 in task     1
  | Maximal number of non-zero basis functions:      544 in task     2
  | Maximal number of non-zero basis functions:      535 in task     3
  | Maximal number of non-zero basis functions:      532 in task     4
  | Maximal number of non-zero basis functions:      540 in task     5
  | Maximal number of non-zero basis functions:      544 in task     6
  | Maximal number of non-zero basis functions:      535 in task     7
  | Maximal number of non-zero basis functions:      543 in task     8
  | Maximal number of non-zero basis functions:      538 in task     9
  | Maximal number of non-zero basis functions:      540 in task    10
  | Maximal number of non-zero basis functions:      540 in task    11
  | Maximal number of non-zero basis functions:      551 in task    12
  | Maximal number of non-zero basis functions:      546 in task    13
  | Maximal number of non-zero basis functions:      549 in task    14
  | Maximal number of non-zero basis functions:      535 in task    15
  | Maximal number of non-zero basis functions:      555 in task    16
  | Maximal number of non-zero basis functions:      528 in task    17
  Integrating Hamiltonian matrix: batch-based integration.
  GPU acceleration will be used when integrating the Hamiltonian matrix.
  Reporting GPU memory usage by myid 0.  Note that it is likely not the only MPI task binding to its GPU!
  Allocating        2.359 MB on GPU for hamiltonian_shell
  Allocating        0.869 MB on GPU for wave
  Allocating        0.002 MB on GPU for partition
  Allocating        0.869 MB on GPU for h_times_psi
  Time summed over all CPUs for integration: real work       18.870 s, elapsed       19.275 s
  Deallocating memory used on GPU for Hamiltonian integration.
  Integrating overlap matrix.
  Time summed over all CPUs for integration: real work       16.756 s, elapsed       17.055 s
  Deallocating overlap matrix.

  Updating Kohn-Sham eigenvalues and eigenvectors using ELSI and the ELPA eigensolver.
  Singularity check in k-point 1 (analysis for other k-points may follow below):
  Overlap matrix is not singular
  | Lowest and highest eigenvalues :  0.7531E-03,  0.8230E+01
  Finished singularity check of overlap matrix
  | Time :     0.096 s
  Starting ELPA eigensolver
  Finished Cholesky decomposition
  | Time :     0.015 s
  Finished transformation to standard eigenproblem
  | Time :     0.019 s
  Finished solving standard eigenproblem
  | Time :     0.215 s
  Finished back-transformation of eigenvectors
  | Time :     0.014 s

  Obtaining occupation numbers and electronic chemical potential using ELSI.
  | Note that, for insulating systems, the printed 'chemical potential' value is not uniquely defined.
  | It can be anywhere in the energy gap, as long as it correctly separates occupied and unoccupied states.
  | In systems with a gap, the physically relevant chemical potential is the VBM or HOMO.

  | Chemical potential (Fermi level):    -7.66650233 eV
  Writing Kohn-Sham eigenvalues.
  K-point:       1 at    0.000000    0.000000    0.000000 (in units of recip. lattice)

  State    Occupation    Eigenvalue [Ha]    Eigenvalue [eV]
      1       2.00000         -10.075659         -274.17262
      2       2.00000         -10.071950         -274.07171
      3       2.00000         -10.071908         -274.07055
      4       2.00000         -10.070172         -274.02333
      5       2.00000         -10.069736         -274.01146
      6       2.00000         -10.069213         -273.99722
      7       2.00000         -10.069160         -273.99579
      8       2.00000         -10.069130         -273.99496
      9       2.00000         -10.068905         -273.98885
     10       2.00000         -10.068479         -273.97726
     11       2.00000         -10.068442         -273.97624
     12       2.00000         -10.067657         -273.95489
     13       2.00000         -10.067564         -273.95235
     14       2.00000         -10.067246         -273.94370
     15       2.00000         -10.067194         -273.94230
     16       2.00000         -10.066989         -273.93672
     17       2.00000         -10.066826         -273.93227
     18       2.00000         -10.066293         -273.91776
     19       2.00000         -10.066220         -273.91578
     20       2.00000         -10.065960         -273.90871
     21       2.00000         -10.065589         -273.89862
     22       2.00000         -10.065379         -273.89290
     23       2.00000         -10.065190         -273.88775
     24       2.00000         -10.065161         -273.88697
     25       2.00000         -10.064915         -273.88026
     26       2.00000         -10.064051         -273.85676
     27       2.00000         -10.064042         -273.85651
     28       2.00000         -10.064038         -273.85642
     29       2.00000         -10.063898         -273.85259
     30       2.00000         -10.063663         -273.84622
     31       2.00000         -10.063517         -273.84223
     32       2.00000         -10.063513         -273.84212
     33       2.00000         -10.063471         -273.84099
     34       2.00000         -10.063284         -273.83589
     35       2.00000         -10.063101         -273.83091
     36       2.00000         -10.063045         -273.82938
     37       2.00000         -10.063003         -273.82825
     38       2.00000         -10.062841         -273.82384
     39       2.00000         -10.062589         -273.81697
     40       2.00000         -10.062451         -273.81322
     41       2.00000         -10.062354         -273.81059
     42       2.00000         -10.062351         -273.81051
     43       2.00000         -10.062261         -273.80806
     44       2.00000         -10.062246         -273.80764
     45       2.00000         -10.061932         -273.79910
     46       2.00000         -10.061910         -273.79851
     47       2.00000         -10.061805         -273.79563
     48       2.00000         -10.061683         -273.79232
     49       2.00000         -10.061488         -273.78702
     50       2.00000         -10.061361         -273.78356
     51       2.00000         -10.061331         -273.78273
     52       2.00000         -10.061170         -273.77837
     53       2.00000         -10.060908         -273.77123
     54       2.00000         -10.060788         -273.76796
     55       2.00000         -10.060783         -273.76783
     56       2.00000         -10.060500         -273.76013
     57       2.00000         -10.060412         -273.75774
     58       2.00000         -10.060153         -273.75070
     59       2.00000         -10.059981         -273.74601
     60       2.00000         -10.059566         -273.73471
     61       2.00000         -10.059562         -273.73461
     62       2.00000         -10.059341         -273.72858
     63       2.00000         -10.059225         -273.72544
     64       2.00000         -10.059093         -273.72184
     65       2.00000         -10.058924         -273.71726
     66       2.00000         -10.057949         -273.69071
     67       2.00000         -10.057494         -273.67835
     68       2.00000         -10.057427         -273.67652
     69       2.00000         -10.057273         -273.67232
     70       2.00000         -10.057116         -273.66805
     71       2.00000         -10.056866         -273.66124
[...]
  | charge radius: extent of product basis function
  | field radius: extent of its Coulomb potential
  | Species   l  charge radius    field radius  multipol momen
  |    H      1     3.910002 A      3.910002 A       -2.487223E-16 a.u.
  |    H      1     3.958095 A      3.958095 A       -2.441841E-16 a.u.
  |    H      0     4.527807 A      4.527807 A        1.268855E-16 a.u.
  |    H      0     4.527807 A      4.583499 A       -4.900954E-17 a.u.
  |    H      0     4.527807 A      4.583499 A        4.713786E-16 a.u.
  |    H      2     3.678162 A  1.011968E+04 A            0.556529 a.u.
  |    H      1     3.958095 A  1.721251E+06 A            0.841931 a.u.
  |    H      0     4.527807 A  3.866455E+12 A            0.581436 a.u.
  |    C      0     2.562483 A      2.562483 A        6.563029E-17 a.u.
  |    C      0     2.967371 A      2.967371 A        1.352164E-16 a.u.
  |    C      0     3.003870 A      3.003870 A        2.312640E-17 a.u.
  |    C      1     3.272245 A      3.272245 A       -3.835259E-17 a.u.
  |    C      0     3.312494 A      3.312494 A       -2.710381E-16 a.u.
  |    C      3     4.077671 A      4.077671 A       -1.683752E-15 a.u.
  |    C      3     4.077671 A      4.077671 A        1.412852E-15 a.u.
  |    C      1     4.496620 A      4.496620 A       -3.011059E-16 a.u.
  |    C      0     4.496620 A      4.551928 A        2.873903E-17 a.u.
  |    C      2     4.551928 A      4.551928 A       -4.610785E-16 a.u.
  |    C      2     4.551928 A      4.551928 A        7.440584E-16 a.u.
  |    C      2     4.551928 A      4.551928 A       -7.110458E-16 a.u.
  |    C      2     4.551928 A      4.551928 A       -1.935424E-16 a.u.
  |    C      0     4.551928 A      4.607917 A        2.067142E-16 a.u.
  |    C      0     4.551928 A      4.607917 A       -1.109786E-16 a.u.
  |    C      1     4.551928 A      4.607917 A       -9.951742E-17 a.u.
  |    C      1     4.551928 A      4.607917 A        1.937809E-16 a.u.
  |    C      1     4.607917 A      4.607917 A       -2.813308E-16 a.u.
  |    C      1     4.607917 A      4.607917 A       -7.330363E-17 a.u.
  |    C      2     4.607917 A      4.607917 A        1.318462E-15 a.u.
  |    C      2     4.607917 A      4.607917 A       -1.318397E-15 a.u.
  |    C      0     4.607917 A      4.664595 A        3.157826E-16 a.u.
  |    C      1     4.607917 A      4.664595 A        7.356967E-16 a.u.
  |    C      4     3.835889 A  2.962973E+02 A            4.379483 a.u.
  |    C      3     4.127827 A  1.725964E+03 A            9.005588 a.u.
  |    C      2     4.607917 A  2.608475E+04 A            9.531178 a.u.
  |    C      1     4.607917 A  2.736013E+06 A            2.127278 a.u.
  |    C      0     4.607917 A  4.399765E+12 A            0.661635 a.u.

  | Shrink_full_auxil_basis : there are       36  radial auxiliary wave functions
                            accepted and       7 rejected.
  | Shrink_full_auxil_basis : there are totally                8992 partial auxiliary wave functions.
 
  | Maximal number of product basis functions per thread :   512   512
 
  | Minimal total memory requirement for three-center overlap :      72.476 Gbs
  | Number of local auxiliary basis functions on task:      0   512
  | Number of local auxiliary basis functions on task:      1   512
  | Number of local auxiliary basis functions on task:      2   512
  | Number of local auxiliary basis functions on task:      3   512
  | Number of local auxiliary basis functions on task:      4   496
  | Number of local auxiliary basis functions on task:      5   496
  | Number of local auxiliary basis functions on task:      6   496
  | Number of local auxiliary basis functions on task:      7   496
  | Number of local auxiliary basis functions on task:      8   496
  | Number of local auxiliary basis functions on task:      9   496
  | Number of local auxiliary basis functions on task:     10   496
  | Number of local auxiliary basis functions on task:     11   496
  | Number of local auxiliary basis functions on task:     12   496
  | Number of local auxiliary basis functions on task:     13   496
  | Number of local auxiliary basis functions on task:     14   496
  | Number of local auxiliary basis functions on task:     15   496
  | Number of local auxiliary basis functions on task:     16   496
  | Number of local auxiliary basis functions on task:     17   496
  | 2D aux task distribution:      3 X      6
  | 2D block size (nb_aux_2d):     64
 
  Basis pair condensation :   1037520  -->     545617
 
 --------------------------------------------
  Constructing auxiliary basis (full product) ...
 
  Product basis:
  | charge radius: extent of product basis function
  | field radius: extent of its Coulomb potential
  | Species   l  charge radius    field radius  multipol momen
  |    H      1     3.910002 A      3.910002 A       -2.487223E-16 a.u.
  |    H      1     3.958095 A      3.958095 A       -2.441841E-16 a.u.
  |    H      0     4.527807 A      4.527807 A        1.268855E-16 a.u.
  |    H      0     4.527807 A      4.583499 A       -4.900954E-17 a.u.
  |    H      0     4.527807 A      4.583499 A        4.713786E-16 a.u.
  |    H      2     3.678162 A  1.011968E+04 A            0.556529 a.u.
  |    H      1     3.958095 A  1.721251E+06 A            0.841931 a.u.
  |    H      0     4.527807 A  3.866455E+12 A            0.581436 a.u.
  |    C      0     2.562483 A      2.562483 A        6.563029E-17 a.u.
  |    C      0     2.967371 A      2.967371 A        1.352164E-16 a.u.
  |    C      0     3.003870 A      3.003870 A        2.312640E-17 a.u.
  |    C      1     3.272245 A      3.272245 A       -3.835259E-17 a.u.
  |    C      0     3.312494 A      3.312494 A       -2.710381E-16 a.u.
  |    C      3     4.077671 A      4.077671 A       -1.683752E-15 a.u.
  |    C      3     4.077671 A      4.077671 A        1.412852E-15 a.u.
  |    C      1     4.496620 A      4.496620 A       -3.011059E-16 a.u.
  |    C      0     4.496620 A      4.551928 A        2.873903E-17 a.u.
  |    C      2     4.551928 A      4.551928 A       -4.610785E-16 a.u.
  |    C      2     4.551928 A      4.551928 A        7.440584E-16 a.u.
  |    C      2     4.551928 A      4.551928 A       -7.110458E-16 a.u.
  |    C      2     4.551928 A      4.551928 A       -1.935424E-16 a.u.
  |    C      0     4.551928 A      4.607917 A        2.067142E-16 a.u.
  |    C      0     4.551928 A      4.607917 A       -1.109786E-16 a.u.
  |    C      1     4.551928 A      4.607917 A       -9.951742E-17 a.u.
  |    C      1     4.551928 A      4.607917 A        1.937809E-16 a.u.
  |    C      1     4.607917 A      4.607917 A       -2.813308E-16 a.u.
  |    C      1     4.607917 A      4.607917 A       -7.330363E-17 a.u.
  |    C      2     4.607917 A      4.607917 A        1.318462E-15 a.u.
  |    C      2     4.607917 A      4.607917 A       -1.318397E-15 a.u.
  |    C      0     4.607917 A      4.664595 A        3.157826E-16 a.u.
  |    C      1     4.607917 A      4.664595 A        7.356967E-16 a.u.
  |    C      4     3.835889 A  2.962973E+02 A            4.379483 a.u.
  |    C      3     4.127827 A  1.725964E+03 A            9.005588 a.u.
  |    C      2     4.607917 A  2.608475E+04 A            9.531178 a.u.
  |    C      1     4.607917 A  2.736013E+06 A            2.127278 a.u.
  |    C      0     4.607917 A  4.399765E+12 A            0.661635 a.u.

  | Shrink_full_auxil_basis : there are       36  radial auxiliary wave functions
                            accepted and       7 rejected.
  | Shrink_full_auxil_basis : there are totally                8992 partial auxiliary wave functions.
 
  | Maximal number of product basis functions per thread :   512   512
 
  | Minimal total memory requirement for three-center overlap :      72.476 Gbs
  | Number of local auxiliary basis functions on task:      0   512
  | Number of local auxiliary basis functions on task:      1   512
  | Number of local auxiliary basis functions on task:      2   512
  | Number of local auxiliary basis functions on task:      3   512
  | Number of local auxiliary basis functions on task:      4   496
  | Number of local auxiliary basis functions on task:      5   496
  | Number of local auxiliary basis functions on task:      6   496
  | Number of local auxiliary basis functions on task:      7   496
  | Number of local auxiliary basis functions on task:      8   496
  | Number of local auxiliary basis functions on task:      9   496
  | Number of local auxiliary basis functions on task:     10   496
  | Number of local auxiliary basis functions on task:     11   496
  | Number of local auxiliary basis functions on task:     12   496
  | Number of local auxiliary basis functions on task:     13   496
  | Number of local auxiliary basis functions on task:     14   496
  | Number of local auxiliary basis functions on task:     15   496
  | Number of local auxiliary basis functions on task:     16   496
  | Number of local auxiliary basis functions on task:     17   496
  | 2D aux task distribution:      3 X      6
  | 2D block size (nb_aux_2d):     64
 
  Basis pair condensation :   1037520  -->     545617
dP_dE (Bohr^3) at every cycle:--->
 (1018.55364515512,0.000000000000000E+000) (14.7350015908199,0.000000000000000E+000) (-466.376410210247,0.000000000000000E+000)
 (14.7794770113354,0.000000000000000E+000) (1358.68107247926,0.000000000000000E+000) (-0.945311290268916,0.000000000000000E+000)
 (-466.551312410476,0.000000000000000E+000) (-0.968170078873813,0.000000000000000E+000) (1680.33302998557,0.000000000000000E+000)
DFPT polarizability (Bohr^3)        xx        yy        zz        xy        xz        yz
  | Polarizability:--->                      1018.553645155                 1358.681072479                 1680.333029986                   14.735001591                 -466.376410210                   -0.945311290

DFPT for dielectric_constant:--->  # PARSE DFPT_dielectric_tensor
               2.382155570284596             0.019995082854769            -0.632862840644250
               0.020055435051729             2.843701234097938            -0.001282767256995
              -0.633100179199222            -0.001313786145544             3.280176079458279

                                               :  max(cpu_time)    wall_clock(cpu1)
  | Time for  dielectric calculation            :        0.000 s           0.000 s
===========================================================================

------------------------------------------------------------------------------
  Final output of selected total energy values:

  The following output summarizes some interesting total energy values
  at the end of a run (AFTER all relaxation, molecular dynamics, etc.).

  | Total energy of the DFT / Hartree-Fock s.c.f. calculation      :         -83267.425405792 eV
  | Final zero-broadening corrected energy (caution - metals only) :         -83267.425405792 eV
  | For reference only, the value of 1 Hartree used in FHI-aims is :             27.211384500 eV
  | For reference only, the overall average (free atom contribution
  | + realspace contribution) of the electrostatic potential after
  | s.c.f. convergence is                                          :             -7.704545402 eV

  Before relying on these values, please be sure to understand exactly which
  total energy value is referred to by a given number. Different objects may
  all carry the same name 'total energy'. Definitions:

  Total energy of the DFT / Hartree-Fock s.c.f. calculation:
  | Note that this energy does not include ANY quantities calculated after the
  | s.c.f. cycle, in particular not ANY RPA, MP2, etc. many-body perturbation terms.

  Final zero-broadening corrected energy:
  | For metallic systems only, a broadening of the occupation numbers at the Fermi
  | level can be extrapolated back to zero broadening by an electron-gas inspired
  | formula. For all systems that are not real metals, this value can be
  | meaningless and should be avoided.

------------------------------------------------------------------------------
  Methods described in the following list of references were used in this FHI-aims run.
  If you publish the results, please make sure to cite these reference if they apply.
  FHI-aims is an academic code, and for our developers (often, Ph.D. students
  and postdocs), scientific credit in the community is essential.
  Thank you for helping us!

  For any use of FHI-aims, please cite:

    Volker Blum, Ralf Gehrke, Felix Hanke, Paula Havu, Ville Havu,
    Xinguo Ren, Karsten Reuter, and Matthias Scheffler
    'Ab initio molecular simulations with numeric atom-centered orbitals'
    Computer Physics Communications 180, 2175-2196 (2009)
    http://doi.org/10.1016/j.cpc.2009.06.022


  For Hartree-Fock, hybrid functionals, or many-body perturbation theory used in your run, please cite:

    Xinguo Ren, Patrick Rinke, Volker Blum, Juergen Wieferink, Alex Tkatchenko,
    Andrea Sanfilippo, Karsten Reuter, and Matthias Scheffler,
    'Resolution-of-identity approach to Hartree-Fock, hybrid density functionals,
    RPA, MP2, and GW with numeric atom-centered orbital basis functions'
    New Journal of Physics 14, 053020 (2012).
    http://doi.org/10.1088/1367-2630/14/5/053020


  The provided symmetry information was generated with SPGlib:

    Atsushi Togo, Yusuke Seto, Dimitar Pashov
    SPGlib 1.7.3 obtained from http://spglib.sourceforge.net
    Copyright (C) 2008 Atsushi Togo


  The DFPT (perturbation by an electric field) part of the code was used.
  Here is the corresponding reference:

    Honghui Shang, Nathaniel Raimbault, Mariana Rossi,
    Christian Carbogno, Patrick Rinke and Matthias Scheffler,
    'All-Electron, Real-Space Perturbation Theory for Homogeneous
    Electric Fields: Theory, Implementation, and Application within dft'
    New Journal of Physics, 20(7):073040, 2018


  The ELSI infrastructure was used in your run to solve the Kohn-Sham electronic structure.
  Please check out http://elsi-interchange.org to learn more.
  If scalability is important for your project, please acknowledge ELSI by citing:

    V. W-z. Yu, F. Corsetti, A. Garcia, W. P. Huhn, M. Jacquelin, W. Jia,
    B. Lange, L. Lin, J. Lu, W. Mi, A. Seifitokaldani, A. Vazquez-Mayagoitia,
    C. Yang, H. Yang, and V. Blum
    'ELSI: A unified software interface for Kohn-Sham electronic structure solvers'
    Computer Physics Communications 222, 267-285 (2018).
    http://doi.org/10.1016/j.cpc.2017.09.007


  For the real-space grid partitioning and parallelization used in this calculation, please cite:

    Ville Havu, Volker Blum, Paula Havu, and Matthias Scheffler,
    'Efficient O(N) integration for all-electron electronic structure calculation'
    'using numerically tabulated basis functions'
    Journal of Computational Physics 228, 8367-8379 (2009).
    http://doi.org/10.1016/j.jcp.2009.08.008


  The high-level electronic structure method used in your calculation
  employed our efficient localized resolution of identity for the Coulomb operator.
  Some calculations, especially large-scale hybrid density functional theory,
  are only possible thanks to this development. For this feature, please cite:

    Arvid Ihrig, Juergen Wieferink, Igor Ying Zhang, Matti Ropo, Xinguo Ren,
    Patrick Rinke, Matthias Scheffler, and Volker Blum,
    'Accurate localized resolution of identity approach for linear-scaling
    hybrid density functionals and for many-body perturbation theory'
    New Journal of Physics 117, 093020 (2015).
    http://doi.org/10.1088/1367-2630/17/9/093020

  Of course, there are many other important community references, e.g., those cited in the
  above references. Our list is limited to references that describe implementations in the
  FHI-aims code. The reason is purely practical (length of this list) - please credit others as well.

------------------------------------------------------------
          Leaving FHI-aims.
          Date     :  20230125, Time     :  125927.957

          Computational steps:
          | Number of self-consistency cycles          :           47
          | Number of SCF (re)initializations          :            1
          | Number of coupled perturbed self-consistency cycles          :            0
          | Number of CPSCF (re)initializations          :            0

          Detailed time accounting                     :  max(cpu_time)    wall_clock(cpu1)
          | Total time                                  :     1711.862 s        1727.809 s
          | GPU initialization                          :        2.336 s          14.619 s
          | Preparation time                            :        0.073 s           0.072 s
          | Boundary condition initalization            :        5.737 s           5.738 s
          | Grid partitioning                           :        1.189 s           1.189 s
          | Preloading free-atom quantities on grid     :        3.314 s           3.315 s
          | Free-atom superposition energy              :        0.469 s           0.470 s
          | Total time for integrations                 :       18.510 s          19.706 s
          | Product basis setup: Total time             :        0.000 s           0.000 s
          | Product basis: | 2-center integrations     :(       0.000 s)  (       0.000 s)
          | Product basis: | LVL 3-center & coefficient:(       0.000 s)  (       0.000 s)
          | Total time for solution of K.-S. equations  :        3.604 s           3.605 s
          | Total time for density update               :       12.807 s          14.942 s
          | Total time for mixing & preconditioning     :       11.059 s          11.063 s
          | Total time for Hartree multipole update     :        0.096 s           0.096 s
          | Total time for Hartree multipole sum        :       44.328 s          44.344 s
          | Total time for total energy evaluation      :        0.008 s           0.004 s
          | Total time for DFPT                         :     1606.245 s        1606.894 s
          | Total time first_order_DM                   :        1.883 s           1.877 s
          | Total time first_order_density              :      318.571 s         318.631 s
          | Total time first_order_potential            :      123.095 s         123.145 s
          | Total time first_order_H                    :      675.797 s         676.036 s
          | Total time solving of Sternheimer equations :        1.832 s           1.834 s
          | Total time for dielectric constant          :        0.000 s           0.000 s
          | Total time momentum matrix                  :        0.000 s           0.000 s

          GPU acceleration has been used for charge density update.
          GPU acceleration has been used for real-space Hamiltonian integration.
          Due to GPU usage, wall_clock(cpu1) will give a more reliable estimate for timings.

          Partial memory accounting:
          | Residual value for overall tracked memory usage across tasks:     0.000000 MB (should be 0.000000 MB)
          | Peak values for overall tracked memory usage:
          |   Minimum:      292.687 MB (on task  0 after allocating DFPT_pulay_mixing::pulay_mix::alphas)
          |   Maximum:      292.687 MB (on task  0 after allocating DFPT_pulay_mixing::pulay_mix::alphas)
          |   Average:      292.687 MB
          | Largest tracked array allocation:
          |   Minimum:      103.173 MB (DFPT_pulay_mixing::initialize_pulay_mixing::X_in_diffs on task  0)
          |   Maximum:      103.173 MB (DFPT_pulay_mixing::initialize_pulay_mixing::X_in_diffs on task  0)
          |   Average:      103.173 MB
          Note:  These values currently only include a subset of arrays which are explicitly tracked.
          The "true" memory usage will be greater.

          Have a nice day.
------------------------------------------------------------
