------------------------------------------------------------
          Invoking FHI-aims ...

          When using FHI-aims, please cite the following reference:

            Volker Blum, Ralf Gehrke, Felix Hanke, Paula Havu,
            Ville Havu, Xinguo Ren, Karsten Reuter, and Matthias Scheffler,
            'Ab Initio Molecular Simulations with Numeric Atom-Centered Orbitals',
            Computer Physics Communications 180, 2175-2196 (2009)

          In addition, many other developments in FHI-aims are likely important for
          your particular application. A partial list of references is given at the end of
          this file. Thank you for giving credit to the authors of these developments.

          For any questions about FHI-aims, please visit our slack channel at

            https://fhi-aims.slack.com

          and our main development and support site at

            https://aims-git.rz-berlin.mpg.de .

          The latter site, in particular, has a wiki to collect information, as well
          as an issue tracker to log discussions, suggest improvements, and report issues
          or bugs. https://aims-git.rz-berlin.mpg.de is also the main development site
          of the project and all new and updated code versions can be obtained there.
          Please send an email to aims-coordinators@fhi-berlin.mpg.de and we will add
          you to these sites. They are for you and everyone is welcome there.

------------------------------------------------------------



  Date     :  20230120, Time     :  134905.623
  Time zero on CPU 1             :   0.404076000000000E+00  s.
  Internal wall clock time zero  :           443454545.623  s.

  FHI-aims created a unique identifier for this run for later identification
  aims_uuid : 6B78680F-087E-4FBE-A6E5-448FDEED208C

  Build configuration of the current instance of FHI-aims
  -------------------------------------------------------
  FHI-aims version      : 220829
  Commit number         : 9895fc21d
  CMake host system     : Linux-5.3.18-150300.59.68-default
  CMake version         : 3.17.0
  Fortran compiler      : /mpcdf/soft/SLE_15/packages/x86_64/intel_oneapi/2021.3/mpi/2021.3.0/bin/mpiifort (Intel) version 20.2.3.20210609
  Fortran compiler flags: -O3 -ip -fp-model precise
  C compiler            : /mpcdf/soft/SLE_15/packages/x86_64/intel/2021.3.0/bin/icc (Intel) version 20.2.3.20210609
  C compiler flags      : -O3 -ip -fp-model precise -std=gnu99
  CUDA compiler         : /mpcdf/soft/SLE_15/packages/x86_64/cuda/11.6.2/bin/nvcc
  CUDA compiler flags   : -O3 -DAdd_ -lcublas
  ELPA2 kernel          : AVX512
  Using MPI
  Using ScaLAPACK
  Using LibXC
  Using CUDA
  Using i-PI
  Using RLSY
  Linking against: /mpcdf/soft/SLE_15/packages/x86_64/cuda/11.6.2/lib64/libcublas.so
                   /mpcdf/soft/SLE_15/packages/x86_64/cuda/11.6.2/lib64/libcudart.so
                   /mpcdf/soft/SLE_15/packages/x86_64/intel_oneapi/2021.3/mkl/latest/lib/intel64/libmkl_intel_lp64.so
                   /mpcdf/soft/SLE_15/packages/x86_64/intel_oneapi/2021.3/mkl/latest/lib/intel64/libmkl_sequential.so
                   /mpcdf/soft/SLE_15/packages/x86_64/intel_oneapi/2021.3/mkl/latest/lib/intel64/libmkl_core.so
                   /mpcdf/soft/SLE_15/packages/x86_64/intel_oneapi/2021.3/mkl/latest/lib/intel64/libmkl_blacs_intelmpi_lp64.so
                   /mpcdf/soft/SLE_15/packages/x86_64/intel_oneapi/2021.3/mkl/latest/lib/intel64/libmkl_scalapack_lp64.so

  Using       18 parallel tasks.
  Task        0 on host adag004 reporting.
  Task        1 on host adag004 reporting.
  Task        2 on host adag004 reporting.
  Task        3 on host adag004 reporting.
  Task        4 on host adag004 reporting.
  Task        5 on host adag004 reporting.
  Task        6 on host adag004 reporting.
  Task        7 on host adag004 reporting.
  Task        8 on host adag004 reporting.
  Task        9 on host adag004 reporting.
  Task       10 on host adag004 reporting.
  Task       11 on host adag004 reporting.
  Task       12 on host adag004 reporting.
  Task       13 on host adag004 reporting.
  Task       14 on host adag004 reporting.
  Task       15 on host adag004 reporting.
  Task       16 on host adag004 reporting.
  Task       17 on host adag004 reporting.

  Performing system and environment tests:
  | Environment variable OMP_NUM_THREADS correctly set to 1.
  | Checking for ScaLAPACK...
  | Testing pdtran()...
  | All pdtran() tests passed.

  Obtaining array dimensions for all initial allocations:
  
  -----------------------------------------------------------------------
  Parsing control.in (first pass over file, find array dimensions only).
  The contents of control.in will be repeated verbatim below
  unless switched off by setting 'verbatim_writeout .false.' .
  in the first line of control.in .
  -----------------------------------------------------------------------
  
  #
  # Input for polarizability replays on generic oligoacene molecular crystals (light settings,  LDA+MBD).
  #
  #########################################################################################
  #
  #  Physical model
  #
    xc                 pw-lda
    spin               none
    relativistic       none
    charge             0.0
    k_grid 	     2 1 1
    DFPT dielectric
  #
  #  GPU acceleration
  #
  # Turns on GPU acceleration everywhere
    use_gpu
  
  # Turns OFF GPU acceleration of ELPA - may be necessary if GPU ELPA is slow
    elsi_elpa_gpu 0
  #
  #  Relaxation
  #
  #  relax_geometry trm 1E-3
  #  relax_unit_cell fixed_angles
  #
  #  SCF convergence        #
    charge_mix_param   0.75
    #sc_accuracy_rho 1E-4
  #
  # i-PI communication
  #
  compute_forces .false.
  # use_pimd_wrapper 130.183.223.27 26118
  #communicate_pimd_wrapper polarizability
  #output_level MD_light
  #
  # Output SALTED info
    ri_density_restart write
    ri_rho1 write
    ri_full_output .true.
  #  sc_accuracy_rho    1d-6
    default_prodbas_acc 1e-6
    default_max_l_prodbas 6
  #
  #
  ################################################################################
  #
  #  FHI-aims code project
  #  VB, Fritz-Haber Institut, 2009
  #
  #  Suggested "light" defaults for H atom (to be pasted into control.in file)
  #  Be sure to double-check any results obtained with these settings for post-processing,
  #  e.g., with the "tight" defaults and larger basis sets.
  #
  ################################################################################
    species        H
  #     global species definitions
      nucleus             1
      mass                1.00794
  #
      l_hartree           4
  #
      cut_pot             3.5  1.5  1.0
      basis_dep_cutoff    1e-4
  #
      radial_base         24 5.0
      radial_multiplier   1
      angular_grids       specified
        division   0.2421   50
        division   0.3822  110
        division   0.4799  194
        division   0.5341  302
  #      division   0.5626  434
  #      division   0.5922  590
  #      division   0.6542  770
  #      division   0.6868 1202
  #      outer_grid  770
        outer_grid  302
  ################################################################################
  #
  #  Definition of "minimal" basis
  #
  ################################################################################
  #     valence basis states
      valence      1  s   1.
  #     ion occupancy
      ion_occ      1  s   0.5
  ################################################################################
  #
  #  Suggested additional basis functions. For production calculations,
  #  uncomment them one after another (the most important basis functions are
  #  listed first).
  #
  #  Basis constructed for dimers: 0.5 A, 0.7 A, 1.0 A, 1.5 A, 2.5 A
  #
  ################################################################################
  #  "First tier" - improvements: -1014.90 meV to -62.69 meV
       hydro 2 s 2.1
       hydro 2 p 3.5
  #  "Second tier" - improvements: -12.89 meV to -1.83 meV
  #     hydro 1 s 0.85
  #     hydro 2 p 3.7
  #     hydro 2 s 1.2
  #     hydro 3 d 7
  #  "Third tier" - improvements: -0.25 meV to -0.12 meV
  #     hydro 4 f 11.2
  #     hydro 3 p 4.8
  #     hydro 4 d 9
  #     hydro 3 s 3.2
  ################################################################################
  ################################################################################
  #
  #  FHI-aims code project
  #  VB, Fritz-Haber Institut, 2009
  #
  #  Suggested "light" defaults for C atom (to be pasted into control.in file)
  #  Be sure to double-check any results obtained with these settings for post-processing,
  #  e.g., with the "tight" defaults and larger basis sets.
  #
  ################################################################################
    species        C
  #     global species definitions
      nucleus             6
      mass                12.0107
  #
      l_hartree           4
  #
      cut_pot             3.5  1.5  1.0
      basis_dep_cutoff    1e-4
  #
      radial_base         34 5.0
      radial_multiplier   1
      angular_grids specified
        division   0.3326   50
        division   0.5710  110
        division   0.7727  194
        division   0.8772  302
  #      division   0.9334  434
  #      division   0.9625  590
  #      division   0.9924  770
  #      division   1.0230  974
  #      division   1.4589 1202
  #     outer_grid  974
       outer_grid 302
  ################################################################################
  #
  #  Definition of "minimal" basis
  #
  ################################################################################
  #     valence basis states
      valence      2  s   2.
      valence      2  p   2.
  #     ion occupancy
      ion_occ      2  s   1.
      ion_occ      2  p   1.
  ################################################################################
  #
  #  Suggested additional basis functions. For production calculations,
  #  uncomment them one after another (the most important basis functions are
  #  listed first).
  #
  #  Constructed for dimers: 1.0 A, 1.25 A, 1.5 A, 2.0 A, 3.0 A
  #
  ################################################################################
  #  "First tier" - improvements: -1214.57 meV to -155.61 meV
       hydro 2 p 1.7
       hydro 3 d 6
       hydro 2 s 4.9
  #  "Second tier" - improvements: -67.75 meV to -5.23 meV
  #     hydro 4 f 9.8
  #     hydro 3 p 5.2
  #     hydro 3 s 4.3
  #     hydro 5 g 14.4
  #     hydro 3 d 6.2
  #  "Third tier" - improvements: -2.43 meV to -0.60 meV
  #     hydro 2 p 5.6
  #     hydro 2 s 1.4
  #     hydro 3 d 4.9
  #     hydro 4 f 11.2
  #  "Fourth tier" - improvements: -0.39 meV to -0.18 meV
  #     hydro 2 p 2.1
  #     hydro 5 g 16.4
  #     hydro 4 d 13.2
  #     hydro 3 s 13.6
  #     hydro 4 f 17.6
  #  Further basis functions - improvements: -0.08 meV and below
  #     hydro 3 s 2
  #     hydro 3 p 6
  #     hydro 4 d 20
  
  -----------------------------------------------------------------------
  Completed first pass over input file control.in .
  -----------------------------------------------------------------------
  
  
  -----------------------------------------------------------------------
  Parsing geometry.in (first pass over file, find array dimensions only).
  The contents of geometry.in will be repeated verbatim below
  unless switched off by setting 'verbatim_writeout .false.' .
  in the first line of geometry.in .
  -----------------------------------------------------------------------
  
  #=======================================================
  # FHI-aims file: /ada/ptmp/mpsd/alewis/naphthalene/qmdata/data/geoms/461.in
  # Created using the Atomic Simulation Environment (ASE)
  # Thu Jan 19 15:19:17 2023
  #=======================================================
  lattice_vector 8.1020000000000003 0.0000000000000000 0.0000000000000000
  lattice_vector 0.0000000000000000 11.8800000000000008 0.0000000000000000
  lattice_vector -9.7850918486534706 0.0000000000000000 14.2571119625755713
  atom -0.8177990000000001 0.0720925000000000 2.3582399999999999 C
  atom 0.1908290000000000 3.0467800000000000 4.7940399999999999 C
  atom 4.2702600000000004 5.8350099999999996 4.7860600000000000 C
  atom 3.2454600000000000 2.8503599999999998 2.5416699999999999 C
  atom 0.0479955000000000 0.9213470000000000 1.6804800000000000 C
  atom -0.5774319999999999 3.9434700000000000 5.5407000000000002 C
  atom 3.4173800000000001 4.9619999999999997 5.4805700000000002 C
  atom 4.0478899999999998 2.0412599999999999 1.8049400000000000 C
  atom 0.3945390000000000 0.6491200000000000 0.3406010000000000 C
  atom -1.0270999999999999 3.6224599999999998 6.8437400000000004 C
  atom 3.1111900000000001 5.2830800000000000 6.8293600000000003 C
  atom 4.4079899999999999 2.3602900000000000 0.4756270000000000 C
  atom -3.8395100000000002 1.4734499999999999 6.5265199999999997 C
  atom 3.1393000000000000 4.4739599999999999 0.7261550000000000 C
  atom 7.2221799999999998 4.4607400000000004 0.5501220000000000 C
  atom 0.1077140000000000 1.4404900000000000 6.6150900000000004 C
  atom -3.4401600000000001 1.0016000000000000 5.3022099999999996 C
  atom 2.7967700000000000 4.0930600000000004 2.0241500000000001 C
  atom 6.9256799999999998 4.8256300000000003 1.8314900000000001 C
  atom 0.5509910000000000 1.7912800000000000 5.3543200000000004 C
  atom -1.2192099999999999 0.3078440000000000 3.3284500000000001 H
  atom 0.4867050000000000 3.3864700000000001 3.8075500000000000 H
  atom 4.5491200000000003 5.5144099999999998 3.7730399999999999 H
  atom 3.0095700000000001 2.5962600000000000 3.5780200000000000 H
  atom 0.3891040000000000 1.8861300000000001 2.0962900000000002 H
  atom -0.7839650000000000 4.9451099999999997 5.1781800000000002 H
  atom 3.0152399999999999 4.0647500000000001 5.0364699999999996 H
  atom 4.4172799999999999 1.0996699999999999 2.2161800000000000 H
  atom -3.4433699999999998 2.4204599999999998 6.8475700000000002 H
  atom 2.8024200000000001 5.4332500000000001 0.3276190000000000 H
  atom 6.8965600000000000 3.4778400000000000 0.1614210000000000 H
  atom 0.4204400000000000 0.5110450000000000 7.0697900000000002 H
  atom -2.7710400000000002 1.5752699999999999 4.6750499999999997 H
  atom 2.1758199999999999 4.7372199999999998 2.6521200000000000 H
  atom 6.3069400000000000 4.1932000000000000 2.4655800000000001 H
  atom 1.1396700000000000 1.0511800000000000 4.8030799999999996 H
  atom -5.6877000000000004 0.3337300000000000 9.5825099999999992 C
  atom -4.7008999999999999 3.1305499999999999 12.0364000000000004 C
  atom -0.5871530000000000 5.7938499999999999 11.9027999999999992 C
  atom -1.8820100000000000 2.9027799999999999 9.4112299999999998 C
  atom -4.9589400000000001 1.1336999999999999 8.7184399999999993 C
  atom -5.5255700000000001 3.9577399999999998 12.7817000000000007 C
  atom -1.3405899999999999 4.9558299999999997 12.6729000000000003 C
  atom -1.1344600000000000 1.9832300000000000 8.6842900000000007 C
  atom -4.6422999999999996 0.7033730000000000 7.3923399999999999 C
  atom -5.8567999999999998 3.6175500000000000 14.1501999999999999 C
  atom -1.7845500000000001 5.3106999999999998 13.9929000000000006 C
  atom -0.6793200000000000 2.3289499999999999 7.3863599999999998 C
  atom -8.6177600000000005 1.5717099999999999 13.8002000000000002 C
  atom -1.7749800000000000 4.5560600000000004 7.6246000000000000 C
  atom 2.2158699999999998 4.4137100000000000 7.6098900000000000 C
  atom -4.5522200000000002 1.5071900000000000 13.9131000000000000 C
  atom -8.2399000000000004 1.2035700000000000 12.5206000000000000 C
  atom -2.1905999999999999 4.1552300000000004 8.8634299999999993 C
  atom 1.9124900000000000 4.7463300000000004 8.8971599999999995 C
  atom -4.2504999999999997 1.8914700000000000 12.6006000000000000 C
  atom -5.8705400000000001 0.7041950000000000 10.5944000000000003 H
  atom -4.4050500000000001 3.4343300000000001 11.0065000000000008 H
  atom -0.3760150000000000 5.5018000000000002 10.8597000000000001 H
  atom -2.1779899999999999 2.6508900000000000 10.4176000000000002 H
  atom -4.5769399999999996 2.1054800000000000 9.0065899999999992 H
  atom -5.9029100000000003 4.9341400000000002 12.4280000000000008 H
  atom -1.7640000000000000 4.0507999999999997 12.2545999999999999 H
  atom -0.8236380000000000 1.0433100000000000 9.1181400000000004 H
  atom -8.4035899999999994 2.5271699999999999 14.2500999999999998 H
  atom -2.1021000000000001 5.5176699999999999 7.2543100000000003 H
  atom 1.7997000000000001 3.5103000000000000 7.1118800000000002 H
  atom -4.2250600000000000 0.5359060000000000 14.2780000000000005 H
  atom -7.6650299999999998 1.8472400000000000 11.8520000000000003 H
  atom -2.8636900000000001 4.8431199999999999 9.4242399999999993 H
  atom 1.2738799999999999 4.0789299999999997 9.4426600000000001 H
  atom -3.7047800000000000 1.1834199999999999 11.9809999999999999 H
  atom -0.6650160000000001 6.0379500000000004 2.3661900000000000 C
  atom 0.1699830000000000 8.9885400000000004 4.8461200000000000 C
  atom 4.2244200000000003 11.5785000000000000 4.8904300000000003 C
  atom 3.4170500000000001 8.7265200000000007 2.5310899999999998 C
  atom 0.0740036000000000 6.9261999999999997 1.6138999999999999 C
  atom -0.6173210000000000 9.8327000000000009 5.5923200000000000 C
  atom 3.4465900000000000 10.7982999999999993 5.7119799999999996 C
  atom 4.2083899999999996 7.9483699999999997 1.6883100000000000 C
  atom 0.3674520000000000 6.5785900000000002 0.2590790000000000 C
  atom -0.9832460000000000 9.5362799999999996 6.9317500000000001 C
  atom 3.0607500000000001 11.2582000000000004 7.0147700000000004 C
  atom 4.4578499999999996 8.3069500000000005 0.3677410000000000 C
  atom -3.7447699999999999 7.4001400000000004 6.6612600000000004 C
  atom 3.1183999999999998 10.3356999999999992 0.7216050000000001 C
  atom 7.2884500000000001 10.4163999999999994 0.4987160000000000 C
  atom 0.1599960000000000 7.3875099999999998 6.6649599999999998 C
  atom -3.3620999999999999 7.0437200000000004 5.3892600000000002 C
  atom 2.8687399999999998 9.9116900000000001 2.0352999999999999 C
  atom 6.8208599999999997 10.7563999999999993 1.7438800000000001 C
  atom 0.5457140000000000 7.7491399999999997 5.3887999999999998 C
  atom -0.8982730000000000 6.3046400000000000 3.4028000000000000 H
  atom 0.4455500000000000 9.2132600000000000 3.8149600000000001 H
  atom 4.5274599999999996 11.2314000000000007 3.8870800000000001 H
  atom 3.2295699999999998 8.3737200000000005 3.5366599999999999 H
  atom 0.3757170000000000 7.9235899999999999 2.0225499999999998 H
  atom -0.8810840000000000 10.8097999999999992 5.2098100000000001 H
  atom 3.0715900000000000 9.8394200000000005 5.4119099999999998 H
  atom 4.6227400000000003 6.9912700000000001 2.0566900000000001 H
  atom -3.5380500000000001 8.4029500000000006 7.0855800000000002 H
  atom 2.6435000000000000 11.2500000000000000 0.3120980000000000 H
  atom 6.9242999999999997 9.4906600000000001 0.0366010000000000 H
  atom 0.5513690000000000 6.4638999999999998 7.0828899999999999 H
  atom -2.7338600000000000 7.7331000000000003 4.8142100000000001 H
  atom 2.2467600000000001 10.5534999999999997 2.6290000000000000 H
  atom 6.1166900000000002 10.1046999999999993 2.2329300000000001 H
  atom 1.1832900000000000 7.0587200000000001 4.8146000000000004 H
  atom -5.7346500000000002 5.9217300000000002 9.5105000000000004 C
  atom -4.9150000000000000 9.0265100000000000 11.8900000000000006 C
  atom -0.5436640000000000 11.8680000000000003 11.9779000000000000 C
  atom -1.7778300000000000 8.8008299999999995 9.5055599999999991 C
  atom -4.9449100000000001 6.7863400000000000 8.7696500000000004 C
  atom -5.6130800000000001 9.8869299999999996 12.7370000000000001 C
  atom -1.3459700000000001 10.9916999999999998 12.6780000000000008 C
  atom -1.0206800000000000 7.9309500000000002 8.7920099999999994 C
  atom -4.5472500000000000 6.4846300000000001 7.4234099999999996 C
  atom -5.8694800000000003 9.5476500000000009 14.1051000000000002 C
  atom -1.7076199999999999 11.3081999999999994 14.0126000000000008 C
  atom -0.5786990000000000 8.2775400000000001 7.4874400000000003 C
  atom -8.6737699999999993 7.4487399999999999 13.6818000000000008 C
  atom -1.8313699999999999 10.4077000000000002 7.6946899999999996 C
  atom 2.3461799999999999 10.4452999999999996 7.9262199999999998 C
  atom -4.6102100000000004 7.4528299999999996 13.6979000000000006 C
  atom -8.2765799999999992 7.0329400000000000 12.4473000000000003 C
  atom -2.1973799999999999 10.0573999999999995 8.9587400000000006 C
  atom 2.0422400000000001 10.9169000000000000 9.1937099999999994 C
  atom -4.4012599999999997 7.8070500000000003 12.3924000000000003 C
  atom -5.9376899999999999 6.1683800000000000 10.5687999999999995 H
  atom -4.6708900000000000 9.3652800000000003 10.8741000000000003 H
  atom -0.2879250000000000 11.6599000000000004 10.9686000000000003 H
  atom -2.0791599999999999 8.5444700000000005 10.5335999999999999 H
  atom -4.5063399999999998 7.7034700000000003 9.1930499999999995 H
  atom -5.9448600000000003 10.8705999999999996 12.3887999999999998 H
  atom -1.7233000000000001 10.0784000000000002 12.2241000000000000 H
  atom -0.7581639999999999 6.9288200000000000 9.2185900000000007 H
  atom -8.3641500000000004 8.4167299999999994 14.0573999999999995 H
  atom -2.2001100000000000 11.3468000000000000 7.2556900000000004 H
  atom 2.0489299999999999 9.4253000000000000 7.6874900000000004 H
  atom -4.2477099999999997 6.5019400000000003 14.0838999999999999 H
  atom -7.6764099999999997 7.7205599999999999 11.8248999999999995 H
  atom -2.9522499999999998 10.6580999999999992 9.4610599999999998 H
  atom 1.4956000000000000 10.2791999999999994 9.8889499999999995 H
  atom -3.8351500000000001 7.1139200000000002 11.7714999999999996 H
  
  -----------------------------------------------------------------------
  Completed first pass over input file geometry.in .
  -----------------------------------------------------------------------
  

  Basic array size parameters:
  | Number of species                 :        2
  | Number of atoms                   :      144
  | Number of lattice vectors         :        3
  | Max. basis fn. angular momentum   :        2
  | Max. atomic/ionic basis occupied n:        2
  | Max. number of basis fn. types    :        2
  | Max. radial fns per species/type  :        3
  | Max. logarithmic grid size        :     1277
  | Max. radial integration grid size :       34
  | Max. angular integration grid size:      302
  | Max. angular grid division number :        8
  | Radial grid for Hartree potential :     1277
  | Number of spin channels           :        1

------------------------------------------------------------
          Reading file control.in.
------------------------------------------------------------
  XC: Using Perdew-Wang parametrisation of Ceperley-Alder LDA.
  Spin treatment: No spin polarisation.
  Non-relativistic treatment of kinetic energy.
  Charge =   0.000000E+00: Neutral system requested explicitly.
  Found k-point grid:         2         1         1
  DFPT calculation will begin after the DFT/HF calculation.
  Charge density mixing - mixing parameter:     0.7500
  Forces will not be computed.
 
  Reading configuration options for species H                   .
  | Found nuclear charge :   1.0000
  | Found atomic mass :    1.00794000000000      amu
  | Found l_max for Hartree potential  :   4
  | Found cutoff potl. onset [A], width [A], scale factor :    3.50000    1.50000    1.00000
  | Threshold for basis-dependent cutoff potential is   0.100000E-03
  | Found data for basic radial integration grid :    24 points, outermost radius =    5.000 A
  | Found multiplier for basic radial grid :   1
  | Found angular grid specification: user-specified.
  | Specified grid contains     5 separate shells.
  | Check grid settings after all constraints further below.
  | Found free-atom valence shell :  1 s   1.000
  | No ionic wave fns used. Skipping ion_occ.
  | Found hydrogenic basis function :  2 s   2.100
  | Found hydrogenic basis function :  2 p   3.500
  Species H                   : Missing cutoff potential type.
  Defaulting to exp(1/x)/(1-x)^2 type cutoff potential.
  Species H : No 'logarithmic' tag. Using default grid for free atom:
  | Default logarithmic grid data [bohr] : 0.1000E-03 0.1000E+03 0.1012E+01
  Species H : On-site basis accuracy parameter (for Gram-Schmidt orthonormalisation) not specified.
  Using default value basis_acc =  0.1000000E-03.
  Species H                   : Using default innermost maximum threshold i_radial=  2 for radial functions.
  Species H                   : Default cutoff onset for free atom density etc. : 0.35000000E+01 AA.
  Species H                   : Basic radial grid will be enhanced according to radial_multiplier =   1, to contain    24 grid points.
 
  Reading configuration options for species C                   .
  | Found nuclear charge :   6.0000
  | Found atomic mass :    12.0107000000000      amu
  | Found l_max for Hartree potential  :   4
  | Found cutoff potl. onset [A], width [A], scale factor :    3.50000    1.50000    1.00000
  | Threshold for basis-dependent cutoff potential is   0.100000E-03
  | Found data for basic radial integration grid :    34 points, outermost radius =    5.000 A
  | Found multiplier for basic radial grid :   1
  | Found angular grid specification: user-specified.
  | Specified grid contains     5 separate shells.
  | Check grid settings after all constraints further below.
  | Found free-atom valence shell :  2 s   2.000
  | Found free-atom valence shell :  2 p   2.000
  | No ionic wave fns used. Skipping ion_occ.
  | No ionic wave fns used. Skipping ion_occ.
  | Found hydrogenic basis function :  2 p   1.700
  | Found hydrogenic basis function :  3 d   6.000
  | Found hydrogenic basis function :  2 s   4.900
  Species C                   : Missing cutoff potential type.
  Defaulting to exp(1/x)/(1-x)^2 type cutoff potential.
  Species C : No 'logarithmic' tag. Using default grid for free atom:
  | Default logarithmic grid data [bohr] : 0.1000E-03 0.1000E+03 0.1012E+01
  Species C : On-site basis accuracy parameter (for Gram-Schmidt orthonormalisation) not specified.
  Using default value basis_acc =  0.1000000E-03.
  Species C                   : Using default innermost maximum threshold i_radial=  2 for radial functions.
  Species C                   : Default cutoff onset for free atom density etc. : 0.35000000E+01 AA.
  Species C                   : Basic radial grid will be enhanced according to radial_multiplier =   1, to contain    34 grid points.
 
  Finished reading input file 'control.in'.
 
------------------------------------------------------------


------------------------------------------------------------
          Reading geometry description geometry.in.
------------------------------------------------------------
  | The smallest distance between any two atoms is         1.06178837 AA.
  | The first atom of this pair is atom number                    111 .
  | The second atom of this pair is atom number                   131 .
  | Wigner-Seitz cell of the first atom image           0     0     0 .
  | (The Wigner-Seitz cell of the second atom is 0 0 0  by definition.)

  Symmetry information by spglib:
  | Precision set to  0.1E-04
  | Number of Operations  : 1
  | Space group           : 1
  | International         : P1
  | Schoenflies           : C1^1
  Input structure read successfully.
  The structure contains      144 atoms,  and a total of        544.000 electrons.

  Input geometry:
  | Unit cell:
  |        8.10200000        0.00000000        0.00000000
  |        0.00000000       11.88000000        0.00000000
  |       -9.78509185        0.00000000       14.25711196
  | Atomic structure:
  |       Atom                x [A]            y [A]            z [A]
  |    1: Species C            -0.81779900        0.07209250        2.35824000
  |    2: Species C             0.19082900        3.04678000        4.79404000
  |    3: Species C             4.27026000        5.83501000        4.78606000
  |    4: Species C             3.24546000        2.85036000        2.54167000
  |    5: Species C             0.04799550        0.92134700        1.68048000
  |    6: Species C            -0.57743200        3.94347000        5.54070000
  |    7: Species C             3.41738000        4.96200000        5.48057000
  |    8: Species C             4.04789000        2.04126000        1.80494000
  |    9: Species C             0.39453900        0.64912000        0.34060100
  |   10: Species C            -1.02710000        3.62246000        6.84374000
  |   11: Species C             3.11119000        5.28308000        6.82936000
  |   12: Species C             4.40799000        2.36029000        0.47562700
  |   13: Species C            -3.83951000        1.47345000        6.52652000
  |   14: Species C             3.13930000        4.47396000        0.72615500
  |   15: Species C             7.22218000        4.46074000        0.55012200
  |   16: Species C             0.10771400        1.44049000        6.61509000
  |   17: Species C            -3.44016000        1.00160000        5.30221000
  |   18: Species C             2.79677000        4.09306000        2.02415000
  |   19: Species C             6.92568000        4.82563000        1.83149000
  |   20: Species C             0.55099100        1.79128000        5.35432000
  |   21: Species H            -1.21921000        0.30784400        3.32845000
  |   22: Species H             0.48670500        3.38647000        3.80755000
  |   23: Species H             4.54912000        5.51441000        3.77304000
  |   24: Species H             3.00957000        2.59626000        3.57802000
  |   25: Species H             0.38910400        1.88613000        2.09629000
  |   26: Species H            -0.78396500        4.94511000        5.17818000
  |   27: Species H             3.01524000        4.06475000        5.03647000
  |   28: Species H             4.41728000        1.09967000        2.21618000
  |   29: Species H            -3.44337000        2.42046000        6.84757000
  |   30: Species H             2.80242000        5.43325000        0.32761900
  |   31: Species H             6.89656000        3.47784000        0.16142100
  |   32: Species H             0.42044000        0.51104500        7.06979000
  |   33: Species H            -2.77104000        1.57527000        4.67505000
  |   34: Species H             2.17582000        4.73722000        2.65212000
  |   35: Species H             6.30694000        4.19320000        2.46558000
  |   36: Species H             1.13967000        1.05118000        4.80308000
  |   37: Species C            -5.68770000        0.33373000        9.58251000
  |   38: Species C            -4.70090000        3.13055000       12.03640000
  |   39: Species C            -0.58715300        5.79385000       11.90280000
  |   40: Species C            -1.88201000        2.90278000        9.41123000
  |   41: Species C            -4.95894000        1.13370000        8.71844000
  |   42: Species C            -5.52557000        3.95774000       12.78170000
  |   43: Species C            -1.34059000        4.95583000       12.67290000
  |   44: Species C            -1.13446000        1.98323000        8.68429000
  |   45: Species C            -4.64230000        0.70337300        7.39234000
  |   46: Species C            -5.85680000        3.61755000       14.15020000
  |   47: Species C            -1.78455000        5.31070000       13.99290000
  |   48: Species C            -0.67932000        2.32895000        7.38636000
  |   49: Species C            -8.61776000        1.57171000       13.80020000
  |   50: Species C            -1.77498000        4.55606000        7.62460000
  |   51: Species C             2.21587000        4.41371000        7.60989000
  |   52: Species C            -4.55222000        1.50719000       13.91310000
  |   53: Species C            -8.23990000        1.20357000       12.52060000
  |   54: Species C            -2.19060000        4.15523000        8.86343000
  |   55: Species C             1.91249000        4.74633000        8.89716000
  |   56: Species C            -4.25050000        1.89147000       12.60060000
  |   57: Species H            -5.87054000        0.70419500       10.59440000
  |   58: Species H            -4.40505000        3.43433000       11.00650000
  |   59: Species H            -0.37601500        5.50180000       10.85970000
  |   60: Species H            -2.17799000        2.65089000       10.41760000
  |   61: Species H            -4.57694000        2.10548000        9.00659000
  |   62: Species H            -5.90291000        4.93414000       12.42800000
  |   63: Species H            -1.76400000        4.05080000       12.25460000
  |   64: Species H            -0.82363800        1.04331000        9.11814000
  |   65: Species H            -8.40359000        2.52717000       14.25010000
  |   66: Species H            -2.10210000        5.51767000        7.25431000
  |   67: Species H             1.79970000        3.51030000        7.11188000
  |   68: Species H            -4.22506000        0.53590600       14.27800000
  |   69: Species H            -7.66503000        1.84724000       11.85200000
  |   70: Species H            -2.86369000        4.84312000        9.42424000
  |   71: Species H             1.27388000        4.07893000        9.44266000
  |   72: Species H            -3.70478000        1.18342000       11.98100000
  |   73: Species C            -0.66501600        6.03795000        2.36619000
  |   74: Species C             0.16998300        8.98854000        4.84612000
  |   75: Species C             4.22442000       11.57850000        4.89043000
  |   76: Species C             3.41705000        8.72652000        2.53109000
  |   77: Species C             0.07400360        6.92620000        1.61390000
  |   78: Species C            -0.61732100        9.83270000        5.59232000
  |   79: Species C             3.44659000       10.79830000        5.71198000
  |   80: Species C             4.20839000        7.94837000        1.68831000
  |   81: Species C             0.36745200        6.57859000        0.25907900
  |   82: Species C            -0.98324600        9.53628000        6.93175000
  |   83: Species C             3.06075000       11.25820000        7.01477000
  |   84: Species C             4.45785000        8.30695000        0.36774100
  |   85: Species C            -3.74477000        7.40014000        6.66126000
  |   86: Species C             3.11840000       10.33570000        0.72160500
  |   87: Species C             7.28845000       10.41640000        0.49871600
  |   88: Species C             0.15999600        7.38751000        6.66496000
  |   89: Species C            -3.36210000        7.04372000        5.38926000
  |   90: Species C             2.86874000        9.91169000        2.03530000
  |   91: Species C             6.82086000       10.75640000        1.74388000
  |   92: Species C             0.54571400        7.74914000        5.38880000
  |   93: Species H            -0.89827300        6.30464000        3.40280000
  |   94: Species H             0.44555000        9.21326000        3.81496000
  |   95: Species H             4.52746000       11.23140000        3.88708000
  |   96: Species H             3.22957000        8.37372000        3.53666000
  |   97: Species H             0.37571700        7.92359000        2.02255000
  |   98: Species H            -0.88108400       10.80980000        5.20981000
  |   99: Species H             3.07159000        9.83942000        5.41191000
  |  100: Species H             4.62274000        6.99127000        2.05669000
  |  101: Species H            -3.53805000        8.40295000        7.08558000
  |  102: Species H             2.64350000       11.25000000        0.31209800
  |  103: Species H             6.92430000        9.49066000        0.03660100
  |  104: Species H             0.55136900        6.46390000        7.08289000
  |  105: Species H            -2.73386000        7.73310000        4.81421000
  |  106: Species H             2.24676000       10.55350000        2.62900000
  |  107: Species H             6.11669000       10.10470000        2.23293000
  |  108: Species H             1.18329000        7.05872000        4.81460000
  |  109: Species C            -5.73465000        5.92173000        9.51050000
  |  110: Species C            -4.91500000        9.02651000       11.89000000
  |  111: Species C            -0.54366400       11.86800000       11.97790000
  |  112: Species C            -1.77783000        8.80083000        9.50556000
  |  113: Species C            -4.94491000        6.78634000        8.76965000
  |  114: Species C            -5.61308000        9.88693000       12.73700000
  |  115: Species C            -1.34597000       10.99170000       12.67800000
  |  116: Species C            -1.02068000        7.93095000        8.79201000
  |  117: Species C            -4.54725000        6.48463000        7.42341000
  |  118: Species C            -5.86948000        9.54765000       14.10510000
  |  119: Species C            -1.70762000       11.30820000       14.01260000
  |  120: Species C            -0.57869900        8.27754000        7.48744000
  |  121: Species C            -8.67377000        7.44874000       13.68180000
  |  122: Species C            -1.83137000       10.40770000        7.69469000
  |  123: Species C             2.34618000       10.44530000        7.92622000
  |  124: Species C            -4.61021000        7.45283000       13.69790000
  |  125: Species C            -8.27658000        7.03294000       12.44730000
  |  126: Species C            -2.19738000       10.05740000        8.95874000
  |  127: Species C             2.04224000       10.91690000        9.19371000
  |  128: Species C            -4.40126000        7.80705000       12.39240000
  |  129: Species H            -5.93769000        6.16838000       10.56880000
  |  130: Species H            -4.67089000        9.36528000       10.87410000
  |  131: Species H            -0.28792500       11.65990000       10.96860000
  |  132: Species H            -2.07916000        8.54447000       10.53360000
  |  133: Species H            -4.50634000        7.70347000        9.19305000
  |  134: Species H            -5.94486000       10.87060000       12.38880000
  |  135: Species H            -1.72330000       10.07840000       12.22410000
  |  136: Species H            -0.75816400        6.92882000        9.21859000
  |  137: Species H            -8.36415000        8.41673000       14.05740000
  |  138: Species H            -2.20011000       11.34680000        7.25569000
  |  139: Species H             2.04893000        9.42530000        7.68749000
  |  140: Species H            -4.24771000        6.50194000       14.08390000
  |  141: Species H            -7.67641000        7.72056000       11.82490000
  |  142: Species H            -2.95225000       10.65810000        9.46106000
  |  143: Species H             1.49560000       10.27920000        9.88895000
  |  144: Species H            -3.83515000        7.11392000       11.77150000

  Lattice parameters for 3D lattice (in Angstroms) :     8.102000   11.880000   17.292000
  Angle(s) between unit vectors (in degrees)       :    90.000000  124.463000   90.000000


  Quantities derived from the lattice vectors (in Angstrom^-1):
  | Reciprocal lattice vector 1:  0.775510  0.000000  0.532257
  | Reciprocal lattice vector 2:  0.000000  0.528888  0.000000
  | Reciprocal lattice vector 3: -0.000000  0.000000  0.440705
  | Unit cell volume                               :   0.137227E+04  Angstrom^3

  Fractional coordinates:
                         L1                L2                L3
       atom_frac         0.09883155        0.00606839        0.16540797  C
       atom_frac         0.42966246        0.25646296        0.33625604  C
       atom_frac         0.93249560        0.49116246        0.33569632  C
       atom_frac         0.61588322        0.23992929        0.17827383  C
       atom_frac         0.14827947        0.07755446        0.11786959  C
       atom_frac         0.39808934        0.33194192        0.38862709  C
       atom_frac         0.88606057        0.41767677        0.38440955  C
       atom_frac         0.65251487        0.17182323        0.12659927  C
       atom_frac         0.07754923        0.05463973        0.02388990  C
       atom_frac         0.45297063        0.30492088        0.48002288  C
       atom_frac         0.96252636        0.44470370        0.47901426  C
       atom_frac         0.58435292        0.19867761        0.03336068  C
       atom_frac         0.07897312        0.12402778        0.45777294  C
       atom_frac         0.44898573        0.37659596        0.05093283  C
       atom_frac         0.93800858        0.37548316        0.03858580  C
       atom_frac         0.57366731        0.12125337        0.46398527  C
       atom_frac         0.02455058        0.08430976        0.37189930  C
       atom_frac         0.51666330        0.34453367        0.14197476  C
       atom_frac         1.00995897        0.40619781        0.12846150  C
       atom_frac         0.52157795        0.15078114        0.37555432  C
       atom_frac         0.13147457        0.02591279        0.23345892  H
       atom_frac         0.38261454        0.28505640        0.26706320  H
       atom_frac         0.88110006        0.46417593        0.26464266  H
       atom_frac         0.67455869        0.21854040        0.25096387  H
       atom_frac         0.22560503        0.15876515        0.14703469  H
       atom_frac         0.34188821        0.41625505        0.36319979  H
       atom_frac         0.79880565        0.34215067        0.35326018  H
       atom_frac         0.73294398        0.09256481        0.15544382  H
       atom_frac         0.15506377        0.20374242        0.48029152  H
       atom_frac         0.37364539        0.45734428        0.02297934  H
       atom_frac         0.86489116        0.29274747        0.01132214  H
       atom_frac         0.65078413        0.04301726        0.49587813  H
       atom_frac         0.05401009        0.13259848        0.32791003  H
       atom_frac         0.49321785        0.39875589        0.18602084  H
       atom_frac         0.98730473        0.35296296        0.17293685  H
       atom_frac         0.54754019        0.08848316        0.33689011  H
       atom_frac         0.10973458        0.02809175        0.67212140  C
       atom_frac         0.43940377        0.26351431        0.84423830  C
       atom_frac         0.93583098        0.48769781        0.83486754  C
       atom_frac         0.56494753        0.24434175        0.66010774  C
       atom_frac         0.12648629        0.09542929        0.61151515  C
       atom_frac         0.40075309        0.33314310        0.89651397  C
       atom_frac         0.90807316        0.41715741        0.88888269  C
       atom_frac         0.59563487        0.16693855        0.60911986  C
       atom_frac         0.05323241        0.05920648        0.51850193  C
       atom_frac         0.47579794        0.30450758        0.99250115  C
       atom_frac         0.96509567        0.44702862        0.98146806  C
       atom_frac         0.54186185        0.19603956        0.51808249  C
       atom_frac         0.10537388        0.13229882        0.96795200  C
       atom_frac         0.42681018        0.38350673        0.53479274  C
       atom_frac         0.91813999        0.37152441        0.53376098  C
       atom_frac         0.61673240        0.12686785        0.97587085  C
       atom_frac         0.04361523        0.10131061        0.87820030  C
       atom_frac         0.48045458        0.34976684        0.62168481  C
       atom_frac         0.98974117        0.39952273        0.62405065  C
       atom_frac         0.54278907        0.15921465        0.88381153  C
       atom_frac         0.17288579        0.05927567        0.74309580  H
       atom_frac         0.38867532        0.28908502        0.77200067  H
       atom_frac         0.87352865        0.46311448        0.76170406  H
       atom_frac         0.61366667        0.22313889        0.73069497  H
       atom_frac         0.19804469        0.17722896        0.63172612  H
       atom_frac         0.32421703        0.41533165        0.87170530  H
       atom_frac         0.82037851        0.34097643        0.85954294  H
       atom_frac         0.67075047        0.08782071        0.63955028  H
       atom_frac         0.16991969        0.21272475        0.99950818  H
       atom_frac         0.35506724        0.46445034        0.50882044  H
       atom_frac         0.82458661        0.29547980        0.49883034  H
       atom_frac         0.68802369        0.04510993        1.00146510  H
       atom_frac         0.05793137        0.15549158        0.83130441  H
       atom_frac         0.44488448        0.40767003        0.66102027  H
       atom_frac         0.95712988        0.34334428        0.66231226  H
       atom_frac         0.55765819        0.09961448        0.84035252  H
       atom_frac         0.11836245        0.50824495        0.16596559  C
       atom_frac         0.43150127        0.75661111        0.33990895  C
       atom_frac         0.93567905        0.97462121        0.34301688  C
       atom_frac         0.63616569        0.73455556        0.17753175  C
       atom_frac         0.14584948        0.58301347        0.11319964  C
       atom_frac         0.39753878        0.82766835        0.39224774  C
       atom_frac         0.90926889        0.90894781        0.40064075  C
       atom_frac         0.66244492        0.66905471        0.11841879  C
       atom_frac         0.06730015        0.55375337        0.01817191  C
       atom_frac         0.46583880        0.80271717        0.48619594  C
       atom_frac         0.97200705        0.94765993        0.49201900  C
       atom_frac         0.58136780        0.69923822        0.02579351  C
       atom_frac         0.10208052        0.62290741        0.46722366  C
       atom_frac         0.44602068        0.87000842        0.05061369  C
       atom_frac         0.94183338        0.87680135        0.03498016  C
       atom_frac         0.58434483        0.62184428        0.46748318  C
       atom_frac         0.04155936        0.59290572        0.37800503  C
       atom_frac         0.52649082        0.83431734        0.14275682  C
       atom_frac         0.98959987        0.90542088        0.12231650  C
       atom_frac         0.52384747        0.65228451        0.37797276  C
       atom_frac         0.17738493        0.53069360        0.23867386  H
       atom_frac         0.37816264        0.77552694        0.26758294  H
       atom_frac         0.88808712        0.94540404        0.27264147  H
       atom_frac         0.69820882        0.70485859        0.24806286  H
       atom_frac         0.21770611        0.66696886        0.14186253  H
       atom_frac         0.33258058        0.90991582        0.36541833  H
       atom_frac         0.83756471        0.82823401        0.37959371  H
       atom_frac         0.74479255        0.58849074        0.14425713  H
       atom_frac         0.16353989        0.70731902        0.49698565  H
       atom_frac         0.35271568        0.94696970        0.02189069  H
       atom_frac         0.85774135        0.79887710        0.00256721  H
       atom_frac         0.66805393        0.54409933        0.49679697  H
       atom_frac         0.07038750        0.65093434        0.33767077  H
       atom_frac         0.50001519        0.88834175        0.18439920  H
       atom_frac         0.94411480        0.85056397        0.15661868  H
       atom_frac         0.55389992        0.59416835        0.33769813  H
       atom_frac         0.09783966        0.49846212        0.66707058  C
       atom_frac         0.40057647        0.75980724        0.83396974  C
       atom_frac         0.94756048        0.99898990        0.84013509  C
       atom_frac         0.58579690        0.74081061        0.66672409  C
       atom_frac         0.13255603        0.57124074        0.61510704  C
       atom_frac         0.38616546        0.83223316        0.89337869  C
       atom_frac         0.90784115        0.92522727        0.88924040  C
       atom_frac         0.61880342        0.66758838        0.61667538  C
       atom_frac         0.06759606        0.54584428        0.52068119  C
       atom_frac         0.47041242        0.80367424        0.98933782  C
       atom_frac         0.97625967        0.95186869        0.98284983  C
       atom_frac         0.56284374        0.69676263        0.52517228  C
       atom_frac         0.08843096        0.62699832        0.95964737  C
       atom_frac         0.42578758        0.87606902        0.53970888  C
       atom_frac         0.96102038        0.87923401        0.55594850  C
       atom_frac         0.59134505        0.62734259        0.96077663  C
       atom_frac         0.03287862        0.59199832        0.87305901  C
       atom_frac         0.48769158        0.84658249        0.62836990  C
       atom_frac         1.03087685        0.91893098        0.64485080  C
       atom_frac         0.50654444        0.65715909        0.86920830  C
       atom_frac         0.16242910        0.51922391        0.74130020  H
       atom_frac         0.34464790        0.78832323        0.76271408  H
       atom_frac         0.89362633        0.98147306        0.76934235  H
       atom_frac         0.63569140        0.71923148        0.73883126  H
       atom_frac         0.22255385        0.64844024        0.64480450  H
       atom_frac         0.31571862        0.91503367        0.86895579  H
       atom_frac         0.82281826        0.84835017        0.85740366  H
       atom_frac         0.68734092        0.58323401        0.64659589  H
       atom_frac         0.15846376        0.70847896        0.98599212  H
       atom_frac         0.34308713        0.95511785        0.50891724  H
       atom_frac         0.90410879        0.79337542        0.53920387  H
       atom_frac         0.66878563        0.54730135        0.98785084  H
       atom_frac         0.05423111        0.64987879        0.82940360  H
       atom_frac         0.43707291        0.89714646        0.66360284  H
       atom_frac         1.02230174        0.86525253        0.69361523  H
       atom_frac         0.52382009        0.59881481        0.82565810  H

 
  Finished reading input file 'geometry.in'.
 

 
  Consistency checks for stacksize environment parameter are next.
 
  | Maximum stacksize for task 0: unlimited
  | Maximum stacksize for task 1: unlimited
  | Maximum stacksize for task 2: unlimited
  | Maximum stacksize for task 3: unlimited
  | Maximum stacksize for task 4: unlimited
  | Maximum stacksize for task 5: unlimited
  | Maximum stacksize for task 6: unlimited
  | Maximum stacksize for task 7: unlimited
  | Maximum stacksize for task 8: unlimited
  | Maximum stacksize for task 9: unlimited
  | Maximum stacksize for task 10: unlimited
  | Maximum stacksize for task 11: unlimited
  | Maximum stacksize for task 12: unlimited
  | Maximum stacksize for task 13: unlimited
  | Maximum stacksize for task 14: unlimited
  | Maximum stacksize for task 15: unlimited
  | Maximum stacksize for task 16: unlimited
  | Maximum stacksize for task 17: unlimited
  | Current stacksize for task 0: unlimited
  | Current stacksize for task 1: unlimited
  | Current stacksize for task 2: unlimited
  | Current stacksize for task 3: unlimited
  | Current stacksize for task 4: unlimited
  | Current stacksize for task 5: unlimited
  | Current stacksize for task 6: unlimited
  | Current stacksize for task 7: unlimited
  | Current stacksize for task 8: unlimited
  | Current stacksize for task 9: unlimited
  | Current stacksize for task 10: unlimited
  | Current stacksize for task 11: unlimited
  | Current stacksize for task 12: unlimited
  | Current stacksize for task 13: unlimited
  | Current stacksize for task 14: unlimited
  | Current stacksize for task 15: unlimited
  | Current stacksize for task 16: unlimited
  | Current stacksize for task 17: unlimited
 
  Consistency checks for the contents of control.in are next.
 
  MPI_IN_PLACE appears to work with this MPI implementation.
  | Keeping use_mpi_in_place .true. (see manual).
  Explicit treatment of the Coulomb operator is needed, but the RI method is not specified.
  Coulomb operator: Defaulting to 'LVL fast' resolution of identity - RI_type = LVL_fast
  Species H: Using default value for prodbas_acc =   1.000000E-06.
  Species H: Using default value max_l_prodbas =     6.
  Species C: Using default value for prodbas_acc =   1.000000E-06.
  Species C: Using default value max_l_prodbas =     6.
  Target number of points in a grid batch is not set.  Since GPU acceleration is enabled, defaulting to  200
  Method for grid partitioning is not set. Defaulting to parallel hash+maxmin partitioning.
  Batch size limit is not set. Defaulting to    200
  By default, will store active basis functions for each batch.
  If in need of memory, prune_basis_once .false. can be used to disable this option.
  communication_type for Hartree potential was not specified.
  Defaulting to calc_hartree .
  Defaulting to Pulay charge density mixer.
  Pulay mixer: Number of relevant iterations not set.
  Defaulting to    8 iterations.
  Pulay mixer: Number of initial linear mixing iterations not set.
  Defaulting to    0 iterations.
  Work space size for distributed Hartree potential not set.
  Defaulting to   0.200000E+03 MB.
  Algorithm-dependent basis array size parameters:
  | n_max_pulay                         :        8
  Maximum number of self-consistency iterations not provided.
  Presetting  1000 iterations.
  Presetting      1001 iterations before the initial mixing cycle
  is restarted anyway using the sc_init_iter criterion / keyword.
  Presetting a factor      1.000 between actual scf density residual
  and density convergence criterion sc_accuracy_rho below which sc_init_iter
  takes no effect.
 * No s.c.f. convergence criteria (sc_accuracy_*) were provided in control.in.
 * The run will proceed with a reasonable default guess, but please check whether.
 * the s.c.f. cycles seem to take too much or too little time.
  Geometry relaxation not requested: no relaxation will be performed.
 * Notice: The s.c.f. convergence criterion sc_accuracy_rho was not provided.
 * We used to stop in this case, and ask the user to provide reasonable
 * scf convergence criteria. However, this led some users to employ criteria
 * that led to extremely long run times, e.g., for simple relaxation.
 * We now preset a default value for sc_accuracy_rho if it is not set.
 * You may still wish to check if this setting is too tight or too loose for your needs.
 * Based on n_atoms and forces and force-correction status, FHI-aims chose sc_accuracy_rho =  0.391918E-04 .
  No accuracy limit for integral partition fn. given. Defaulting to  0.1000E-14.
  No threshold value for u(r) in integrations given. Defaulting to  0.1000E-05.
  No occupation type (smearing scheme) given. Defaulting to Gaussian broadening, width =  0.1000E-01 eV.
  The width will be adjusted in iteration number     2 of the first full s.c.f. cycle only.
  S.C.F. convergence parameters will be adjusted in iteration number     2 of the first full s.c.f. cycle only.
  No accuracy for occupation numbers given. Defaulting to  0.1000E-12.
  No threshold value for occupation numbers given. Defaulting to  0.0000E+00.
  No accuracy for fermi level given. Defaulting to  0.1000E-19.
  Maximum # of iterations to find E_F not set. Defaulting to  200.
  Preferred method for the eigenvalue solver ('KS_method') not specified in 'control.in'.
  Calling BLACS routine to test compilation state
  Since ScaLAPACK support is enabled, defaulting to ELPA (via ELSI).
  Will not use alltoall communication since running on < 1024 CPUs.
  Threshold for basis singularities not set.
  Default threshold for basis singularities:  0.1000E-04
  partition_type (choice of integration weights) for integrals was not specified.
  | Using a version of the partition function of Stratmann and coworkers ('stratmann_sparse').
  | At each grid point, the set of atoms used to build the partition table is smoothly restricted to
  | only those atoms whose free-atom density would be non-zero at that grid point.
  Partitioning for Hartree potential was not defined. Using partition_type for integrals.
  | Adjusted default value of keyword multip_moments_threshold to:       0.10000000E-11
  | This value may affect high angular momentum components of the Hartree potential in periodic systems.
  Angular momentum expansion for Kerker preconditioner not set explicitly.
  | Using default value of   0
  No explicit requirement for turning off preconditioner.
  | By default, it will be turned off when the charge convergence reaches
  | sc_accuracy_rho  =   0.391918E-04
  No special mixing parameter while Kerker preconditioner is on.
  Using default: charge_mix_param =     0.7500.
  Threshold for auxiliary basis singularities not set.
  Default threshold for auxiliary basis singularities:  0.1000E-04
  No q(lm)/r^(l+1) cutoff set for long-range Hartree potential.
  | Using default value of  0.100000E-09 .
  | Verify using the multipole_threshold keyword.
  Defaulting to new monopole extrapolation.
  Density update method: automatic selection selected.
  Using density matrix based charge density update.
  Using density matrix based charge density update.
  Using packed matrix style: index .
  Defaulting to use time-reversal symmetry for k-point grid.
  Charge integration errors on the 3D integration grid will be compensated
  by explicit normalization and distribution of residual charges.
  Use the "compensate_multipole_errors" flag to change this behaviour.
  Default to 1D ("use_logsbt") integrations for auxiliary 2-center integrals.
  Default onset of logarithmic r-grid for SBT is -38.000000000000
  Default onset of logarithmic k-grid for SBT is -25.000000000000
  Default range of logarithmic r- and k-grid for SBT is  45.000000000000
  Default number of logarithmic r- and k-grid for SBT is   4096
  Default of use_2d_corr is to use the efficient 2D distribution where possible
 
  Consistency checks for the contents of geometry.in are next.
 

  Range separation radius for Ewald summation (hartree_convergence_parameter):      2.91768261 bohr.
  Number of empty states per atom not set in control.in .
  | Since you are using a method that relies on the unoccupied spectrum
  | (MP2,GW,RPA et al.), will use the full Hamiltonian size (see below)
  | as the max. possible number of states (occupied plus empty).

  Structure-dependent array size parameters: 
  | Maximum number of distinct radial functions  :        9
  | Maximum number of basis functions            :     1440
  | Number of Kohn-Sham states (occupied + empty):     1440
------------------------------------------------------------
CUDA runtime version: 11060
CUDA driver version: 11060
  Initializing GPUs...

  Number of GPUs available to MPI task         0 :   1
  Number of GPUs available to MPI task         1 :   1
  Number of GPUs available to MPI task         2 :   1
  Number of GPUs available to MPI task         3 :   1
  Number of GPUs available to MPI task         4 :   1
  Number of GPUs available to MPI task         5 :   1
  Number of GPUs available to MPI task         6 :   1
  Number of GPUs available to MPI task         7 :   1
  Number of GPUs available to MPI task         8 :   1
  Number of GPUs available to MPI task         9 :   1
  Number of GPUs available to MPI task        10 :   1
  Number of GPUs available to MPI task        11 :   1
  Number of GPUs available to MPI task        12 :   1
  Number of GPUs available to MPI task        13 :   1
  Number of GPUs available to MPI task        14 :   1
  Number of GPUs available to MPI task        15 :   1
  Number of GPUs available to MPI task        16 :   1
  Number of GPUs available to MPI task        17 :   1

  | MPI task         0, GPU activated = T, Device Name = NVIDIA A100-SXM4-80GB
  | MPI task         1, GPU activated = T, Device Name = NVIDIA A100-SXM4-80GB
  | MPI task         2, GPU activated = T, Device Name = NVIDIA A100-SXM4-80GB
  | MPI task         3, GPU activated = T, Device Name = NVIDIA A100-SXM4-80GB
  | MPI task         4, GPU activated = T, Device Name = NVIDIA A100-SXM4-80GB
  | MPI task         5, GPU activated = T, Device Name = NVIDIA A100-SXM4-80GB
  | MPI task         6, GPU activated = T, Device Name = NVIDIA A100-SXM4-80GB
  | MPI task         7, GPU activated = T, Device Name = NVIDIA A100-SXM4-80GB
  | MPI task         8, GPU activated = T, Device Name = NVIDIA A100-SXM4-80GB
  | MPI task         9, GPU activated = T, Device Name = NVIDIA A100-SXM4-80GB
  | MPI task        10, GPU activated = T, Device Name = NVIDIA A100-SXM4-80GB
  | MPI task        11, GPU activated = T, Device Name = NVIDIA A100-SXM4-80GB
  | MPI task        12, GPU activated = T, Device Name = NVIDIA A100-SXM4-80GB
  | MPI task        13, GPU activated = T, Device Name = NVIDIA A100-SXM4-80GB
  | MPI task        14, GPU activated = T, Device Name = NVIDIA A100-SXM4-80GB
  | MPI task        15, GPU activated = T, Device Name = NVIDIA A100-SXM4-80GB
  | MPI task        16, GPU activated = T, Device Name = NVIDIA A100-SXM4-80GB
  | MPI task        17, GPU activated = T, Device Name = NVIDIA A100-SXM4-80GB

------------------------------------------------------------
          Preparing all fixed parts of the calculation.
------------------------------------------------------------
  Determining machine precision:
    2.225073858507201E-308
  Setting up grids for atomic and cluster calculations.

  Creating wave function, potential, and density for free atoms.
  Runtime choices for atomic solver:
  | atomic solver xc        : PW-LDA
  | compute density gradient: 0
  | compute kinetic density : F

  Species: H

  List of occupied orbitals and eigenvalues:
    n    l              occ      energy [Ha]    energy [eV]
    1    0           1.0000        -0.232375        -6.3233


  Species: C

  List of occupied orbitals and eigenvalues:
    n    l              occ      energy [Ha]    energy [eV]
    1    0           2.0000        -9.944615      -270.6068
    2    0           2.0000        -0.498807       -13.5732
    2    1           2.0000        -0.196968        -5.3598


  Adding cutoff potential to free-atom effective potential.
  Creating fixed part of basis set: Ionic, confined, hydrogenic.
 
  H                    hydrogenic:
 
  List of hydrogenic basis orbitals: 
    n    l      effective z      eigenvalue [eV]  inner max. [A]     outer max. [A]     outer radius [A]   
    2    0         2.100000       -14.9728           0.193243           1.317208           4.583499
    2    1         3.500000       -41.6669           0.602369           0.602369           3.723403
 
 
  C                    hydrogenic:
 
  List of hydrogenic basis orbitals: 
    n    l      effective z      eigenvalue [eV]  inner max. [A]     outer max. [A]     outer radius [A]   
    2    1         1.700000        -9.7616           1.230570           1.230570           4.607917
    3    2         6.000000       -54.4224           0.792453           0.792453           3.883070
    2    0         4.900000       -81.6679           0.082559           0.562749           3.078220
 
  Creating atomic-like basis functions for current effective potential.

  Species H                   :

  List of atomic basis orbitals and eigenvalues:
    n    l      energy [Ha]    energy [eV]    outer radius [A]
    1    0        -0.232375        -6.3233       4.527807


  Species C                   :

  List of atomic basis orbitals and eigenvalues:
    n    l      energy [Ha]    energy [eV]    outer radius [A]
    1    0        -9.944615      -270.6068       1.934409
    2    0        -0.498807       -13.5732       4.496620
    2    1        -0.196968        -5.3598       4.551928

  Assembling full basis from fixed parts.
  | Species H :   atomic orbital   1 s accepted.
  | Species H :    hydro orbital   2 s accepted.
  | Species H :    hydro orbital   2 p accepted.
  | Species C :   atomic orbital   1 s accepted.
  | Species C :    hydro orbital   2 s accepted.
  | Species C :   atomic orbital   2 s accepted.
  | Species C :   atomic orbital   2 p accepted.
  | Species C :    hydro orbital   2 p accepted.
  | Species C :    hydro orbital   3 d accepted.
 
  Basis size parameters after reduction:
  | Total number of radial functions:        9
  | Total number of basis functions :     1440
 
  Per-task memory consumption for arrays in subroutine allocate_ext:
  |           2.242384MB.
  Testing on-site integration grid accuracy.
  |  Species  Function  <phi|h_atom|phi> (log., in eV)  <phi|h_atom|phi> (rad., in eV)
           1        1                 -6.3245358373                 -6.3232436907
           1        2                 14.1326137532                 14.1384481100
           1        3                 25.3627025200                 25.3628451197
           2        4               -270.6067544938               -270.6067222788
           2        5                -10.5634280949                -10.5635685736
           2        6                 16.2089822398                 16.2052121796
           2        7                 -5.3613872565                 -5.3627872378
           2        8                  8.5292058327                  8.5051734780
           2        9                 27.4884461005                 27.4884542459

  Preparing densities etc. for the partition functions (integrals / Hartree potential).

  Preparations completed.
  max(cpu_time)          :      0.074 s.
  Wall clock time (cpu1) :      0.067 s.
------------------------------------------------------------

  Initializing index lists of integration centers etc. from given atomic structure:
  Mapping all atomic coordinates to central unit cell.

  Initializing the k-points
  Using symmetry for reducing the k-points
  | k-points reduced from:        2 to        2
  | Number of k-points                             :         2
  | Consuming          0 KiB for k_phase_exx.
  The eigenvectors in the calculations are REAL.
  | Number of basis functions in the Hamiltonian integrals :      7998
  | Number of basis functions in a single unit cell        :      1440
  | Number of centers in hartree potential         :      3331
  | Number of centers in hartree multipole         :      2562
  | Number of centers in electron density summation:      2003
  | Number of centers in basis integrals           :      2141
  | Number of centers in integrals                 :       967
  | Number of centers in hamiltonian               :      2009
  | Consuming          1 KiB for k_phase.
  | Number of super-cells (origin) [n_cells]                     :         175
  | Number of super-cells (after PM_index) [n_cells]             :          38
  | Number of super-cells in hamiltonian [n_cells_in_hamiltonian]:          38
  | Size of matrix packed + index [n_hamiltonian_matrix_size] :     1931816
  | Size of matrix packed + index (no_symmetry):     3860815

------------------------------------------------------------
          Begin self-consistency loop: Initialization.

          Date     :  20230120, Time     :  134916.157
------------------------------------------------------------
  | Estimated reciprocal-space cutoff momentum G_max:         3.24344278 bohr^-1 .
  | Reciprocal lattice points for long-range Hartree potential:    5310
  Using simple linear distribution as default method for k-point parallelism.
  * Using 18 tasks for Scalapack Eigenvalue solver.
  Detailed listing of tasks and assigned k-points:
   Task     0 k-point     1 on adag004
   Task     1 k-point     1 on adag004
   Task     2 k-point     1 on adag004
   Task     3 k-point     1 on adag004
   Task     4 k-point     1 on adag004
   Task     5 k-point     1 on adag004
   Task     6 k-point     1 on adag004
   Task     7 k-point     1 on adag004
   Task     8 k-point     1 on adag004
   Task     9 k-point     2 on adag004
   Task    10 k-point     2 on adag004
   Task    11 k-point     2 on adag004
   Task    12 k-point     2 on adag004
   Task    13 k-point     2 on adag004
   Task    14 k-point     2 on adag004
   Task    15 k-point     2 on adag004
   Task    16 k-point     2 on adag004
   Task    17 k-point     2 on adag004
  K-point:     1 Tasks:     9 split into      3 X      3 BLACS grid
  Calculating block size based on n_basis =         1440  max_nprow =            3  max_npcol =            3
  ScaLAPACK block size set to:           16
  Allocating        1.758 MB for ovlp
  Allocating        1.758 MB for ham
  Allocating        1.758 MB for eigenvec
  Required Scalapack workspace - INTEGER:            1  REAL:             1
  Partitioning the integration grid into batches with parallel hashing+maxmin method.
  | Number of batches:     5290
  | Maximal batch size:     200
  | Minimal batch size:      99
  | Average batch size:     144.393
  | Standard deviation of batch sizes:      32.089

  Integration load balanced across    18 MPI tasks.
  Work distribution over tasks is as follows:
  Task     0 has      42442 integration points.
  Task     1 has      42421 integration points.
  Task     2 has      42467 integration points.
  Task     3 has      42424 integration points.
  Task     4 has      42465 integration points.
  Task     5 has      42474 integration points.
  Task     6 has      42452 integration points.
  Task     7 has      42429 integration points.
  Task     8 has      42444 integration points.
  Task     9 has      42453 integration points.
  Task    10 has      42396 integration points.
  Task    11 has      42368 integration points.
  Task    12 has      42434 integration points.
  Task    13 has      42392 integration points.
  Task    14 has      42432 integration points.
  Task    15 has      42460 integration points.
  Task    16 has      42458 integration points.
  Task    17 has      42429 integration points.
  Initializing partition tables, free-atom densities, potentials, etc. across the integration grid (initialize_grid_storage).
  | initialize_grid_storage: Actual outermost partition radius vs. multipole_radius_free
  | (-- VB: in principle, multipole_radius_free should be larger, hence this output)
  | Species        1: Confinement radius =              4.999999999999999 AA, multipole_radius_free =              5.054417573612229 AA.
  | Species        1: outer_partition_radius set to              5.054417573612229 AA .
  | Species        2: Confinement radius =              4.999999999999999 AA, multipole_radius_free =              5.019602836301480 AA.
  | Species        2: outer_partition_radius set to              5.019602836301480 AA .
  | The sparse table of interatomic distances needs       7720.99 kbyte instead of     36671.05 kbyte of memory.
  | Net number of integration points:   763840
  | of which are non-zero points    :   605324
  | Numerical average free-atom electrostatic potential    :     -8.61465992 eV
  Renormalizing the initial density to the exact electron count on the 3D integration grid.
  | Initial density: Formal number of electrons (from input files) :     544.0000000000
  | Integrated number of electrons on 3D grid     :     543.9951116334
  | Charge integration error                      :      -0.0048883666
  | Normalization factor for density and gradient :       1.0000089860
  Renormalizing the free-atom superposition density to the exact electron count on the 3D integration grid.
  | Formal number of electrons (from input files) :     544.0000000000
  | Integrated number of electrons on 3D grid     :     543.9951116334
  | Charge integration error                      :      -0.0048883666
  | Normalization factor for density and gradient :       1.0000089860
  Obtaining max. number of non-zero basis functions in each batch (get_n_compute_maxes).
  | Maximal number of non-zero basis functions:      539 in task     0
  | Maximal number of non-zero basis functions:      561 in task     1
  | Maximal number of non-zero basis functions:      525 in task     2
  | Maximal number of non-zero basis functions:      538 in task     3
  | Maximal number of non-zero basis functions:      540 in task     4
  | Maximal number of non-zero basis functions:      531 in task     5
  | Maximal number of non-zero basis functions:      555 in task     6
  | Maximal number of non-zero basis functions:      530 in task     7
  | Maximal number of non-zero basis functions:      554 in task     8
  | Maximal number of non-zero basis functions:      535 in task     9
  | Maximal number of non-zero basis functions:      548 in task    10
  | Maximal number of non-zero basis functions:      547 in task    11
  | Maximal number of non-zero basis functions:      547 in task    12
  | Maximal number of non-zero basis functions:      545 in task    13
  | Maximal number of non-zero basis functions:      553 in task    14
  | Maximal number of non-zero basis functions:      547 in task    15
  | Maximal number of non-zero basis functions:      543 in task    16
  | Maximal number of non-zero basis functions:      554 in task    17
  Integrating Hamiltonian matrix: batch-based integration.
  GPU acceleration will be used when integrating the Hamiltonian matrix.
  Reporting GPU memory usage by myid 0.  Note that it is likely not the only MPI task binding to its GPU!
  Allocating        2.324 MB on GPU for hamiltonian_shell
  Allocating        0.862 MB on GPU for wave
  Allocating        0.002 MB on GPU for partition
  Allocating        0.862 MB on GPU for h_times_psi
  Time summed over all CPUs for integration: real work       23.745 s, elapsed       24.428 s
  Deallocating memory used on GPU for Hamiltonian integration.
  Integrating overlap matrix.
  Time summed over all CPUs for integration: real work       19.226 s, elapsed       19.823 s
  Deallocating overlap matrix.

  Updating Kohn-Sham eigenvalues and eigenvectors using ELSI and the ELPA eigensolver.
  Singularity check in k-point 1 (analysis for other k-points may follow below):
  Overlap matrix is not singular
  | Lowest and highest eigenvalues :  0.7923E-03,  0.8231E+01
  Finished singularity check of overlap matrix
  | Time :     0.107 s
  Starting ELPA eigensolver
  Finished Cholesky decomposition
  | Time :     0.017 s
  Finished transformation to standard eigenproblem
  | Time :     0.025 s
  Finished solving standard eigenproblem
  | Time :     0.260 s
  Finished back-transformation of eigenvectors
  | Time :     0.021 s

  Obtaining occupation numbers and electronic chemical potential using ELSI.
  | Note that, for insulating systems, the printed 'chemical potential' value is not uniquely defined.
  | It can be anywhere in the energy gap, as long as it correctly separates occupied and unoccupied states.
  | In systems with a gap, the physically relevant chemical potential is the VBM or HOMO.

  | Chemical potential (Fermi level):    -8.92107821 eV
  Writing Kohn-Sham eigenvalues.
  K-point:       1 at    0.000000    0.000000    0.000000 (in units of recip. lattice)

  State    Occupation    Eigenvalue [Ha]    Eigenvalue [eV]
      1       2.00000         -10.072621         -274.08996
      2       2.00000         -10.071631         -274.06302
      3       2.00000         -10.068921         -273.98928
      4       2.00000         -10.068457         -273.97667
      5       2.00000         -10.068390         -273.97482
      6       2.00000         -10.067639         -273.95441
      7       2.00000         -10.067345         -273.94638
      8       2.00000         -10.067241         -273.94355
      9       2.00000         -10.067088         -273.93940
     10       2.00000         -10.066779         -273.93100
     11       2.00000         -10.066720         -273.92940
     12       2.00000         -10.066719         -273.92935
     13       2.00000         -10.066477         -273.92278
     14       2.00000         -10.066391         -273.92044
     15       2.00000         -10.066380         -273.92014
     16       2.00000         -10.066018         -273.91029
     17       2.00000         -10.065965         -273.90885
     18       2.00000         -10.065926         -273.90779
     19       2.00000         -10.065861         -273.90601
     20       2.00000         -10.065704         -273.90175
     21       2.00000         -10.065698         -273.90157
     22       2.00000         -10.065580         -273.89836
     23       2.00000         -10.065542         -273.89734
     24       2.00000         -10.065503         -273.89628
     25       2.00000         -10.065253         -273.88946
     26       2.00000         -10.064975         -273.88191
     27       2.00000         -10.064975         -273.88191
     28       2.00000         -10.064902         -273.87993
     29       2.00000         -10.064896         -273.87976
     30       2.00000         -10.064869         -273.87902
     31       2.00000         -10.064719         -273.87493
     32       2.00000         -10.064249         -273.86214
     33       2.00000         -10.064163         -273.85981
     34       2.00000         -10.064041         -273.85648
     35       2.00000         -10.063922         -273.85324
     36       2.00000         -10.063856         -273.85147
     37       2.00000         -10.063767         -273.84902
     38       2.00000         -10.063668         -273.84633
     39       2.00000         -10.063574         -273.84377
     40       2.00000         -10.063560         -273.84341
     41       2.00000         -10.062878         -273.82484
     42       2.00000         -10.062868         -273.82458
     43       2.00000         -10.062759         -273.82160
     44       2.00000         -10.062508         -273.81476
     45       2.00000         -10.062244         -273.80759
     46       2.00000         -10.062243         -273.80756
     47       2.00000         -10.061820         -273.79605
     48       2.00000         -10.061806         -273.79567
     49       2.00000         -10.061725         -273.79347
     50       2.00000         -10.061615         -273.79047
     51       2.00000         -10.061391         -273.78438
     52       2.00000         -10.061115         -273.77686
     53       2.00000         -10.061095         -273.77633
     54       2.00000         -10.060231         -273.75281
     55       2.00000         -10.059574         -273.73493
     56       2.00000         -10.059474         -273.73221
     57       2.00000         -10.059183         -273.72431
     58       2.00000         -10.059100         -273.72202
     59       2.00000         -10.059039         -273.72039
     60       2.00000         -10.057958         -273.69097
     61       2.00000         -10.057937         -273.69039
     62       2.00000         -10.057883         -273.68891
     63       2.00000         -10.057796         -273.68654
     64       2.00000         -10.057714         -273.68433
     65       2.00000         -10.057519         -273.67901
     66       2.00000         -10.057341         -273.67417
     67       2.00000         -10.057128         -273.66838
     68       2.00000         -10.056926         -273.66289
     69       2.00000         -10.056750         -273.65809
     70       2.00000         -10.055889         -273.63467
     71       2.00000         -10.055880         -273.63441
     72       2.00000         -10.055346         -273.61988
     73       2.00000         -10.055314         -273.61900
[...]
  |    H      0     4.527807 A      4.583499 A        4.713786E-16 a.u.
  |    H      2     3.678162 A  1.011968E+04 A            0.556529 a.u.
  |    H      1     3.958095 A  1.721251E+06 A            0.841931 a.u.
  |    H      0     4.527807 A  3.866455E+12 A            0.581436 a.u.
  |    C      0     2.562483 A      2.562483 A        6.563029E-17 a.u.
  |    C      0     2.967371 A      2.967371 A        1.352164E-16 a.u.
  |    C      0     3.003870 A      3.003870 A        2.312640E-17 a.u.
  |    C      1     3.272245 A      3.272245 A       -3.835259E-17 a.u.
  |    C      0     3.312494 A      3.312494 A       -2.710381E-16 a.u.
  |    C      3     4.077671 A      4.077671 A       -1.683752E-15 a.u.
  |    C      3     4.077671 A      4.077671 A        1.412852E-15 a.u.
  |    C      1     4.496620 A      4.496620 A       -3.011059E-16 a.u.
  |    C      0     4.496620 A      4.551928 A        2.873903E-17 a.u.
  |    C      2     4.551928 A      4.551928 A       -4.610785E-16 a.u.
  |    C      2     4.551928 A      4.551928 A        7.440584E-16 a.u.
  |    C      2     4.551928 A      4.551928 A       -7.110458E-16 a.u.
  |    C      2     4.551928 A      4.551928 A       -1.935424E-16 a.u.
  |    C      0     4.551928 A      4.607917 A        2.067142E-16 a.u.
  |    C      0     4.551928 A      4.607917 A       -1.109786E-16 a.u.
  |    C      1     4.551928 A      4.607917 A       -9.951742E-17 a.u.
  |    C      1     4.551928 A      4.607917 A        1.937809E-16 a.u.
  |    C      1     4.607917 A      4.607917 A       -2.813308E-16 a.u.
  |    C      1     4.607917 A      4.607917 A       -7.330363E-17 a.u.
  |    C      2     4.607917 A      4.607917 A        1.318462E-15 a.u.
  |    C      2     4.607917 A      4.607917 A       -1.318397E-15 a.u.
  |    C      0     4.607917 A      4.664595 A        3.157826E-16 a.u.
  |    C      1     4.607917 A      4.664595 A        7.356967E-16 a.u.
  |    C      4     3.835889 A  2.962973E+02 A            4.379483 a.u.
  |    C      3     4.127827 A  1.725964E+03 A            9.005588 a.u.
  |    C      2     4.607917 A  2.608475E+04 A            9.531178 a.u.
  |    C      1     4.607917 A  2.736013E+06 A            2.127278 a.u.
  |    C      0     4.607917 A  4.399765E+12 A            0.661635 a.u.

  | Shrink_full_auxil_basis : there are       36  radial auxiliary wave functions
                            accepted and       7 rejected.
  | Shrink_full_auxil_basis : there are totally                8992 partial auxiliary wave functions.
 
  | Maximal number of product basis functions per thread :   512   512
 
  | Minimal total memory requirement for three-center overlap :      72.476 Gbs
  | Number of local auxiliary basis functions on task:      0   512
  | Number of local auxiliary basis functions on task:      1   512
  | Number of local auxiliary basis functions on task:      2   512
  | Number of local auxiliary basis functions on task:      3   512
  | Number of local auxiliary basis functions on task:      4   496
  | Number of local auxiliary basis functions on task:      5   496
  | Number of local auxiliary basis functions on task:      6   496
  | Number of local auxiliary basis functions on task:      7   496
  | Number of local auxiliary basis functions on task:      8   496
  | Number of local auxiliary basis functions on task:      9   496
  | Number of local auxiliary basis functions on task:     10   496
  | Number of local auxiliary basis functions on task:     11   496
  | Number of local auxiliary basis functions on task:     12   496
  | Number of local auxiliary basis functions on task:     13   496
  | Number of local auxiliary basis functions on task:     14   496
  | Number of local auxiliary basis functions on task:     15   496
  | Number of local auxiliary basis functions on task:     16   496
  | Number of local auxiliary basis functions on task:     17   496
  | 2D aux task distribution:      3 X      6
  | 2D block size (nb_aux_2d):     64
 
  Basis pair condensation :   1037520  -->     538537
 
 --------------------------------------------
  Constructing auxiliary basis (full product) ...
 
  Product basis:
  | charge radius: extent of product basis function
  | field radius: extent of its Coulomb potential
  | Species   l  charge radius    field radius  multipol momen
  |    H      1     3.910002 A      3.910002 A       -2.487223E-16 a.u.
  |    H      1     3.958095 A      3.958095 A       -2.441841E-16 a.u.
  |    H      0     4.527807 A      4.527807 A        1.268855E-16 a.u.
  |    H      0     4.527807 A      4.583499 A       -4.900954E-17 a.u.
  |    H      0     4.527807 A      4.583499 A        4.713786E-16 a.u.
  |    H      2     3.678162 A  1.011968E+04 A            0.556529 a.u.
  |    H      1     3.958095 A  1.721251E+06 A            0.841931 a.u.
  |    H      0     4.527807 A  3.866455E+12 A            0.581436 a.u.
  |    C      0     2.562483 A      2.562483 A        6.563029E-17 a.u.
  |    C      0     2.967371 A      2.967371 A        1.352164E-16 a.u.
  |    C      0     3.003870 A      3.003870 A        2.312640E-17 a.u.
  |    C      1     3.272245 A      3.272245 A       -3.835259E-17 a.u.
  |    C      0     3.312494 A      3.312494 A       -2.710381E-16 a.u.
  |    C      3     4.077671 A      4.077671 A       -1.683752E-15 a.u.
  |    C      3     4.077671 A      4.077671 A        1.412852E-15 a.u.
  |    C      1     4.496620 A      4.496620 A       -3.011059E-16 a.u.
  |    C      0     4.496620 A      4.551928 A        2.873903E-17 a.u.
  |    C      2     4.551928 A      4.551928 A       -4.610785E-16 a.u.
  |    C      2     4.551928 A      4.551928 A        7.440584E-16 a.u.
  |    C      2     4.551928 A      4.551928 A       -7.110458E-16 a.u.
  |    C      2     4.551928 A      4.551928 A       -1.935424E-16 a.u.
  |    C      0     4.551928 A      4.607917 A        2.067142E-16 a.u.
  |    C      0     4.551928 A      4.607917 A       -1.109786E-16 a.u.
  |    C      1     4.551928 A      4.607917 A       -9.951742E-17 a.u.
  |    C      1     4.551928 A      4.607917 A        1.937809E-16 a.u.
  |    C      1     4.607917 A      4.607917 A       -2.813308E-16 a.u.
  |    C      1     4.607917 A      4.607917 A       -7.330363E-17 a.u.
  |    C      2     4.607917 A      4.607917 A        1.318462E-15 a.u.
  |    C      2     4.607917 A      4.607917 A       -1.318397E-15 a.u.
  |    C      0     4.607917 A      4.664595 A        3.157826E-16 a.u.
  |    C      1     4.607917 A      4.664595 A        7.356967E-16 a.u.
  |    C      4     3.835889 A  2.962973E+02 A            4.379483 a.u.
  |    C      3     4.127827 A  1.725964E+03 A            9.005588 a.u.
  |    C      2     4.607917 A  2.608475E+04 A            9.531178 a.u.
  |    C      1     4.607917 A  2.736013E+06 A            2.127278 a.u.
  |    C      0     4.607917 A  4.399765E+12 A            0.661635 a.u.

  | Shrink_full_auxil_basis : there are       36  radial auxiliary wave functions
                            accepted and       7 rejected.
  | Shrink_full_auxil_basis : there are totally                8992 partial auxiliary wave functions.
 
  | Maximal number of product basis functions per thread :   512   512
 
  | Minimal total memory requirement for three-center overlap :      72.476 Gbs
  | Number of local auxiliary basis functions on task:      0   512
  | Number of local auxiliary basis functions on task:      1   512
  | Number of local auxiliary basis functions on task:      2   512
  | Number of local auxiliary basis functions on task:      3   512
  | Number of local auxiliary basis functions on task:      4   496
  | Number of local auxiliary basis functions on task:      5   496
  | Number of local auxiliary basis functions on task:      6   496
  | Number of local auxiliary basis functions on task:      7   496
  | Number of local auxiliary basis functions on task:      8   496
  | Number of local auxiliary basis functions on task:      9   496
  | Number of local auxiliary basis functions on task:     10   496
  | Number of local auxiliary basis functions on task:     11   496
  | Number of local auxiliary basis functions on task:     12   496
  | Number of local auxiliary basis functions on task:     13   496
  | Number of local auxiliary basis functions on task:     14   496
  | Number of local auxiliary basis functions on task:     15   496
  | Number of local auxiliary basis functions on task:     16   496
  | Number of local auxiliary basis functions on task:     17   496
  | 2D aux task distribution:      3 X      6
  | 2D block size (nb_aux_2d):     64
 
  Basis pair condensation :   1037520  -->     538537
  Allocating        0.069 MB for t_coeff
  Allocating        0.034 MB for basbas_idx
  Allocating        0.069 MB for wave
  Allocating        0.069 MB for total_wave
  Allocating        0.206 MB for wave_gradient
  Allocating        0.206 MB for total_wave_grad
 HERE1
 HERE2
  Deallocating        0.069 MB for t_coeff
  Deallocating        0.034 MB for basbas_idx
  Deallocating        0.069 MB for wave
  Deallocating        0.206 MB for wave_gradient
  Deallocating        0.206 MB for total_wave_grad
dP_dE (Bohr^3) at every cycle:--->
 (1010.80790637620,0.000000000000000E+000) (-3.53411738025929,0.000000000000000E+000) (-450.947280276647,0.000000000000000E+000)
 (-3.56310546806339,0.000000000000000E+000) (1354.70854423968,0.000000000000000E+000) (6.04508443480542,0.000000000000000E+000)
 (-451.126683058864,0.000000000000000E+000) (6.08826639609467,0.000000000000000E+000) (1686.69058352854,0.000000000000000E+000)
DFPT polarizability (Bohr^3)        xx        yy        zz        xy        xz        yz
  | Polarizability:--->                      1010.807906376                 1354.708544240                 1686.690583529                   -3.534117380                 -450.947280277                    6.045084435

DFPT for dielectric_constant:--->  # PARSE DFPT_dielectric_tensor
               2.371644767981567            -0.004795721900756            -0.611925840434386
              -0.004835058117577             2.838310598012587             0.008203050633759
              -0.612169286183116             0.008261647634138             3.288803144006712

                                               :  max(cpu_time)    wall_clock(cpu1)
  | Time for  dielectric calculation            :        0.000 s           0.000 s
===========================================================================

------------------------------------------------------------------------------
  Final output of selected total energy values:

  The following output summarizes some interesting total energy values
  at the end of a run (AFTER all relaxation, molecular dynamics, etc.).

  | Total energy of the DFT / Hartree-Fock s.c.f. calculation      :         -83267.506841119 eV
  | Final zero-broadening corrected energy (caution - metals only) :         -83267.506841119 eV
  | For reference only, the value of 1 Hartree used in FHI-aims is :             27.211384500 eV
  | For reference only, the overall average (free atom contribution
  | + realspace contribution) of the electrostatic potential after
  | s.c.f. convergence is                                          :             -7.707629101 eV

  Before relying on these values, please be sure to understand exactly which
  total energy value is referred to by a given number. Different objects may
  all carry the same name 'total energy'. Definitions:

  Total energy of the DFT / Hartree-Fock s.c.f. calculation:
  | Note that this energy does not include ANY quantities calculated after the
  | s.c.f. cycle, in particular not ANY RPA, MP2, etc. many-body perturbation terms.

  Final zero-broadening corrected energy:
  | For metallic systems only, a broadening of the occupation numbers at the Fermi
  | level can be extrapolated back to zero broadening by an electron-gas inspired
  | formula. For all systems that are not real metals, this value can be
  | meaningless and should be avoided.

------------------------------------------------------------------------------
  Methods described in the following list of references were used in this FHI-aims run.
  If you publish the results, please make sure to cite these reference if they apply.
  FHI-aims is an academic code, and for our developers (often, Ph.D. students
  and postdocs), scientific credit in the community is essential.
  Thank you for helping us!

  For any use of FHI-aims, please cite:

    Volker Blum, Ralf Gehrke, Felix Hanke, Paula Havu, Ville Havu,
    Xinguo Ren, Karsten Reuter, and Matthias Scheffler
    'Ab initio molecular simulations with numeric atom-centered orbitals'
    Computer Physics Communications 180, 2175-2196 (2009)
    http://doi.org/10.1016/j.cpc.2009.06.022


  For Hartree-Fock, hybrid functionals, or many-body perturbation theory used in your run, please cite:

    Xinguo Ren, Patrick Rinke, Volker Blum, Juergen Wieferink, Alex Tkatchenko,
    Andrea Sanfilippo, Karsten Reuter, and Matthias Scheffler,
    'Resolution-of-identity approach to Hartree-Fock, hybrid density functionals,
    RPA, MP2, and GW with numeric atom-centered orbital basis functions'
    New Journal of Physics 14, 053020 (2012).
    http://doi.org/10.1088/1367-2630/14/5/053020


  The provided symmetry information was generated with SPGlib:

    Atsushi Togo, Yusuke Seto, Dimitar Pashov
    SPGlib 1.7.3 obtained from http://spglib.sourceforge.net
    Copyright (C) 2008 Atsushi Togo


  The DFPT (perturbation by an electric field) part of the code was used.
  Here is the corresponding reference:

    Honghui Shang, Nathaniel Raimbault, Mariana Rossi,
    Christian Carbogno, Patrick Rinke and Matthias Scheffler,
    'All-Electron, Real-Space Perturbation Theory for Homogeneous
    Electric Fields: Theory, Implementation, and Application within dft'
    New Journal of Physics, 20(7):073040, 2018


  The ELSI infrastructure was used in your run to solve the Kohn-Sham electronic structure.
  Please check out http://elsi-interchange.org to learn more.
  If scalability is important for your project, please acknowledge ELSI by citing:

    V. W-z. Yu, F. Corsetti, A. Garcia, W. P. Huhn, M. Jacquelin, W. Jia,
    B. Lange, L. Lin, J. Lu, W. Mi, A. Seifitokaldani, A. Vazquez-Mayagoitia,
    C. Yang, H. Yang, and V. Blum
    'ELSI: A unified software interface for Kohn-Sham electronic structure solvers'
    Computer Physics Communications 222, 267-285 (2018).
    http://doi.org/10.1016/j.cpc.2017.09.007


  For the real-space grid partitioning and parallelization used in this calculation, please cite:

    Ville Havu, Volker Blum, Paula Havu, and Matthias Scheffler,
    'Efficient O(N) integration for all-electron electronic structure calculation'
    'using numerically tabulated basis functions'
    Journal of Computational Physics 228, 8367-8379 (2009).
    http://doi.org/10.1016/j.jcp.2009.08.008


  The high-level electronic structure method used in your calculation
  employed our efficient localized resolution of identity for the Coulomb operator.
  Some calculations, especially large-scale hybrid density functional theory,
  are only possible thanks to this development. For this feature, please cite:

    Arvid Ihrig, Juergen Wieferink, Igor Ying Zhang, Matti Ropo, Xinguo Ren,
    Patrick Rinke, Matthias Scheffler, and Volker Blum,
    'Accurate localized resolution of identity approach for linear-scaling
    hybrid density functionals and for many-body perturbation theory'
    New Journal of Physics 117, 093020 (2015).
    http://doi.org/10.1088/1367-2630/17/9/093020

  Of course, there are many other important community references, e.g., those cited in the
  above references. Our list is limited to references that describe implementations in the
  FHI-aims code. The reason is purely practical (length of this list) - please credit others as well.

------------------------------------------------------------
          Leaving FHI-aims.
          Date     :  20230120, Time     :  141544.834

          Computational steps:
          | Number of self-consistency cycles          :           47
          | Number of SCF (re)initializations          :            1
          | Number of coupled perturbed self-consistency cycles          :            0
          | Number of CPSCF (re)initializations          :            0

          Detailed time accounting                     :  max(cpu_time)    wall_clock(cpu1)
          | Total time                                  :     1589.040 s        1599.211 s
          | GPU initialization                          :        2.144 s           9.332 s
          | Preparation time                            :        0.074 s           0.067 s
          | Boundary condition initalization            :        0.999 s           0.999 s
          | Grid partitioning                           :        1.301 s           1.301 s
          | Preloading free-atom quantities on grid     :        4.129 s           4.130 s
          | Free-atom superposition energy              :        0.571 s           0.572 s
          | Total time for integrations                 :       16.965 s          17.511 s
          | Product basis setup: Total time             :        0.000 s           0.000 s
          | Product basis: | 2-center integrations     :(       0.000 s)  (       0.000 s)
          | Product basis: | LVL 3-center & coefficient:(       0.000 s)  (       0.000 s)
          | Total time for solution of K.-S. equations  :        3.304 s           3.308 s
          | Total time for density update               :       12.068 s          13.423 s
          | Total time for mixing & preconditioning     :       29.654 s          29.660 s
          | Total time for Hartree multipole update     :        0.092 s           0.094 s
          | Total time for Hartree multipole sum        :       42.833 s          42.843 s
          | Total time for total energy evaluation      :        0.007 s           0.002 s
          | Total time first_order_DM                   :        1.906 s           1.896 s
          | Total time first_order_density              :      295.402 s         295.428 s
          | Total time first_order_potential            :      124.101 s         124.141 s
          | Total time first_order_H                    :      563.058 s         563.208 s
          | Total time solving of Sternheimer equations :        1.909 s           1.913 s
          | Total time for dielectric constant          :        0.000 s           0.000 s
          | Total time momentum matrix                  :        0.000 s           0.000 s

          GPU acceleration has been used for charge density update.
          GPU acceleration has been used for real-space Hamiltonian integration.
          Due to GPU usage, wall_clock(cpu1) will give a more reliable estimate for timings.

          Partial memory accounting:
          | Residual value for overall tracked memory usage across tasks:     1.234863 MB (should be 0.000000 MB)
          |
          | Largest tracked array allocation:
          |   Minimum:      103.170 MB (DFPT_pulay_mixing::initialize_pulay_mixing::X_in_diffs on task  0)
          |   Maximum:      103.170 MB (DFPT_pulay_mixing::initialize_pulay_mixing::X_in_diffs on task  0)
          |   Average:      103.170 MB
          |
          | Because the residual tracked memory usage was not zero, the peak value for overall
          | tracked memory usage was not output, as it is probably incorrect.  This is likely due
          | to a missing aims_deallocate statement in the source code, which should be otherwise
          | harmless.
          |
          Note:  These values currently only include a subset of arrays which are explicitly tracked.
          The "true" memory usage will be greater.

          Have a nice day.
------------------------------------------------------------
