------------------------------------------------------------
          Invoking FHI-aims ...

          When using FHI-aims, please cite the following reference:

            Volker Blum, Ralf Gehrke, Felix Hanke, Paula Havu,
            Ville Havu, Xinguo Ren, Karsten Reuter, and Matthias Scheffler,
            'Ab Initio Molecular Simulations with Numeric Atom-Centered Orbitals',
            Computer Physics Communications 180, 2175-2196 (2009)

          In addition, many other developments in FHI-aims are likely important for
          your particular application. A partial list of references is given at the end of
          this file. Thank you for giving credit to the authors of these developments.

          For any questions about FHI-aims, please visit our slack channel at

            https://fhi-aims.slack.com

          and our main development and support site at

            https://aims-git.rz-berlin.mpg.de .

          The latter site, in particular, has a wiki to collect information, as well
          as an issue tracker to log discussions, suggest improvements, and report issues
          or bugs. https://aims-git.rz-berlin.mpg.de is also the main development site
          of the project and all new and updated code versions can be obtained there.
          Please send an email to aims-coordinators@fhi-berlin.mpg.de and we will add
          you to these sites. They are for you and everyone is welcome there.

------------------------------------------------------------



  Date     :  20230120, Time     :  132317.481
  Time zero on CPU 1             :   0.399237000000000E+00  s.
  Internal wall clock time zero  :           443452997.481  s.

  FHI-aims created a unique identifier for this run for later identification
  aims_uuid : 925A391C-1FD1-4F2D-A794-84612E1725A0

  Build configuration of the current instance of FHI-aims
  -------------------------------------------------------
  FHI-aims version      : 220829
  Commit number         : 9895fc21d
  CMake host system     : Linux-5.3.18-150300.59.68-default
  CMake version         : 3.17.0
  Fortran compiler      : /mpcdf/soft/SLE_15/packages/x86_64/intel_oneapi/2021.3/mpi/2021.3.0/bin/mpiifort (Intel) version 20.2.3.20210609
  Fortran compiler flags: -O3 -ip -fp-model precise
  C compiler            : /mpcdf/soft/SLE_15/packages/x86_64/intel/2021.3.0/bin/icc (Intel) version 20.2.3.20210609
  C compiler flags      : -O3 -ip -fp-model precise -std=gnu99
  CUDA compiler         : /mpcdf/soft/SLE_15/packages/x86_64/cuda/11.6.2/bin/nvcc
  CUDA compiler flags   : -O3 -DAdd_ -lcublas
  ELPA2 kernel          : AVX512
  Using MPI
  Using ScaLAPACK
  Using LibXC
  Using CUDA
  Using i-PI
  Using RLSY
  Linking against: /mpcdf/soft/SLE_15/packages/x86_64/cuda/11.6.2/lib64/libcublas.so
                   /mpcdf/soft/SLE_15/packages/x86_64/cuda/11.6.2/lib64/libcudart.so
                   /mpcdf/soft/SLE_15/packages/x86_64/intel_oneapi/2021.3/mkl/latest/lib/intel64/libmkl_intel_lp64.so
                   /mpcdf/soft/SLE_15/packages/x86_64/intel_oneapi/2021.3/mkl/latest/lib/intel64/libmkl_sequential.so
                   /mpcdf/soft/SLE_15/packages/x86_64/intel_oneapi/2021.3/mkl/latest/lib/intel64/libmkl_core.so
                   /mpcdf/soft/SLE_15/packages/x86_64/intel_oneapi/2021.3/mkl/latest/lib/intel64/libmkl_blacs_intelmpi_lp64.so
                   /mpcdf/soft/SLE_15/packages/x86_64/intel_oneapi/2021.3/mkl/latest/lib/intel64/libmkl_scalapack_lp64.so

  Using       18 parallel tasks.
  Task        0 on host adag003 reporting.
  Task        1 on host adag003 reporting.
  Task        2 on host adag003 reporting.
  Task        3 on host adag003 reporting.
  Task        4 on host adag003 reporting.
  Task        5 on host adag003 reporting.
  Task        6 on host adag003 reporting.
  Task        7 on host adag003 reporting.
  Task        8 on host adag003 reporting.
  Task        9 on host adag003 reporting.
  Task       10 on host adag003 reporting.
  Task       11 on host adag003 reporting.
  Task       12 on host adag003 reporting.
  Task       13 on host adag003 reporting.
  Task       14 on host adag003 reporting.
  Task       15 on host adag003 reporting.
  Task       16 on host adag003 reporting.
  Task       17 on host adag003 reporting.

  Performing system and environment tests:
  | Environment variable OMP_NUM_THREADS correctly set to 1.
  | Checking for ScaLAPACK...
  | Testing pdtran()...
  | All pdtran() tests passed.

  Obtaining array dimensions for all initial allocations:
  
  -----------------------------------------------------------------------
  Parsing control.in (first pass over file, find array dimensions only).
  The contents of control.in will be repeated verbatim below
  unless switched off by setting 'verbatim_writeout .false.' .
  in the first line of control.in .
  -----------------------------------------------------------------------
  
  #
  # Input for polarizability replays on generic oligoacene molecular crystals (light settings,  LDA+MBD).
  #
  #########################################################################################
  #
  #  Physical model
  #
    xc                 pw-lda
    spin               none
    relativistic       none
    charge             0.0
    k_grid 	     2 1 1
    DFPT dielectric
  #
  #  GPU acceleration
  #
  # Turns on GPU acceleration everywhere
    use_gpu
  
  # Turns OFF GPU acceleration of ELPA - may be necessary if GPU ELPA is slow
    elsi_elpa_gpu 0
  #
  #  Relaxation
  #
  #  relax_geometry trm 1E-3
  #  relax_unit_cell fixed_angles
  #
  #  SCF convergence        #
    charge_mix_param   0.75
    #sc_accuracy_rho 1E-4
  #
  # i-PI communication
  #
  compute_forces .false.
  # use_pimd_wrapper 130.183.223.27 26118
  #communicate_pimd_wrapper polarizability
  #output_level MD_light
  #
  # Output SALTED info
    ri_density_restart write
    ri_rho1 write
    ri_full_output .true.
  #  sc_accuracy_rho    1d-6
    default_prodbas_acc 1e-6
    default_max_l_prodbas 6
  #
  #
  ################################################################################
  #
  #  FHI-aims code project
  #  VB, Fritz-Haber Institut, 2009
  #
  #  Suggested "light" defaults for H atom (to be pasted into control.in file)
  #  Be sure to double-check any results obtained with these settings for post-processing,
  #  e.g., with the "tight" defaults and larger basis sets.
  #
  ################################################################################
    species        H
  #     global species definitions
      nucleus             1
      mass                1.00794
  #
      l_hartree           4
  #
      cut_pot             3.5  1.5  1.0
      basis_dep_cutoff    1e-4
  #
      radial_base         24 5.0
      radial_multiplier   1
      angular_grids       specified
        division   0.2421   50
        division   0.3822  110
        division   0.4799  194
        division   0.5341  302
  #      division   0.5626  434
  #      division   0.5922  590
  #      division   0.6542  770
  #      division   0.6868 1202
  #      outer_grid  770
        outer_grid  302
  ################################################################################
  #
  #  Definition of "minimal" basis
  #
  ################################################################################
  #     valence basis states
      valence      1  s   1.
  #     ion occupancy
      ion_occ      1  s   0.5
  ################################################################################
  #
  #  Suggested additional basis functions. For production calculations,
  #  uncomment them one after another (the most important basis functions are
  #  listed first).
  #
  #  Basis constructed for dimers: 0.5 A, 0.7 A, 1.0 A, 1.5 A, 2.5 A
  #
  ################################################################################
  #  "First tier" - improvements: -1014.90 meV to -62.69 meV
       hydro 2 s 2.1
       hydro 2 p 3.5
  #  "Second tier" - improvements: -12.89 meV to -1.83 meV
  #     hydro 1 s 0.85
  #     hydro 2 p 3.7
  #     hydro 2 s 1.2
  #     hydro 3 d 7
  #  "Third tier" - improvements: -0.25 meV to -0.12 meV
  #     hydro 4 f 11.2
  #     hydro 3 p 4.8
  #     hydro 4 d 9
  #     hydro 3 s 3.2
  ################################################################################
  ################################################################################
  #
  #  FHI-aims code project
  #  VB, Fritz-Haber Institut, 2009
  #
  #  Suggested "light" defaults for C atom (to be pasted into control.in file)
  #  Be sure to double-check any results obtained with these settings for post-processing,
  #  e.g., with the "tight" defaults and larger basis sets.
  #
  ################################################################################
    species        C
  #     global species definitions
      nucleus             6
      mass                12.0107
  #
      l_hartree           4
  #
      cut_pot             3.5  1.5  1.0
      basis_dep_cutoff    1e-4
  #
      radial_base         34 5.0
      radial_multiplier   1
      angular_grids specified
        division   0.3326   50
        division   0.5710  110
        division   0.7727  194
        division   0.8772  302
  #      division   0.9334  434
  #      division   0.9625  590
  #      division   0.9924  770
  #      division   1.0230  974
  #      division   1.4589 1202
  #     outer_grid  974
       outer_grid 302
  ################################################################################
  #
  #  Definition of "minimal" basis
  #
  ################################################################################
  #     valence basis states
      valence      2  s   2.
      valence      2  p   2.
  #     ion occupancy
      ion_occ      2  s   1.
      ion_occ      2  p   1.
  ################################################################################
  #
  #  Suggested additional basis functions. For production calculations,
  #  uncomment them one after another (the most important basis functions are
  #  listed first).
  #
  #  Constructed for dimers: 1.0 A, 1.25 A, 1.5 A, 2.0 A, 3.0 A
  #
  ################################################################################
  #  "First tier" - improvements: -1214.57 meV to -155.61 meV
       hydro 2 p 1.7
       hydro 3 d 6
       hydro 2 s 4.9
  #  "Second tier" - improvements: -67.75 meV to -5.23 meV
  #     hydro 4 f 9.8
  #     hydro 3 p 5.2
  #     hydro 3 s 4.3
  #     hydro 5 g 14.4
  #     hydro 3 d 6.2
  #  "Third tier" - improvements: -2.43 meV to -0.60 meV
  #     hydro 2 p 5.6
  #     hydro 2 s 1.4
  #     hydro 3 d 4.9
  #     hydro 4 f 11.2
  #  "Fourth tier" - improvements: -0.39 meV to -0.18 meV
  #     hydro 2 p 2.1
  #     hydro 5 g 16.4
  #     hydro 4 d 13.2
  #     hydro 3 s 13.6
  #     hydro 4 f 17.6
  #  Further basis functions - improvements: -0.08 meV and below
  #     hydro 3 s 2
  #     hydro 3 p 6
  #     hydro 4 d 20
  
  -----------------------------------------------------------------------
  Completed first pass over input file control.in .
  -----------------------------------------------------------------------
  
  
  -----------------------------------------------------------------------
  Parsing geometry.in (first pass over file, find array dimensions only).
  The contents of geometry.in will be repeated verbatim below
  unless switched off by setting 'verbatim_writeout .false.' .
  in the first line of geometry.in .
  -----------------------------------------------------------------------
  
  #=======================================================
  # FHI-aims file: /ada/ptmp/mpsd/alewis/naphthalene/qmdata/data/geoms/472.in
  # Created using the Atomic Simulation Environment (ASE)
  # Thu Jan 19 15:19:17 2023
  #=======================================================
  lattice_vector 8.1020000000000003 0.0000000000000000 0.0000000000000000
  lattice_vector 0.0000000000000000 11.8800000000000008 0.0000000000000000
  lattice_vector -9.7850918486534706 0.0000000000000000 14.2571119625755713
  atom -0.8113520000000000 0.0717944000000000 2.3255100000000000 C
  atom 0.1154490000000000 3.2866100000000000 4.8401699999999996 C
  atom 4.2792800000000000 5.7217799999999999 4.7980499999999999 C
  atom 3.0860200000000000 2.8961199999999998 2.4193300000000000 C
  atom -0.0036338300000000 0.8886300000000000 1.5880099999999999 C
  atom -0.6416500000000001 4.1068899999999999 5.6586600000000002 C
  atom 3.5536500000000002 4.8458399999999999 5.5924800000000001 C
  atom 3.9148800000000001 2.0139600000000000 1.7183700000000000 C
  atom 0.3239080000000000 0.5734680000000000 0.2373030000000000 C
  atom -1.0263000000000000 3.6961200000000001 6.9509600000000002 C
  atom 3.2089200000000000 5.2281700000000004 6.9370399999999997 C
  atom 4.3067700000000002 2.3189500000000001 0.3539730000000000 C
  atom -3.7881700000000000 1.5465100000000001 6.6441200000000000 C
  atom 3.0929899999999999 4.4683099999999998 0.5506630000000000 C
  atom 7.0842200000000002 4.4858599999999997 0.5543270000000000 C
  atom 0.2105630000000000 1.5916999999999999 6.5494599999999998 C
  atom -3.4168599999999998 1.2316000000000000 5.3580699999999997 C
  atom 2.6860499999999998 4.1416300000000001 1.8275999999999999 C
  atom 6.7776100000000001 4.7662699999999996 1.8537800000000000 C
  atom 0.5474880000000000 2.0328300000000001 5.2873000000000001 C
  atom -1.1244400000000001 0.3996470000000000 3.3409100000000000 H
  atom 0.3422110000000000 3.6311200000000001 3.8348800000000001 H
  atom 4.5517700000000003 5.4088900000000004 3.7811400000000002 H
  atom 2.8016100000000002 2.6025999999999998 3.4398599999999999 H
  atom 0.2940100000000000 1.8220700000000001 2.0135399999999999 H
  atom -0.9244289999999999 5.0938999999999997 5.2480099999999998 H
  atom 3.1849500000000002 3.8826800000000001 5.2285100000000000 H
  atom 4.2514200000000004 1.0511299999999999 2.0968000000000000 H
  atom -3.4531999999999998 2.4876900000000002 7.0615800000000002 H
  atom 2.8142600000000000 5.4262300000000003 0.0908814000000000 H
  atom 6.6969599999999998 3.5678700000000001 0.0998422000000000 H
  atom 0.6324990000000000 0.6528490000000000 6.8906900000000002 H
  atom -2.8738400000000000 1.9437400000000000 4.7808700000000002 H
  atom 2.0602900000000002 4.8502700000000001 2.3867699999999998 H
  atom 6.0826500000000001 4.1440500000000000 2.4356000000000000 H
  atom 1.1812700000000000 1.4039699999999999 4.6460499999999998 H
  atom -5.8098799999999997 0.1654360000000000 9.4535900000000002 C
  atom -4.7031900000000002 3.0069200000000000 11.9529999999999994 C
  atom -0.5428130000000000 5.9733499999999999 12.0654000000000003 C
  atom -1.7205900000000001 2.7857099999999999 9.5460100000000008 C
  atom -4.9871800000000004 1.0027800000000000 8.7497699999999998 C
  atom -5.4922199999999997 3.8918200000000001 12.6748999999999992 C
  atom -1.3667199999999999 5.0847100000000003 12.7287999999999997 C
  atom -0.9541490000000000 1.9707399999999999 8.7494899999999998 C
  atom -4.5820600000000002 0.6700360000000000 7.4329900000000002 C
  atom -5.8685299999999998 3.5852700000000000 14.0192999999999994 C
  atom -1.8123700000000000 5.3551200000000003 14.0671999999999997 C
  atom -0.5575070000000000 2.3914599999999999 7.4277499999999996 C
  atom -8.6429799999999997 1.4235599999999999 13.7020000000000000 C
  atom -1.7369100000000000 4.5335099999999997 7.8273799999999998 C
  atom 2.4098199999999999 4.4376300000000004 7.7858400000000003 C
  atom -4.6830100000000003 1.4337200000000001 13.8323000000000000 C
  atom -8.2671899999999994 1.0295600000000000 12.4192999999999998 C
  atom -2.1308199999999999 4.1006499999999999 9.1076700000000006 C
  atom 2.0543700000000000 4.8493399999999998 9.0830699999999993 C
  atom -4.2733100000000004 1.7923300000000000 12.5609999999999999 C
  atom -6.1119199999999996 0.4515300000000000 10.4535999999999998 H
  atom -4.4408500000000002 3.2672900000000000 10.9270999999999994 H
  atom -0.2213540000000000 5.7788300000000001 11.0417000000000005 H
  atom -1.9138900000000001 2.4432200000000002 10.5440000000000005 H
  atom -4.5505300000000002 1.9177999999999999 9.1789600000000000 H
  atom -5.7751299999999999 4.8497500000000002 12.2813999999999997 H
  atom -1.6279399999999999 4.1344500000000002 12.2316000000000003 H
  atom -0.7019480000000000 1.0011800000000000 9.1673700000000000 H
  atom -8.2905400000000000 2.3685900000000002 14.1043000000000003 H
  atom -1.9980100000000001 5.5453700000000001 7.4713000000000003 H
  atom 2.1005300000000000 3.4228399999999999 7.5040199999999997 H
  atom -4.3379099999999999 0.4901010000000000 14.3010000000000002 H
  atom -7.6500599999999999 1.6599999999999999 11.7698000000000000 H
  atom -2.6911600000000000 4.8082300000000000 9.7603600000000004 H
  atom 1.4583999999999999 4.2053300000000000 9.7251799999999999 H
  atom -3.6483699999999999 1.1142500000000000 11.9915000000000003 H
  atom -0.7966100000000000 5.9311299999999996 2.4426199999999998 C
  atom 0.2855120000000000 9.1639700000000008 4.8869800000000003 C
  atom 4.3201900000000002 11.8681999999999999 4.8024399999999998 C
  atom 3.2440000000000002 8.7693200000000004 2.5244700000000000 C
  atom -0.0164280000000000 6.8155400000000004 1.7577700000000001 C
  atom -0.5431660000000000 9.9698200000000003 5.6330600000000004 C
  atom 3.5886300000000002 10.9661000000000008 5.5533799999999998 C
  atom 4.0050999999999997 7.9113699999999998 1.7023600000000001 C
  atom 0.3477990000000000 6.5802600000000000 0.4117440000000000 C
  atom -0.9799470000000000 9.5220699999999994 6.9192400000000003 C
  atom 3.1476500000000001 11.2906999999999993 6.8653599999999999 C
  atom 4.3324699999999998 8.2707300000000004 0.3516170000000000 C
  atom -3.7525700000000000 7.3730500000000001 6.5560900000000002 C
  atom 3.1584200000000000 10.3824000000000005 0.6903690000000000 C
  atom 7.2104699999999999 10.3397000000000006 0.5238380000000000 C
  atom 0.3140020000000000 7.4389000000000003 6.6221300000000003 C
  atom -3.4137499999999998 7.0077299999999996 5.2663599999999997 C
  atom 2.8202400000000001 9.9995499999999993 1.9935700000000001 C
  atom 6.8752899999999997 10.6814000000000000 1.8185199999999999 C
  atom 0.6956380000000000 7.8942199999999998 5.3800900000000000 C
  atom -1.0642799999999999 6.1807900000000000 3.4939900000000002 H
  atom 0.6721310000000000 9.5833800000000000 3.9311699999999998 H
  atom 4.6195899999999996 11.5936000000000003 3.7902000000000000 H
  atom 3.0540400000000001 8.4275199999999995 3.5754899999999998 H
  atom 0.3577010000000000 7.7106599999999998 2.2810299999999999 H
  atom -0.8779860000000000 10.9436999999999998 5.2461200000000003 H
  atom 3.3431700000000002 9.9938199999999995 5.1034800000000002 H
  atom 4.3673000000000002 6.9621399999999998 2.0853899999999999 H
  atom -3.3946900000000002 8.3504699999999996 6.8592599999999999 H
  atom 2.8334899999999998 11.3729999999999993 0.3532770000000000 H
  atom 6.8347100000000003 9.4146000000000001 0.0936786000000000 H
  atom 0.6810170000000000 6.4931799999999997 6.9995599999999998 H
  atom -2.7876400000000001 7.6834800000000003 4.6604700000000001 H
  atom 2.2636699999999998 10.6815999999999995 2.6288999999999998 H
  atom 6.2320099999999998 10.0287000000000006 2.4101200000000000 H
  atom 1.3724900000000000 7.2760600000000002 4.7688699999999997 H
  atom -5.6454300000000002 6.1643299999999996 9.5558300000000003 C
  atom -4.9300400000000000 8.9560600000000008 11.9320000000000004 C
  atom -0.5788910000000000 11.6255000000000006 11.9293999999999993 C
  atom -1.6899900000000001 8.6626399999999997 9.4893999999999998 C
  atom -4.9299200000000001 6.9786700000000002 8.7138399999999994 C
  atom -5.6374000000000004 9.8400700000000008 12.7073000000000000 C
  atom -1.4213000000000000 10.8323000000000000 12.6769999999999996 C
  atom -0.8941360000000000 7.8468499999999999 8.7257499999999997 C
  atom -4.4822899999999999 6.5152299999999999 7.4252300000000000 C
  atom -5.8757700000000002 9.5422799999999999 14.0975999999999999 C
  atom -1.7936399999999999 11.2037999999999993 13.9870000000000001 C
  atom -0.4940490000000000 8.2876600000000007 7.4365300000000003 C
  atom -8.6302500000000002 7.4698700000000002 13.9451000000000001 C
  atom -1.8468500000000001 10.3074999999999992 7.7335300000000000 C
  atom 2.3728500000000001 10.4063999999999997 7.6539999999999999 C
  atom -4.7257499999999997 7.3946399999999999 13.7806999999999995 C
  atom -8.2810600000000001 7.1933400000000001 12.6440000000000001 C
  atom -2.1691699999999998 9.9004399999999997 9.0035799999999995 C
  atom 1.9081100000000000 10.7972000000000001 8.9011099999999992 C
  atom -4.4452999999999996 7.7293900000000004 12.4577000000000009 C
  atom -6.0101800000000001 6.5692700000000004 10.5442999999999998 H
  atom -4.6921900000000001 9.1779600000000006 10.9133999999999993 H
  atom -0.3333520000000000 11.3345000000000002 10.9230999999999998 H
  atom -1.9171600000000000 8.3711699999999993 10.5210000000000008 H
  atom -4.6330299999999998 8.0166299999999993 9.0132300000000001 H
  atom -6.0018799999999999 10.7835000000000001 12.3120999999999992 H
  atom -1.7954600000000001 9.8438400000000001 12.3323000000000000 H
  atom -0.5705460000000000 6.8479799999999997 9.0452399999999997 H
  atom -8.3413500000000003 8.4000400000000006 14.4572000000000003 H
  atom -2.2285900000000001 11.2527000000000008 7.3066399999999998 H
  atom 2.0983600000000000 9.4264500000000009 7.2758200000000004 H
  atom -4.3291800000000000 6.4345999999999997 14.1135999999999999 H
  atom -7.7365199999999996 7.9456800000000003 12.0519999999999996 H
  atom -2.8445800000000001 10.4969999999999999 9.5814400000000006 H
  atom 1.2128000000000001 10.1656999999999993 9.4766100000000009 H
  atom -3.8603600000000000 7.0256999999999996 11.8681999999999999 H
  
  -----------------------------------------------------------------------
  Completed first pass over input file geometry.in .
  -----------------------------------------------------------------------
  

  Basic array size parameters:
  | Number of species                 :        2
  | Number of atoms                   :      144
  | Number of lattice vectors         :        3
  | Max. basis fn. angular momentum   :        2
  | Max. atomic/ionic basis occupied n:        2
  | Max. number of basis fn. types    :        2
  | Max. radial fns per species/type  :        3
  | Max. logarithmic grid size        :     1277
  | Max. radial integration grid size :       34
  | Max. angular integration grid size:      302
  | Max. angular grid division number :        8
  | Radial grid for Hartree potential :     1277
  | Number of spin channels           :        1

------------------------------------------------------------
          Reading file control.in.
------------------------------------------------------------
  XC: Using Perdew-Wang parametrisation of Ceperley-Alder LDA.
  Spin treatment: No spin polarisation.
  Non-relativistic treatment of kinetic energy.
  Charge =   0.000000E+00: Neutral system requested explicitly.
  Found k-point grid:         2         1         1
  DFPT calculation will begin after the DFT/HF calculation.
  Charge density mixing - mixing parameter:     0.7500
  Forces will not be computed.
 
  Reading configuration options for species H                   .
  | Found nuclear charge :   1.0000
  | Found atomic mass :    1.00794000000000      amu
  | Found l_max for Hartree potential  :   4
  | Found cutoff potl. onset [A], width [A], scale factor :    3.50000    1.50000    1.00000
  | Threshold for basis-dependent cutoff potential is   0.100000E-03
  | Found data for basic radial integration grid :    24 points, outermost radius =    5.000 A
  | Found multiplier for basic radial grid :   1
  | Found angular grid specification: user-specified.
  | Specified grid contains     5 separate shells.
  | Check grid settings after all constraints further below.
  | Found free-atom valence shell :  1 s   1.000
  | No ionic wave fns used. Skipping ion_occ.
  | Found hydrogenic basis function :  2 s   2.100
  | Found hydrogenic basis function :  2 p   3.500
  Species H                   : Missing cutoff potential type.
  Defaulting to exp(1/x)/(1-x)^2 type cutoff potential.
  Species H : No 'logarithmic' tag. Using default grid for free atom:
  | Default logarithmic grid data [bohr] : 0.1000E-03 0.1000E+03 0.1012E+01
  Species H : On-site basis accuracy parameter (for Gram-Schmidt orthonormalisation) not specified.
  Using default value basis_acc =  0.1000000E-03.
  Species H                   : Using default innermost maximum threshold i_radial=  2 for radial functions.
  Species H                   : Default cutoff onset for free atom density etc. : 0.35000000E+01 AA.
  Species H                   : Basic radial grid will be enhanced according to radial_multiplier =   1, to contain    24 grid points.
 
  Reading configuration options for species C                   .
  | Found nuclear charge :   6.0000
  | Found atomic mass :    12.0107000000000      amu
  | Found l_max for Hartree potential  :   4
  | Found cutoff potl. onset [A], width [A], scale factor :    3.50000    1.50000    1.00000
  | Threshold for basis-dependent cutoff potential is   0.100000E-03
  | Found data for basic radial integration grid :    34 points, outermost radius =    5.000 A
  | Found multiplier for basic radial grid :   1
  | Found angular grid specification: user-specified.
  | Specified grid contains     5 separate shells.
  | Check grid settings after all constraints further below.
  | Found free-atom valence shell :  2 s   2.000
  | Found free-atom valence shell :  2 p   2.000
  | No ionic wave fns used. Skipping ion_occ.
  | No ionic wave fns used. Skipping ion_occ.
  | Found hydrogenic basis function :  2 p   1.700
  | Found hydrogenic basis function :  3 d   6.000
  | Found hydrogenic basis function :  2 s   4.900
  Species C                   : Missing cutoff potential type.
  Defaulting to exp(1/x)/(1-x)^2 type cutoff potential.
  Species C : No 'logarithmic' tag. Using default grid for free atom:
  | Default logarithmic grid data [bohr] : 0.1000E-03 0.1000E+03 0.1012E+01
  Species C : On-site basis accuracy parameter (for Gram-Schmidt orthonormalisation) not specified.
  Using default value basis_acc =  0.1000000E-03.
  Species C                   : Using default innermost maximum threshold i_radial=  2 for radial functions.
  Species C                   : Default cutoff onset for free atom density etc. : 0.35000000E+01 AA.
  Species C                   : Basic radial grid will be enhanced according to radial_multiplier =   1, to contain    34 grid points.
 
  Finished reading input file 'control.in'.
 
------------------------------------------------------------


------------------------------------------------------------
          Reading geometry description geometry.in.
------------------------------------------------------------
  | The smallest distance between any two atoms is         1.06544542 AA.
  | The first atom of this pair is atom number                     17 .
  | The second atom of this pair is atom number                    33 .
  | Wigner-Seitz cell of the first atom image           0     0     0 .
  | (The Wigner-Seitz cell of the second atom is 0 0 0  by definition.)

  Symmetry information by spglib:
  | Precision set to  0.1E-04
  | Number of Operations  : 1
  | Space group           : 1
  | International         : P1
  | Schoenflies           : C1^1
  Input structure read successfully.
  The structure contains      144 atoms,  and a total of        544.000 electrons.

  Input geometry:
  | Unit cell:
  |        8.10200000        0.00000000        0.00000000
  |        0.00000000       11.88000000        0.00000000
  |       -9.78509185        0.00000000       14.25711196
  | Atomic structure:
  |       Atom                x [A]            y [A]            z [A]
  |    1: Species C            -0.81135200        0.07179440        2.32551000
  |    2: Species C             0.11544900        3.28661000        4.84017000
  |    3: Species C             4.27928000        5.72178000        4.79805000
  |    4: Species C             3.08602000        2.89612000        2.41933000
  |    5: Species C            -0.00363383        0.88863000        1.58801000
  |    6: Species C            -0.64165000        4.10689000        5.65866000
  |    7: Species C             3.55365000        4.84584000        5.59248000
  |    8: Species C             3.91488000        2.01396000        1.71837000
  |    9: Species C             0.32390800        0.57346800        0.23730300
  |   10: Species C            -1.02630000        3.69612000        6.95096000
  |   11: Species C             3.20892000        5.22817000        6.93704000
  |   12: Species C             4.30677000        2.31895000        0.35397300
  |   13: Species C            -3.78817000        1.54651000        6.64412000
  |   14: Species C             3.09299000        4.46831000        0.55066300
  |   15: Species C             7.08422000        4.48586000        0.55432700
  |   16: Species C             0.21056300        1.59170000        6.54946000
  |   17: Species C            -3.41686000        1.23160000        5.35807000
  |   18: Species C             2.68605000        4.14163000        1.82760000
  |   19: Species C             6.77761000        4.76627000        1.85378000
  |   20: Species C             0.54748800        2.03283000        5.28730000
  |   21: Species H            -1.12444000        0.39964700        3.34091000
  |   22: Species H             0.34221100        3.63112000        3.83488000
  |   23: Species H             4.55177000        5.40889000        3.78114000
  |   24: Species H             2.80161000        2.60260000        3.43986000
  |   25: Species H             0.29401000        1.82207000        2.01354000
  |   26: Species H            -0.92442900        5.09390000        5.24801000
  |   27: Species H             3.18495000        3.88268000        5.22851000
  |   28: Species H             4.25142000        1.05113000        2.09680000
  |   29: Species H            -3.45320000        2.48769000        7.06158000
  |   30: Species H             2.81426000        5.42623000        0.09088140
  |   31: Species H             6.69696000        3.56787000        0.09984220
  |   32: Species H             0.63249900        0.65284900        6.89069000
  |   33: Species H            -2.87384000        1.94374000        4.78087000
  |   34: Species H             2.06029000        4.85027000        2.38677000
  |   35: Species H             6.08265000        4.14405000        2.43560000
  |   36: Species H             1.18127000        1.40397000        4.64605000
  |   37: Species C            -5.80988000        0.16543600        9.45359000
  |   38: Species C            -4.70319000        3.00692000       11.95300000
  |   39: Species C            -0.54281300        5.97335000       12.06540000
  |   40: Species C            -1.72059000        2.78571000        9.54601000
  |   41: Species C            -4.98718000        1.00278000        8.74977000
  |   42: Species C            -5.49222000        3.89182000       12.67490000
  |   43: Species C            -1.36672000        5.08471000       12.72880000
  |   44: Species C            -0.95414900        1.97074000        8.74949000
  |   45: Species C            -4.58206000        0.67003600        7.43299000
  |   46: Species C            -5.86853000        3.58527000       14.01930000
  |   47: Species C            -1.81237000        5.35512000       14.06720000
  |   48: Species C            -0.55750700        2.39146000        7.42775000
  |   49: Species C            -8.64298000        1.42356000       13.70200000
  |   50: Species C            -1.73691000        4.53351000        7.82738000
  |   51: Species C             2.40982000        4.43763000        7.78584000
  |   52: Species C            -4.68301000        1.43372000       13.83230000
  |   53: Species C            -8.26719000        1.02956000       12.41930000
  |   54: Species C            -2.13082000        4.10065000        9.10767000
  |   55: Species C             2.05437000        4.84934000        9.08307000
  |   56: Species C            -4.27331000        1.79233000       12.56100000
  |   57: Species H            -6.11192000        0.45153000       10.45360000
  |   58: Species H            -4.44085000        3.26729000       10.92710000
  |   59: Species H            -0.22135400        5.77883000       11.04170000
  |   60: Species H            -1.91389000        2.44322000       10.54400000
  |   61: Species H            -4.55053000        1.91780000        9.17896000
  |   62: Species H            -5.77513000        4.84975000       12.28140000
  |   63: Species H            -1.62794000        4.13445000       12.23160000
  |   64: Species H            -0.70194800        1.00118000        9.16737000
  |   65: Species H            -8.29054000        2.36859000       14.10430000
  |   66: Species H            -1.99801000        5.54537000        7.47130000
  |   67: Species H             2.10053000        3.42284000        7.50402000
  |   68: Species H            -4.33791000        0.49010100       14.30100000
  |   69: Species H            -7.65006000        1.66000000       11.76980000
  |   70: Species H            -2.69116000        4.80823000        9.76036000
  |   71: Species H             1.45840000        4.20533000        9.72518000
  |   72: Species H            -3.64837000        1.11425000       11.99150000
  |   73: Species C            -0.79661000        5.93113000        2.44262000
  |   74: Species C             0.28551200        9.16397000        4.88698000
  |   75: Species C             4.32019000       11.86820000        4.80244000
  |   76: Species C             3.24400000        8.76932000        2.52447000
  |   77: Species C            -0.01642800        6.81554000        1.75777000
  |   78: Species C            -0.54316600        9.96982000        5.63306000
  |   79: Species C             3.58863000       10.96610000        5.55338000
  |   80: Species C             4.00510000        7.91137000        1.70236000
  |   81: Species C             0.34779900        6.58026000        0.41174400
  |   82: Species C            -0.97994700        9.52207000        6.91924000
  |   83: Species C             3.14765000       11.29070000        6.86536000
  |   84: Species C             4.33247000        8.27073000        0.35161700
  |   85: Species C            -3.75257000        7.37305000        6.55609000
  |   86: Species C             3.15842000       10.38240000        0.69036900
  |   87: Species C             7.21047000       10.33970000        0.52383800
  |   88: Species C             0.31400200        7.43890000        6.62213000
  |   89: Species C            -3.41375000        7.00773000        5.26636000
  |   90: Species C             2.82024000        9.99955000        1.99357000
  |   91: Species C             6.87529000       10.68140000        1.81852000
  |   92: Species C             0.69563800        7.89422000        5.38009000
  |   93: Species H            -1.06428000        6.18079000        3.49399000
  |   94: Species H             0.67213100        9.58338000        3.93117000
  |   95: Species H             4.61959000       11.59360000        3.79020000
  |   96: Species H             3.05404000        8.42752000        3.57549000
  |   97: Species H             0.35770100        7.71066000        2.28103000
  |   98: Species H            -0.87798600       10.94370000        5.24612000
  |   99: Species H             3.34317000        9.99382000        5.10348000
  |  100: Species H             4.36730000        6.96214000        2.08539000
  |  101: Species H            -3.39469000        8.35047000        6.85926000
  |  102: Species H             2.83349000       11.37300000        0.35327700
  |  103: Species H             6.83471000        9.41460000        0.09367860
  |  104: Species H             0.68101700        6.49318000        6.99956000
  |  105: Species H            -2.78764000        7.68348000        4.66047000
  |  106: Species H             2.26367000       10.68160000        2.62890000
  |  107: Species H             6.23201000       10.02870000        2.41012000
  |  108: Species H             1.37249000        7.27606000        4.76887000
  |  109: Species C            -5.64543000        6.16433000        9.55583000
  |  110: Species C            -4.93004000        8.95606000       11.93200000
  |  111: Species C            -0.57889100       11.62550000       11.92940000
  |  112: Species C            -1.68999000        8.66264000        9.48940000
  |  113: Species C            -4.92992000        6.97867000        8.71384000
  |  114: Species C            -5.63740000        9.84007000       12.70730000
  |  115: Species C            -1.42130000       10.83230000       12.67700000
  |  116: Species C            -0.89413600        7.84685000        8.72575000
  |  117: Species C            -4.48229000        6.51523000        7.42523000
  |  118: Species C            -5.87577000        9.54228000       14.09760000
  |  119: Species C            -1.79364000       11.20380000       13.98700000
  |  120: Species C            -0.49404900        8.28766000        7.43653000
  |  121: Species C            -8.63025000        7.46987000       13.94510000
  |  122: Species C            -1.84685000       10.30750000        7.73353000
  |  123: Species C             2.37285000       10.40640000        7.65400000
  |  124: Species C            -4.72575000        7.39464000       13.78070000
  |  125: Species C            -8.28106000        7.19334000       12.64400000
  |  126: Species C            -2.16917000        9.90044000        9.00358000
  |  127: Species C             1.90811000       10.79720000        8.90111000
  |  128: Species C            -4.44530000        7.72939000       12.45770000
  |  129: Species H            -6.01018000        6.56927000       10.54430000
  |  130: Species H            -4.69219000        9.17796000       10.91340000
  |  131: Species H            -0.33335200       11.33450000       10.92310000
  |  132: Species H            -1.91716000        8.37117000       10.52100000
  |  133: Species H            -4.63303000        8.01663000        9.01323000
  |  134: Species H            -6.00188000       10.78350000       12.31210000
  |  135: Species H            -1.79546000        9.84384000       12.33230000
  |  136: Species H            -0.57054600        6.84798000        9.04524000
  |  137: Species H            -8.34135000        8.40004000       14.45720000
  |  138: Species H            -2.22859000       11.25270000        7.30664000
  |  139: Species H             2.09836000        9.42645000        7.27582000
  |  140: Species H            -4.32918000        6.43460000       14.11360000
  |  141: Species H            -7.73652000        7.94568000       12.05200000
  |  142: Species H            -2.84458000       10.49700000        9.58144000
  |  143: Species H             1.21280000       10.16570000        9.47661000
  |  144: Species H            -3.86036000        7.02570000       11.86820000

  Lattice parameters for 3D lattice (in Angstroms) :     8.102000   11.880000   17.292000
  Angle(s) between unit vectors (in degrees)       :    90.000000  124.463000   90.000000


  Quantities derived from the lattice vectors (in Angstrom^-1):
  | Reciprocal lattice vector 1:  0.775510  0.000000  0.532257
  | Reciprocal lattice vector 2:  0.000000  0.528888  0.000000
  | Reciprocal lattice vector 3: -0.000000  0.000000  0.440705
  | Unit cell volume                               :   0.137227E+04  Angstrom^3

  Fractional coordinates:
                         L1                L2                L3
       atom_frac         0.09685468        0.00604330        0.16311228  C
       atom_frac         0.42426631        0.27665067        0.33949162  C
       atom_frac         0.93462459        0.48163131        0.33653730  C
       atom_frac         0.58584055        0.24378114        0.16969285  C
       atom_frac         0.13407381        0.07480051        0.11138371  C
       atom_frac         0.40015569        0.34569781        0.39690086  C
       atom_frac         0.91235991        0.40789899        0.39225897  C
       atom_frac         0.62876449        0.16952525        0.12052722  C
       atom_frac         0.06008101        0.04827172        0.01664454  C
       atom_frac         0.46215211        0.31112121        0.48754334  C
       atom_frac         0.98371052        0.44008165        0.48656699  C
       atom_frac         0.56155424        0.19519781        0.02482782  C
       atom_frac         0.09527187        0.13017761        0.46602145  C
       atom_frac         0.42840371        0.37612037        0.03862374  C
       atom_frac         0.92133690        0.37759764        0.03888074  C
       atom_frac         0.58080198        0.13398148        0.45938196  C
       atom_frac         0.03215839        0.10367003        0.37581735  C
       atom_frac         0.48634754        0.34862205        0.12818865  C
       atom_frac         0.99357145        0.40120118        0.13002493  C
       atom_frac         0.51546824        0.17111364        0.37085351  C
       atom_frac         0.14422719        0.03364032        0.23433287  H
       atom_frac         0.36709533        0.30564983        0.26898014  H
       atom_frac         0.88211330        0.45529377        0.26521080  H
       atom_frac         0.63718725        0.21907407        0.24127327  H
       atom_frac         0.20685807        0.15337290        0.14123057  H
       atom_frac         0.33046664        0.42877946        0.36809769  H
       atom_frac         0.83602028        0.32682492        0.36672995  H
       atom_frac         0.70235966        0.08847896        0.14707046  H
       atom_frac         0.17197954        0.20940152        0.49530228  H
       atom_frac         0.35505242        0.45675337        0.00637446  H
       atom_frac         0.83503885        0.30032576        0.00700298  H
       atom_frac         0.66178601        0.05495362        0.48331598  H
       atom_frac         0.05028601        0.16361448        0.33533229  H
       atom_frac         0.45648028        0.40827189        0.16740908  H
       atom_frac         0.95708180        0.34882576        0.17083404  H
       atom_frac         0.53937252        0.11817929        0.32587596  H
       atom_frac         0.08373338        0.01392559        0.66307889  C
       atom_frac         0.43205620        0.25310774        0.83838859  C
       atom_frac         0.95507775        0.50280724        0.84627237  C
       atom_frac         0.59628839        0.23448737        0.66956127  C
       atom_frac         0.12565474        0.08440909        0.61371265  C
       atom_frac         0.39582219        0.32759428        0.88902297  C
       atom_frac         0.90958339        0.42800589        0.89280354  C
       atom_frac         0.62341317        0.16588721        0.61369301  C
       atom_frac         0.06411112        0.05640034        0.52135313  C
       atom_frac         0.46326145        0.30179040        0.98331977  C
       atom_frac         0.96795599        0.45076768        0.98667949  C
       atom_frac         0.56040298        0.20130135        0.52098560  C
       atom_frac         0.09394243        0.11982828        0.96106421  C
       atom_frac         0.44868677        0.38160859        0.54901582  C
       atom_frac         0.95698347        0.37353788        0.54610219  C
       atom_frac         0.59374481        0.12068350        0.97020351  C
       atom_frac         0.03166568        0.08666330        0.87109507  C
       atom_frac         0.50852288        0.34517256        0.63881591  C
       atom_frac         1.02300156        0.40819360        0.63709046  C
       atom_frac         0.53661915        0.15086953        0.88103397  C
       atom_frac         0.13116580        0.03800758        0.73322003  H
       atom_frac         0.37753059        0.27502441        0.76643152  H
       atom_frac         0.90803534        0.48643350        0.77446961  H
       atom_frac         0.65697107        0.20565825        0.73956072  H
       atom_frac         0.21590606        0.16143098        0.64381622  H
       atom_frac         0.32756978        0.40822811        0.86142271  H
       atom_frac         0.83522353        0.34801768        0.85792971  H
       atom_frac         0.68994055        0.08427441        0.64300330  H
       atom_frac         0.17152213        0.19937626        0.98928170  H
       atom_frac         0.38629618        0.46678199        0.52404021  H
       atom_frac         0.89493562        0.28811785        0.52633521  H
       atom_frac         0.67604339        0.04125429        1.00307833  H
       atom_frac         0.05281580        0.13973064        0.82553886  H
       atom_frac         0.49465237        0.40473316        0.68459587  H
       atom_frac         1.00383712        0.35398401        0.68212833  H
       atom_frac         0.56551013        0.09379209        0.84108900  H
       atom_frac         0.10859477        0.49925337        0.17132642  C
       atom_frac         0.44922189        0.77137795        0.34277489  C
       atom_frac         0.94004584        0.99900673        0.33684522  C
       atom_frac         0.61424598        0.73815825        0.17706742  C
       atom_frac         0.14687525        0.57369865        0.12329075  C
       atom_frac         0.41014260        0.83921044        0.39510526  C
       atom_frac         0.91336516        0.92307239        0.38951648  C
       atom_frac         0.63854378        0.66594024        0.11940427  C
       atom_frac         0.07780690        0.55389394        0.02887990  C
       atom_frac         0.46518625        0.80152104        0.48531849  C
       atom_frac         0.97007609        0.95039562        0.48153932  C
       atom_frac         0.56452672        0.69618939        0.02466257  C
       atom_frac         0.09220872        0.62062710        0.45984699  C
       atom_frac         0.44831416        0.87393939        0.04842278  C
       atom_frac         0.93433671        0.87034512        0.03674222  C
       atom_frac         0.59972504        0.62617003        0.46447906  C
       atom_frac         0.02477338        0.58987626        0.36938477  C
       atom_frac         0.51696964        0.84171296        0.13982986  C
       atom_frac         1.00264081        0.89910774        0.12755178  C
       atom_frac         0.54161420        0.66449663        0.37736184  C
       atom_frac         0.16462011        0.52026852        0.24506997  H
       atom_frac         0.41597299        0.80668182        0.27573396  H
       atom_frac         0.89125156        0.97589226        0.26584627  H
       atom_frac         0.67983314        0.70938721        0.25078642  H
       atom_frac         0.23737863        0.64904545        0.15999243  H
       atom_frac         0.33603882        0.92118687        0.36796513  H
       atom_frac         0.84495734        0.84123064        0.35796029  H
       atom_frac         0.71569574        0.58603872        0.14627016  H
       atom_frac         0.16206244        0.70290152        0.48111146  H
       atom_frac         0.37965377        0.95732323        0.02477900  H
       atom_frac         0.85151870        0.79247475        0.00657066  H
       atom_frac         0.67699692        0.54656397        0.49095217  H
       atom_frac         0.05072612        0.64675758        0.32688738  H
       atom_frac         0.50209386        0.89912458        0.18439218  H
       atom_frac         0.97335831        0.84416667        0.16904686  H
       atom_frac         0.57337834        0.61246296        0.33449060  H
       atom_frac         0.11269172        0.51888300        0.67025005  C
       atom_frac         0.40227801        0.75387710        0.83691564  C
       atom_frac         0.93910404        0.97857744        0.83673328  C
       atom_frac         0.59526973        0.72917845        0.66559062  C
       atom_frac         0.12967845        0.58743013        0.61119251  C
       atom_frac         0.38064780        0.82828872        0.89129552  C
       atom_frac         0.89845874        0.91180976        0.88917026  C
       atom_frac         0.62880931        0.66050926        0.61202788  C
       atom_frac         0.07576800        0.54842003        0.52080884  C
       atom_frac         0.46900073        0.80322222        0.98881176  C
       atom_frac         0.96347393        0.94308081        0.98105423  C
       atom_frac         0.56897913        0.69761448        0.52160143  C
       atom_frac         0.11610695        0.62877694        0.97811535  C
       atom_frac         0.42716713        0.86763468        0.54243314  C
       atom_frac         0.94125206        0.87595960        0.53685487  C
       atom_frac         0.58409846        0.62244444        0.96658426  C
       atom_frac         0.04898837        0.60550000        0.88685563  C
       atom_frac         0.49497189        0.83337037        0.63151500  C
       atom_frac         0.98953517        0.90885522        0.62432771  C
       atom_frac         0.50664039        0.65062205        0.87378847  C
       atom_frac         0.15140650        0.55296886        0.73958176  H
       atom_frac         0.34534807        0.77255556        0.76547060  H
       atom_frac         0.88416508        0.95408249        0.76615096  H
       atom_frac         0.65461910        0.70464394        0.73794749  H
       atom_frac         0.19168419        0.67480051        0.63219185  H
       atom_frac         0.30218349        0.90770202        0.86357602  H
       atom_frac         0.82307758        0.82860606        0.86499286  H
       atom_frac         0.69581323        0.57642929        0.63443705  H
       atom_frac         0.19514544        0.70707407        1.01403426  H
       atom_frac         0.34388798        0.94719697        0.51249089  H
       atom_frac         0.87533667        0.79347222        0.51032916  H
       atom_frac         0.66124601        0.54163300        0.98993401  H
       atom_frac         0.06604988        0.66882828        0.84533249  H
       atom_frac         0.46055977        0.88358586        0.67204635  H
       atom_frac         0.95246695        0.85569865        0.66469352  H
       atom_frac         0.52890009        0.59138889        0.83244068  H

 
  Finished reading input file 'geometry.in'.
 

 
  Consistency checks for stacksize environment parameter are next.
 
  | Maximum stacksize for task 0: unlimited
  | Maximum stacksize for task 1: unlimited
  | Maximum stacksize for task 2: unlimited
  | Maximum stacksize for task 3: unlimited
  | Maximum stacksize for task 4: unlimited
  | Maximum stacksize for task 5: unlimited
  | Maximum stacksize for task 6: unlimited
  | Maximum stacksize for task 7: unlimited
  | Maximum stacksize for task 8: unlimited
  | Maximum stacksize for task 9: unlimited
  | Maximum stacksize for task 10: unlimited
  | Maximum stacksize for task 11: unlimited
  | Maximum stacksize for task 12: unlimited
  | Maximum stacksize for task 13: unlimited
  | Maximum stacksize for task 14: unlimited
  | Maximum stacksize for task 15: unlimited
  | Maximum stacksize for task 16: unlimited
  | Maximum stacksize for task 17: unlimited
  | Current stacksize for task 0: unlimited
  | Current stacksize for task 1: unlimited
  | Current stacksize for task 2: unlimited
  | Current stacksize for task 3: unlimited
  | Current stacksize for task 4: unlimited
  | Current stacksize for task 5: unlimited
  | Current stacksize for task 6: unlimited
  | Current stacksize for task 7: unlimited
  | Current stacksize for task 8: unlimited
  | Current stacksize for task 9: unlimited
  | Current stacksize for task 10: unlimited
  | Current stacksize for task 11: unlimited
  | Current stacksize for task 12: unlimited
  | Current stacksize for task 13: unlimited
  | Current stacksize for task 14: unlimited
  | Current stacksize for task 15: unlimited
  | Current stacksize for task 16: unlimited
  | Current stacksize for task 17: unlimited
 
  Consistency checks for the contents of control.in are next.
 
  MPI_IN_PLACE appears to work with this MPI implementation.
  | Keeping use_mpi_in_place .true. (see manual).
  Explicit treatment of the Coulomb operator is needed, but the RI method is not specified.
  Coulomb operator: Defaulting to 'LVL fast' resolution of identity - RI_type = LVL_fast
  Species H: Using default value for prodbas_acc =   1.000000E-06.
  Species H: Using default value max_l_prodbas =     6.
  Species C: Using default value for prodbas_acc =   1.000000E-06.
  Species C: Using default value max_l_prodbas =     6.
  Target number of points in a grid batch is not set.  Since GPU acceleration is enabled, defaulting to  200
  Method for grid partitioning is not set. Defaulting to parallel hash+maxmin partitioning.
  Batch size limit is not set. Defaulting to    200
  By default, will store active basis functions for each batch.
  If in need of memory, prune_basis_once .false. can be used to disable this option.
  communication_type for Hartree potential was not specified.
  Defaulting to calc_hartree .
  Defaulting to Pulay charge density mixer.
  Pulay mixer: Number of relevant iterations not set.
  Defaulting to    8 iterations.
  Pulay mixer: Number of initial linear mixing iterations not set.
  Defaulting to    0 iterations.
  Work space size for distributed Hartree potential not set.
  Defaulting to   0.200000E+03 MB.
  Algorithm-dependent basis array size parameters:
  | n_max_pulay                         :        8
  Maximum number of self-consistency iterations not provided.
  Presetting  1000 iterations.
  Presetting      1001 iterations before the initial mixing cycle
  is restarted anyway using the sc_init_iter criterion / keyword.
  Presetting a factor      1.000 between actual scf density residual
  and density convergence criterion sc_accuracy_rho below which sc_init_iter
  takes no effect.
 * No s.c.f. convergence criteria (sc_accuracy_*) were provided in control.in.
 * The run will proceed with a reasonable default guess, but please check whether.
 * the s.c.f. cycles seem to take too much or too little time.
  Geometry relaxation not requested: no relaxation will be performed.
 * Notice: The s.c.f. convergence criterion sc_accuracy_rho was not provided.
 * We used to stop in this case, and ask the user to provide reasonable
 * scf convergence criteria. However, this led some users to employ criteria
 * that led to extremely long run times, e.g., for simple relaxation.
 * We now preset a default value for sc_accuracy_rho if it is not set.
 * You may still wish to check if this setting is too tight or too loose for your needs.
 * Based on n_atoms and forces and force-correction status, FHI-aims chose sc_accuracy_rho =  0.391918E-04 .
  No accuracy limit for integral partition fn. given. Defaulting to  0.1000E-14.
  No threshold value for u(r) in integrations given. Defaulting to  0.1000E-05.
  No occupation type (smearing scheme) given. Defaulting to Gaussian broadening, width =  0.1000E-01 eV.
  The width will be adjusted in iteration number     2 of the first full s.c.f. cycle only.
  S.C.F. convergence parameters will be adjusted in iteration number     2 of the first full s.c.f. cycle only.
  No accuracy for occupation numbers given. Defaulting to  0.1000E-12.
  No threshold value for occupation numbers given. Defaulting to  0.0000E+00.
  No accuracy for fermi level given. Defaulting to  0.1000E-19.
  Maximum # of iterations to find E_F not set. Defaulting to  200.
  Preferred method for the eigenvalue solver ('KS_method') not specified in 'control.in'.
  Calling BLACS routine to test compilation state
  Since ScaLAPACK support is enabled, defaulting to ELPA (via ELSI).
  Will not use alltoall communication since running on < 1024 CPUs.
  Threshold for basis singularities not set.
  Default threshold for basis singularities:  0.1000E-04
  partition_type (choice of integration weights) for integrals was not specified.
  | Using a version of the partition function of Stratmann and coworkers ('stratmann_sparse').
  | At each grid point, the set of atoms used to build the partition table is smoothly restricted to
  | only those atoms whose free-atom density would be non-zero at that grid point.
  Partitioning for Hartree potential was not defined. Using partition_type for integrals.
  | Adjusted default value of keyword multip_moments_threshold to:       0.10000000E-11
  | This value may affect high angular momentum components of the Hartree potential in periodic systems.
  Angular momentum expansion for Kerker preconditioner not set explicitly.
  | Using default value of   0
  No explicit requirement for turning off preconditioner.
  | By default, it will be turned off when the charge convergence reaches
  | sc_accuracy_rho  =   0.391918E-04
  No special mixing parameter while Kerker preconditioner is on.
  Using default: charge_mix_param =     0.7500.
  Threshold for auxiliary basis singularities not set.
  Default threshold for auxiliary basis singularities:  0.1000E-04
  No q(lm)/r^(l+1) cutoff set for long-range Hartree potential.
  | Using default value of  0.100000E-09 .
  | Verify using the multipole_threshold keyword.
  Defaulting to new monopole extrapolation.
  Density update method: automatic selection selected.
  Using density matrix based charge density update.
  Using density matrix based charge density update.
  Using packed matrix style: index .
  Defaulting to use time-reversal symmetry for k-point grid.
  Charge integration errors on the 3D integration grid will be compensated
  by explicit normalization and distribution of residual charges.
  Use the "compensate_multipole_errors" flag to change this behaviour.
  Default to 1D ("use_logsbt") integrations for auxiliary 2-center integrals.
  Default onset of logarithmic r-grid for SBT is -38.000000000000
  Default onset of logarithmic k-grid for SBT is -25.000000000000
  Default range of logarithmic r- and k-grid for SBT is  45.000000000000
  Default number of logarithmic r- and k-grid for SBT is   4096
  Default of use_2d_corr is to use the efficient 2D distribution where possible
 
  Consistency checks for the contents of geometry.in are next.
 

  Range separation radius for Ewald summation (hartree_convergence_parameter):      2.91768261 bohr.
  Number of empty states per atom not set in control.in .
  | Since you are using a method that relies on the unoccupied spectrum
  | (MP2,GW,RPA et al.), will use the full Hamiltonian size (see below)
  | as the max. possible number of states (occupied plus empty).

  Structure-dependent array size parameters: 
  | Maximum number of distinct radial functions  :        9
  | Maximum number of basis functions            :     1440
  | Number of Kohn-Sham states (occupied + empty):     1440
------------------------------------------------------------
CUDA runtime version: 11060
CUDA driver version: 11060
  Initializing GPUs...

  Number of GPUs available to MPI task         0 :   1
  Number of GPUs available to MPI task         1 :   1
  Number of GPUs available to MPI task         2 :   1
  Number of GPUs available to MPI task         3 :   1
  Number of GPUs available to MPI task         4 :   1
  Number of GPUs available to MPI task         5 :   1
  Number of GPUs available to MPI task         6 :   1
  Number of GPUs available to MPI task         7 :   1
  Number of GPUs available to MPI task         8 :   1
  Number of GPUs available to MPI task         9 :   1
  Number of GPUs available to MPI task        10 :   1
  Number of GPUs available to MPI task        11 :   1
  Number of GPUs available to MPI task        12 :   1
  Number of GPUs available to MPI task        13 :   1
  Number of GPUs available to MPI task        14 :   1
  Number of GPUs available to MPI task        15 :   1
  Number of GPUs available to MPI task        16 :   1
  Number of GPUs available to MPI task        17 :   1

  | MPI task         0, GPU activated = T, Device Name = NVIDIA A100-SXM4-80GB
  | MPI task         1, GPU activated = T, Device Name = NVIDIA A100-SXM4-80GB
  | MPI task         2, GPU activated = T, Device Name = NVIDIA A100-SXM4-80GB
  | MPI task         3, GPU activated = T, Device Name = NVIDIA A100-SXM4-80GB
  | MPI task         4, GPU activated = T, Device Name = NVIDIA A100-SXM4-80GB
  | MPI task         5, GPU activated = T, Device Name = NVIDIA A100-SXM4-80GB
  | MPI task         6, GPU activated = T, Device Name = NVIDIA A100-SXM4-80GB
  | MPI task         7, GPU activated = T, Device Name = NVIDIA A100-SXM4-80GB
  | MPI task         8, GPU activated = T, Device Name = NVIDIA A100-SXM4-80GB
  | MPI task         9, GPU activated = T, Device Name = NVIDIA A100-SXM4-80GB
  | MPI task        10, GPU activated = T, Device Name = NVIDIA A100-SXM4-80GB
  | MPI task        11, GPU activated = T, Device Name = NVIDIA A100-SXM4-80GB
  | MPI task        12, GPU activated = T, Device Name = NVIDIA A100-SXM4-80GB
  | MPI task        13, GPU activated = T, Device Name = NVIDIA A100-SXM4-80GB
  | MPI task        14, GPU activated = T, Device Name = NVIDIA A100-SXM4-80GB
  | MPI task        15, GPU activated = T, Device Name = NVIDIA A100-SXM4-80GB
  | MPI task        16, GPU activated = T, Device Name = NVIDIA A100-SXM4-80GB
  | MPI task        17, GPU activated = T, Device Name = NVIDIA A100-SXM4-80GB

------------------------------------------------------------
          Preparing all fixed parts of the calculation.
------------------------------------------------------------
  Determining machine precision:
    2.225073858507201E-308
  Setting up grids for atomic and cluster calculations.

  Creating wave function, potential, and density for free atoms.
  Runtime choices for atomic solver:
  | atomic solver xc        : PW-LDA
  | compute density gradient: 0
  | compute kinetic density : F

  Species: H

  List of occupied orbitals and eigenvalues:
    n    l              occ      energy [Ha]    energy [eV]
    1    0           1.0000        -0.232375        -6.3233


  Species: C

  List of occupied orbitals and eigenvalues:
    n    l              occ      energy [Ha]    energy [eV]
    1    0           2.0000        -9.944615      -270.6068
    2    0           2.0000        -0.498807       -13.5732
    2    1           2.0000        -0.196968        -5.3598


  Adding cutoff potential to free-atom effective potential.
  Creating fixed part of basis set: Ionic, confined, hydrogenic.
 
  H                    hydrogenic:
 
  List of hydrogenic basis orbitals: 
    n    l      effective z      eigenvalue [eV]  inner max. [A]     outer max. [A]     outer radius [A]   
    2    0         2.100000       -14.9728           0.193243           1.317208           4.583499
    2    1         3.500000       -41.6669           0.602369           0.602369           3.723403
 
 
  C                    hydrogenic:
 
  List of hydrogenic basis orbitals: 
    n    l      effective z      eigenvalue [eV]  inner max. [A]     outer max. [A]     outer radius [A]   
    2    1         1.700000        -9.7616           1.230570           1.230570           4.607917
    3    2         6.000000       -54.4224           0.792453           0.792453           3.883070
    2    0         4.900000       -81.6679           0.082559           0.562749           3.078220
 
  Creating atomic-like basis functions for current effective potential.

  Species H                   :

  List of atomic basis orbitals and eigenvalues:
    n    l      energy [Ha]    energy [eV]    outer radius [A]
    1    0        -0.232375        -6.3233       4.527807


  Species C                   :

  List of atomic basis orbitals and eigenvalues:
    n    l      energy [Ha]    energy [eV]    outer radius [A]
    1    0        -9.944615      -270.6068       1.934409
    2    0        -0.498807       -13.5732       4.496620
    2    1        -0.196968        -5.3598       4.551928

  Assembling full basis from fixed parts.
  | Species H :   atomic orbital   1 s accepted.
  | Species H :    hydro orbital   2 s accepted.
  | Species H :    hydro orbital   2 p accepted.
  | Species C :   atomic orbital   1 s accepted.
  | Species C :    hydro orbital   2 s accepted.
  | Species C :   atomic orbital   2 s accepted.
  | Species C :   atomic orbital   2 p accepted.
  | Species C :    hydro orbital   2 p accepted.
  | Species C :    hydro orbital   3 d accepted.
 
  Basis size parameters after reduction:
  | Total number of radial functions:        9
  | Total number of basis functions :     1440
 
  Per-task memory consumption for arrays in subroutine allocate_ext:
  |           2.242384MB.
  Testing on-site integration grid accuracy.
  |  Species  Function  <phi|h_atom|phi> (log., in eV)  <phi|h_atom|phi> (rad., in eV)
           1        1                 -6.3245358373                 -6.3232436907
           1        2                 14.1326137532                 14.1384481100
           1        3                 25.3627025200                 25.3628451197
           2        4               -270.6067544938               -270.6067222788
           2        5                -10.5634280949                -10.5635685736
           2        6                 16.2089822398                 16.2052121796
           2        7                 -5.3613872565                 -5.3627872378
           2        8                  8.5292058327                  8.5051734780
           2        9                 27.4884461005                 27.4884542459

  Preparing densities etc. for the partition functions (integrals / Hartree potential).

  Preparations completed.
  max(cpu_time)          :      0.073 s.
  Wall clock time (cpu1) :      0.066 s.
------------------------------------------------------------

  Initializing index lists of integration centers etc. from given atomic structure:
  Mapping all atomic coordinates to central unit cell.

  Initializing the k-points
  Using symmetry for reducing the k-points
  | k-points reduced from:        2 to        2
  | Number of k-points                             :         2
  | Consuming          0 KiB for k_phase_exx.
  The eigenvectors in the calculations are REAL.
  | Number of basis functions in the Hamiltonian integrals :      8035
  | Number of basis functions in a single unit cell        :      1440
  | Number of centers in hartree potential         :      3334
  | Number of centers in hartree multipole         :      2554
  | Number of centers in electron density summation:      2004
  | Number of centers in basis integrals           :      2122
  | Number of centers in integrals                 :       968
  | Number of centers in hamiltonian               :      2009
  | Consuming          1 KiB for k_phase.
  | Number of super-cells (origin) [n_cells]                     :         175
  | Number of super-cells (after PM_index) [n_cells]             :          38
  | Number of super-cells in hamiltonian [n_cells_in_hamiltonian]:          38
  | Size of matrix packed + index [n_hamiltonian_matrix_size] :     1933563
  | Size of matrix packed + index (no_symmetry):     3864309

------------------------------------------------------------
          Begin self-consistency loop: Initialization.

          Date     :  20230120, Time     :  132327.820
------------------------------------------------------------
  | Estimated reciprocal-space cutoff momentum G_max:         3.24344278 bohr^-1 .
  | Reciprocal lattice points for long-range Hartree potential:    5310
  Using simple linear distribution as default method for k-point parallelism.
  * Using 18 tasks for Scalapack Eigenvalue solver.
  Detailed listing of tasks and assigned k-points:
   Task     0 k-point     1 on adag003
   Task     1 k-point     1 on adag003
   Task     2 k-point     1 on adag003
   Task     3 k-point     1 on adag003
   Task     4 k-point     1 on adag003
   Task     5 k-point     1 on adag003
   Task     6 k-point     1 on adag003
   Task     7 k-point     1 on adag003
   Task     8 k-point     1 on adag003
   Task     9 k-point     2 on adag003
   Task    10 k-point     2 on adag003
   Task    11 k-point     2 on adag003
   Task    12 k-point     2 on adag003
   Task    13 k-point     2 on adag003
   Task    14 k-point     2 on adag003
   Task    15 k-point     2 on adag003
   Task    16 k-point     2 on adag003
   Task    17 k-point     2 on adag003
  K-point:     1 Tasks:     9 split into      3 X      3 BLACS grid
  Calculating block size based on n_basis =         1440  max_nprow =            3  max_npcol =            3
  ScaLAPACK block size set to:           16
  Allocating        1.758 MB for ovlp
  Allocating        1.758 MB for ham
  Allocating        1.758 MB for eigenvec
  Required Scalapack workspace - INTEGER:            1  REAL:             1
  Partitioning the integration grid into batches with parallel hashing+maxmin method.
  | Number of batches:     5487
  | Maximal batch size:     200
  | Minimal batch size:      99
  | Average batch size:     139.209
  | Standard deviation of batch sizes:      31.690

  Integration load balanced across    18 MPI tasks.
  Work distribution over tasks is as follows:
  Task     0 has      42442 integration points.
  Task     1 has      42407 integration points.
  Task     2 has      42444 integration points.
  Task     3 has      42446 integration points.
  Task     4 has      42426 integration points.
  Task     5 has      42435 integration points.
  Task     6 has      42403 integration points.
  Task     7 has      42455 integration points.
  Task     8 has      42488 integration points.
  Task     9 has      42430 integration points.
  Task    10 has      42451 integration points.
  Task    11 has      42431 integration points.
  Task    12 has      42423 integration points.
  Task    13 has      42381 integration points.
  Task    14 has      42434 integration points.
  Task    15 has      42438 integration points.
  Task    16 has      42456 integration points.
  Task    17 has      42450 integration points.
  Initializing partition tables, free-atom densities, potentials, etc. across the integration grid (initialize_grid_storage).
  | initialize_grid_storage: Actual outermost partition radius vs. multipole_radius_free
  | (-- VB: in principle, multipole_radius_free should be larger, hence this output)
  | Species        1: Confinement radius =              4.999999999999999 AA, multipole_radius_free =              5.054417573612229 AA.
  | Species        1: outer_partition_radius set to              5.054417573612229 AA .
  | Species        2: Confinement radius =              4.999999999999999 AA, multipole_radius_free =              5.019602836301480 AA.
  | Species        2: outer_partition_radius set to              5.019602836301480 AA .
  | The sparse table of interatomic distances needs       7638.16 kbyte instead of     36023.07 kbyte of memory.
  | Net number of integration points:   763840
  | of which are non-zero points    :   605342
  | Numerical average free-atom electrostatic potential    :     -8.61475748 eV
  Renormalizing the initial density to the exact electron count on the 3D integration grid.
  | Initial density: Formal number of electrons (from input files) :     544.0000000000
  | Integrated number of electrons on 3D grid     :     544.0022896854
  | Charge integration error                      :       0.0022896854
  | Normalization factor for density and gradient :       0.9999957910
  Renormalizing the free-atom superposition density to the exact electron count on the 3D integration grid.
  | Formal number of electrons (from input files) :     544.0000000000
  | Integrated number of electrons on 3D grid     :     544.0022896854
  | Charge integration error                      :       0.0022896854
  | Normalization factor for density and gradient :       0.9999957910
  Obtaining max. number of non-zero basis functions in each batch (get_n_compute_maxes).
  | Maximal number of non-zero basis functions:      537 in task     0
  | Maximal number of non-zero basis functions:      533 in task     1
  | Maximal number of non-zero basis functions:      540 in task     2
  | Maximal number of non-zero basis functions:      554 in task     3
  | Maximal number of non-zero basis functions:      555 in task     4
  | Maximal number of non-zero basis functions:      536 in task     5
  | Maximal number of non-zero basis functions:      547 in task     6
  | Maximal number of non-zero basis functions:      540 in task     7
  | Maximal number of non-zero basis functions:      562 in task     8
  | Maximal number of non-zero basis functions:      543 in task     9
  | Maximal number of non-zero basis functions:      544 in task    10
  | Maximal number of non-zero basis functions:      546 in task    11
  | Maximal number of non-zero basis functions:      542 in task    12
  | Maximal number of non-zero basis functions:      539 in task    13
  | Maximal number of non-zero basis functions:      539 in task    14
  | Maximal number of non-zero basis functions:      540 in task    15
  | Maximal number of non-zero basis functions:      542 in task    16
  | Maximal number of non-zero basis functions:      566 in task    17
  Integrating Hamiltonian matrix: batch-based integration.
  GPU acceleration will be used when integrating the Hamiltonian matrix.
  Reporting GPU memory usage by myid 0.  Note that it is likely not the only MPI task binding to its GPU!
  Allocating        2.307 MB on GPU for hamiltonian_shell
  Allocating        0.859 MB on GPU for wave
  Allocating        0.002 MB on GPU for partition
  Allocating        0.859 MB on GPU for h_times_psi
  Time summed over all CPUs for integration: real work       21.190 s, elapsed       21.832 s
  Deallocating memory used on GPU for Hamiltonian integration.
  Integrating overlap matrix.
  Time summed over all CPUs for integration: real work       18.750 s, elapsed       19.073 s
  Deallocating overlap matrix.

  Updating Kohn-Sham eigenvalues and eigenvectors using ELSI and the ELPA eigensolver.
  Singularity check in k-point 1 (analysis for other k-points may follow below):
  Overlap matrix is not singular
  | Lowest and highest eigenvalues :  0.7946E-03,  0.8227E+01
  Finished singularity check of overlap matrix
  | Time :     0.098 s
  Starting ELPA eigensolver
  Finished Cholesky decomposition
  | Time :     0.018 s
  Finished transformation to standard eigenproblem
  | Time :     0.022 s
  Finished solving standard eigenproblem
  | Time :     0.223 s
  Finished back-transformation of eigenvectors
  | Time :     0.020 s

  Obtaining occupation numbers and electronic chemical potential using ELSI.
  | Note that, for insulating systems, the printed 'chemical potential' value is not uniquely defined.
  | It can be anywhere in the energy gap, as long as it correctly separates occupied and unoccupied states.
  | In systems with a gap, the physically relevant chemical potential is the VBM or HOMO.

  | Chemical potential (Fermi level):    -7.64701998 eV
  Writing Kohn-Sham eigenvalues.
  K-point:       1 at    0.000000    0.000000    0.000000 (in units of recip. lattice)

  State    Occupation    Eigenvalue [Ha]    Eigenvalue [eV]
      1       2.00000         -10.069763         -274.01220
      2       2.00000         -10.068900         -273.98870
      3       2.00000         -10.068801         -273.98603
      4       2.00000         -10.068110         -273.96721
      5       2.00000         -10.067156         -273.94124
      6       2.00000         -10.067049         -273.93834
      7       2.00000         -10.067017         -273.93747
      8       2.00000         -10.066909         -273.93452
      9       2.00000         -10.066541         -273.92453
     10       2.00000         -10.066180         -273.91469
     11       2.00000         -10.066103         -273.91260
     12       2.00000         -10.065985         -273.90939
     13       2.00000         -10.065916         -273.90751
     14       2.00000         -10.065828         -273.90513
     15       2.00000         -10.065595         -273.89877
     16       2.00000         -10.065573         -273.89817
     17       2.00000         -10.065453         -273.89491
     18       2.00000         -10.064994         -273.88243
     19       2.00000         -10.064814         -273.87753
     20       2.00000         -10.064624         -273.87235
     21       2.00000         -10.064303         -273.86363
     22       2.00000         -10.064240         -273.86191
     23       2.00000         -10.064094         -273.85794
     24       2.00000         -10.064086         -273.85771
     25       2.00000         -10.063967         -273.85447
     26       2.00000         -10.063686         -273.84682
     27       2.00000         -10.063621         -273.84506
     28       2.00000         -10.063552         -273.84319
     29       2.00000         -10.063541         -273.84289
     30       2.00000         -10.062879         -273.82487
     31       2.00000         -10.062804         -273.82282
     32       2.00000         -10.062784         -273.82229
     33       2.00000         -10.062773         -273.82200
     34       2.00000         -10.062691         -273.81976
     35       2.00000         -10.062658         -273.81885
     36       2.00000         -10.062448         -273.81314
     37       2.00000         -10.062437         -273.81283
     38       2.00000         -10.062374         -273.81114
     39       2.00000         -10.062255         -273.80790
     40       2.00000         -10.062087         -273.80332
     41       2.00000         -10.062071         -273.80289
     42       2.00000         -10.062001         -273.80099
     43       2.00000         -10.061962         -273.79991
     44       2.00000         -10.061888         -273.79790
     45       2.00000         -10.061716         -273.79323
     46       2.00000         -10.061335         -273.78284
     47       2.00000         -10.061216         -273.77961
     48       2.00000         -10.060925         -273.77171
     49       2.00000         -10.060638         -273.76388
     50       2.00000         -10.060580         -273.76232
     51       2.00000         -10.060425         -273.75808
     52       2.00000         -10.060331         -273.75555
     53       2.00000         -10.059912         -273.74415
     54       2.00000         -10.059800         -273.74107
     55       2.00000         -10.059533         -273.73382
     56       2.00000         -10.059354         -273.72894
     57       2.00000         -10.059088         -273.72172
     58       2.00000         -10.059084         -273.72160
     59       2.00000         -10.058631         -273.70928
     60       2.00000         -10.058387         -273.70264
     61       2.00000         -10.058097         -273.69474
     62       2.00000         -10.057777         -273.68605
     63       2.00000         -10.057769         -273.68582
     64       2.00000         -10.057759         -273.68554
     65       2.00000         -10.057453         -273.67723
     66       2.00000         -10.057200         -273.67033
     67       2.00000         -10.056822         -273.66004
     68       2.00000         -10.056595         -273.65388
     69       2.00000         -10.056543         -273.65246
     70       2.00000         -10.056383         -273.64810
     71       2.00000         -10.055782         -273.63176
     72       2.00000         -10.055505         -273.62420
     73       2.00000         -10.055482         -273.62359
[...]
  |    H      0     4.527807 A      4.583499 A        4.713786E-16 a.u.
  |    H      2     3.678162 A  1.011968E+04 A            0.556529 a.u.
  |    H      1     3.958095 A  1.721251E+06 A            0.841931 a.u.
  |    H      0     4.527807 A  3.866455E+12 A            0.581436 a.u.
  |    C      0     2.562483 A      2.562483 A        6.563029E-17 a.u.
  |    C      0     2.967371 A      2.967371 A        1.352164E-16 a.u.
  |    C      0     3.003870 A      3.003870 A        2.312640E-17 a.u.
  |    C      1     3.272245 A      3.272245 A       -3.835259E-17 a.u.
  |    C      0     3.312494 A      3.312494 A       -2.710381E-16 a.u.
  |    C      3     4.077671 A      4.077671 A       -1.683752E-15 a.u.
  |    C      3     4.077671 A      4.077671 A        1.412852E-15 a.u.
  |    C      1     4.496620 A      4.496620 A       -3.011059E-16 a.u.
  |    C      0     4.496620 A      4.551928 A        2.873903E-17 a.u.
  |    C      2     4.551928 A      4.551928 A       -4.610785E-16 a.u.
  |    C      2     4.551928 A      4.551928 A        7.440584E-16 a.u.
  |    C      2     4.551928 A      4.551928 A       -7.110458E-16 a.u.
  |    C      2     4.551928 A      4.551928 A       -1.935424E-16 a.u.
  |    C      0     4.551928 A      4.607917 A        2.067142E-16 a.u.
  |    C      0     4.551928 A      4.607917 A       -1.109786E-16 a.u.
  |    C      1     4.551928 A      4.607917 A       -9.951742E-17 a.u.
  |    C      1     4.551928 A      4.607917 A        1.937809E-16 a.u.
  |    C      1     4.607917 A      4.607917 A       -2.813308E-16 a.u.
  |    C      1     4.607917 A      4.607917 A       -7.330363E-17 a.u.
  |    C      2     4.607917 A      4.607917 A        1.318462E-15 a.u.
  |    C      2     4.607917 A      4.607917 A       -1.318397E-15 a.u.
  |    C      0     4.607917 A      4.664595 A        3.157826E-16 a.u.
  |    C      1     4.607917 A      4.664595 A        7.356967E-16 a.u.
  |    C      4     3.835889 A  2.962973E+02 A            4.379483 a.u.
  |    C      3     4.127827 A  1.725964E+03 A            9.005588 a.u.
  |    C      2     4.607917 A  2.608475E+04 A            9.531178 a.u.
  |    C      1     4.607917 A  2.736013E+06 A            2.127278 a.u.
  |    C      0     4.607917 A  4.399765E+12 A            0.661635 a.u.

  | Shrink_full_auxil_basis : there are       36  radial auxiliary wave functions
                            accepted and       7 rejected.
  | Shrink_full_auxil_basis : there are totally                8992 partial auxiliary wave functions.
 
  | Maximal number of product basis functions per thread :   512   512
 
  | Minimal total memory requirement for three-center overlap :      72.476 Gbs
  | Number of local auxiliary basis functions on task:      0   512
  | Number of local auxiliary basis functions on task:      1   512
  | Number of local auxiliary basis functions on task:      2   512
  | Number of local auxiliary basis functions on task:      3   512
  | Number of local auxiliary basis functions on task:      4   496
  | Number of local auxiliary basis functions on task:      5   496
  | Number of local auxiliary basis functions on task:      6   496
  | Number of local auxiliary basis functions on task:      7   496
  | Number of local auxiliary basis functions on task:      8   496
  | Number of local auxiliary basis functions on task:      9   496
  | Number of local auxiliary basis functions on task:     10   496
  | Number of local auxiliary basis functions on task:     11   496
  | Number of local auxiliary basis functions on task:     12   496
  | Number of local auxiliary basis functions on task:     13   496
  | Number of local auxiliary basis functions on task:     14   496
  | Number of local auxiliary basis functions on task:     15   496
  | Number of local auxiliary basis functions on task:     16   496
  | Number of local auxiliary basis functions on task:     17   496
  | 2D aux task distribution:      3 X      6
  | 2D block size (nb_aux_2d):     64
 
  Basis pair condensation :   1037520  -->     543506
 
 --------------------------------------------
  Constructing auxiliary basis (full product) ...
 
  Product basis:
  | charge radius: extent of product basis function
  | field radius: extent of its Coulomb potential
  | Species   l  charge radius    field radius  multipol momen
  |    H      1     3.910002 A      3.910002 A       -2.487223E-16 a.u.
  |    H      1     3.958095 A      3.958095 A       -2.441841E-16 a.u.
  |    H      0     4.527807 A      4.527807 A        1.268855E-16 a.u.
  |    H      0     4.527807 A      4.583499 A       -4.900954E-17 a.u.
  |    H      0     4.527807 A      4.583499 A        4.713786E-16 a.u.
  |    H      2     3.678162 A  1.011968E+04 A            0.556529 a.u.
  |    H      1     3.958095 A  1.721251E+06 A            0.841931 a.u.
  |    H      0     4.527807 A  3.866455E+12 A            0.581436 a.u.
  |    C      0     2.562483 A      2.562483 A        6.563029E-17 a.u.
  |    C      0     2.967371 A      2.967371 A        1.352164E-16 a.u.
  |    C      0     3.003870 A      3.003870 A        2.312640E-17 a.u.
  |    C      1     3.272245 A      3.272245 A       -3.835259E-17 a.u.
  |    C      0     3.312494 A      3.312494 A       -2.710381E-16 a.u.
  |    C      3     4.077671 A      4.077671 A       -1.683752E-15 a.u.
  |    C      3     4.077671 A      4.077671 A        1.412852E-15 a.u.
  |    C      1     4.496620 A      4.496620 A       -3.011059E-16 a.u.
  |    C      0     4.496620 A      4.551928 A        2.873903E-17 a.u.
  |    C      2     4.551928 A      4.551928 A       -4.610785E-16 a.u.
  |    C      2     4.551928 A      4.551928 A        7.440584E-16 a.u.
  |    C      2     4.551928 A      4.551928 A       -7.110458E-16 a.u.
  |    C      2     4.551928 A      4.551928 A       -1.935424E-16 a.u.
  |    C      0     4.551928 A      4.607917 A        2.067142E-16 a.u.
  |    C      0     4.551928 A      4.607917 A       -1.109786E-16 a.u.
  |    C      1     4.551928 A      4.607917 A       -9.951742E-17 a.u.
  |    C      1     4.551928 A      4.607917 A        1.937809E-16 a.u.
  |    C      1     4.607917 A      4.607917 A       -2.813308E-16 a.u.
  |    C      1     4.607917 A      4.607917 A       -7.330363E-17 a.u.
  |    C      2     4.607917 A      4.607917 A        1.318462E-15 a.u.
  |    C      2     4.607917 A      4.607917 A       -1.318397E-15 a.u.
  |    C      0     4.607917 A      4.664595 A        3.157826E-16 a.u.
  |    C      1     4.607917 A      4.664595 A        7.356967E-16 a.u.
  |    C      4     3.835889 A  2.962973E+02 A            4.379483 a.u.
  |    C      3     4.127827 A  1.725964E+03 A            9.005588 a.u.
  |    C      2     4.607917 A  2.608475E+04 A            9.531178 a.u.
  |    C      1     4.607917 A  2.736013E+06 A            2.127278 a.u.
  |    C      0     4.607917 A  4.399765E+12 A            0.661635 a.u.

  | Shrink_full_auxil_basis : there are       36  radial auxiliary wave functions
                            accepted and       7 rejected.
  | Shrink_full_auxil_basis : there are totally                8992 partial auxiliary wave functions.
 
  | Maximal number of product basis functions per thread :   512   512
 
  | Minimal total memory requirement for three-center overlap :      72.476 Gbs
  | Number of local auxiliary basis functions on task:      0   512
  | Number of local auxiliary basis functions on task:      1   512
  | Number of local auxiliary basis functions on task:      2   512
  | Number of local auxiliary basis functions on task:      3   512
  | Number of local auxiliary basis functions on task:      4   496
  | Number of local auxiliary basis functions on task:      5   496
  | Number of local auxiliary basis functions on task:      6   496
  | Number of local auxiliary basis functions on task:      7   496
  | Number of local auxiliary basis functions on task:      8   496
  | Number of local auxiliary basis functions on task:      9   496
  | Number of local auxiliary basis functions on task:     10   496
  | Number of local auxiliary basis functions on task:     11   496
  | Number of local auxiliary basis functions on task:     12   496
  | Number of local auxiliary basis functions on task:     13   496
  | Number of local auxiliary basis functions on task:     14   496
  | Number of local auxiliary basis functions on task:     15   496
  | Number of local auxiliary basis functions on task:     16   496
  | Number of local auxiliary basis functions on task:     17   496
  | 2D aux task distribution:      3 X      6
  | 2D block size (nb_aux_2d):     64
 
  Basis pair condensation :   1037520  -->     543506
  Allocating        0.069 MB for t_coeff
  Allocating        0.034 MB for basbas_idx
  Allocating        0.069 MB for wave
  Allocating        0.069 MB for total_wave
  Allocating        0.206 MB for wave_gradient
  Allocating        0.206 MB for total_wave_grad
 HERE1
 HERE2
  Deallocating        0.069 MB for t_coeff
  Deallocating        0.034 MB for basbas_idx
  Deallocating        0.069 MB for wave
  Deallocating        0.206 MB for wave_gradient
  Deallocating        0.206 MB for total_wave_grad
dP_dE (Bohr^3) at every cycle:--->
 (1018.42389202392,0.000000000000000E+000) (2.94390709472153,0.000000000000000E+000) (-466.167411590661,0.000000000000000E+000)
 (2.99249530976560,0.000000000000000E+000) (1363.84369385375,0.000000000000000E+000) (-8.31177202586017,0.000000000000000E+000)
 (-466.375742657875,0.000000000000000E+000) (-8.30332312111219,0.000000000000000E+000) (1695.17716720625,0.000000000000000E+000)
DFPT polarizability (Bohr^3)        xx        yy        zz        xy        xz        yz
  | Polarizability:--->                      1018.423892024                 1363.843693854                 1695.177167206                    2.943907095                 -466.167411591                   -8.311772026

DFPT for dielectric_constant:--->  # PARSE DFPT_dielectric_tensor
               2.381979498053250             0.003994819132722            -0.632579233975504
               0.004060752304129             2.850706801182179            -0.011278897345391
              -0.632861934789920            -0.011267432361867             3.300319257034858

                                               :  max(cpu_time)    wall_clock(cpu1)
  | Time for  dielectric calculation            :        0.001 s           0.001 s
===========================================================================

------------------------------------------------------------------------------
  Final output of selected total energy values:

  The following output summarizes some interesting total energy values
  at the end of a run (AFTER all relaxation, molecular dynamics, etc.).

  | Total energy of the DFT / Hartree-Fock s.c.f. calculation      :         -83267.557919491 eV
  | Final zero-broadening corrected energy (caution - metals only) :         -83267.557919491 eV
  | For reference only, the value of 1 Hartree used in FHI-aims is :             27.211384500 eV
  | For reference only, the overall average (free atom contribution
  | + realspace contribution) of the electrostatic potential after
  | s.c.f. convergence is                                          :             -7.712514791 eV

  Before relying on these values, please be sure to understand exactly which
  total energy value is referred to by a given number. Different objects may
  all carry the same name 'total energy'. Definitions:

  Total energy of the DFT / Hartree-Fock s.c.f. calculation:
  | Note that this energy does not include ANY quantities calculated after the
  | s.c.f. cycle, in particular not ANY RPA, MP2, etc. many-body perturbation terms.

  Final zero-broadening corrected energy:
  | For metallic systems only, a broadening of the occupation numbers at the Fermi
  | level can be extrapolated back to zero broadening by an electron-gas inspired
  | formula. For all systems that are not real metals, this value can be
  | meaningless and should be avoided.

------------------------------------------------------------------------------
  Methods described in the following list of references were used in this FHI-aims run.
  If you publish the results, please make sure to cite these reference if they apply.
  FHI-aims is an academic code, and for our developers (often, Ph.D. students
  and postdocs), scientific credit in the community is essential.
  Thank you for helping us!

  For any use of FHI-aims, please cite:

    Volker Blum, Ralf Gehrke, Felix Hanke, Paula Havu, Ville Havu,
    Xinguo Ren, Karsten Reuter, and Matthias Scheffler
    'Ab initio molecular simulations with numeric atom-centered orbitals'
    Computer Physics Communications 180, 2175-2196 (2009)
    http://doi.org/10.1016/j.cpc.2009.06.022


  For Hartree-Fock, hybrid functionals, or many-body perturbation theory used in your run, please cite:

    Xinguo Ren, Patrick Rinke, Volker Blum, Juergen Wieferink, Alex Tkatchenko,
    Andrea Sanfilippo, Karsten Reuter, and Matthias Scheffler,
    'Resolution-of-identity approach to Hartree-Fock, hybrid density functionals,
    RPA, MP2, and GW with numeric atom-centered orbital basis functions'
    New Journal of Physics 14, 053020 (2012).
    http://doi.org/10.1088/1367-2630/14/5/053020


  The provided symmetry information was generated with SPGlib:

    Atsushi Togo, Yusuke Seto, Dimitar Pashov
    SPGlib 1.7.3 obtained from http://spglib.sourceforge.net
    Copyright (C) 2008 Atsushi Togo


  The DFPT (perturbation by an electric field) part of the code was used.
  Here is the corresponding reference:

    Honghui Shang, Nathaniel Raimbault, Mariana Rossi,
    Christian Carbogno, Patrick Rinke and Matthias Scheffler,
    'All-Electron, Real-Space Perturbation Theory for Homogeneous
    Electric Fields: Theory, Implementation, and Application within dft'
    New Journal of Physics, 20(7):073040, 2018


  The ELSI infrastructure was used in your run to solve the Kohn-Sham electronic structure.
  Please check out http://elsi-interchange.org to learn more.
  If scalability is important for your project, please acknowledge ELSI by citing:

    V. W-z. Yu, F. Corsetti, A. Garcia, W. P. Huhn, M. Jacquelin, W. Jia,
    B. Lange, L. Lin, J. Lu, W. Mi, A. Seifitokaldani, A. Vazquez-Mayagoitia,
    C. Yang, H. Yang, and V. Blum
    'ELSI: A unified software interface for Kohn-Sham electronic structure solvers'
    Computer Physics Communications 222, 267-285 (2018).
    http://doi.org/10.1016/j.cpc.2017.09.007


  For the real-space grid partitioning and parallelization used in this calculation, please cite:

    Ville Havu, Volker Blum, Paula Havu, and Matthias Scheffler,
    'Efficient O(N) integration for all-electron electronic structure calculation'
    'using numerically tabulated basis functions'
    Journal of Computational Physics 228, 8367-8379 (2009).
    http://doi.org/10.1016/j.jcp.2009.08.008


  The high-level electronic structure method used in your calculation
  employed our efficient localized resolution of identity for the Coulomb operator.
  Some calculations, especially large-scale hybrid density functional theory,
  are only possible thanks to this development. For this feature, please cite:

    Arvid Ihrig, Juergen Wieferink, Igor Ying Zhang, Matti Ropo, Xinguo Ren,
    Patrick Rinke, Matthias Scheffler, and Volker Blum,
    'Accurate localized resolution of identity approach for linear-scaling
    hybrid density functionals and for many-body perturbation theory'
    New Journal of Physics 117, 093020 (2015).
    http://doi.org/10.1088/1367-2630/17/9/093020

  Of course, there are many other important community references, e.g., those cited in the
  above references. Our list is limited to references that describe implementations in the
  FHI-aims code. The reason is purely practical (length of this list) - please credit others as well.

------------------------------------------------------------
          Leaving FHI-aims.
          Date     :  20230120, Time     :  134727.650

          Computational steps:
          | Number of self-consistency cycles          :           46
          | Number of SCF (re)initializations          :            1
          | Number of coupled perturbed self-consistency cycles          :            0
          | Number of CPSCF (re)initializations          :            0

          Detailed time accounting                     :  max(cpu_time)    wall_clock(cpu1)
          | Total time                                  :     1440.032 s        1450.169 s
          | GPU initialization                          :        1.643 s           9.211 s
          | Preparation time                            :        0.073 s           0.066 s
          | Boundary condition initalization            :        0.980 s           0.980 s
          | Grid partitioning                           :        1.250 s           1.250 s
          | Preloading free-atom quantities on grid     :        3.760 s           3.761 s
          | Free-atom superposition energy              :        0.474 s           0.474 s
          | Total time for integrations                 :       17.160 s          17.958 s
          | Product basis setup: Total time             :        0.000 s           0.000 s
          | Product basis: | 2-center integrations     :(       0.000 s)  (       0.000 s)
          | Product basis: | LVL 3-center & coefficient:(       0.000 s)  (       0.000 s)
          | Total time for solution of K.-S. equations  :        3.253 s           3.256 s
          | Total time for density update               :       11.762 s          13.034 s
          | Total time for mixing & preconditioning     :       10.972 s          10.976 s
          | Total time for Hartree multipole update     :        0.085 s           0.082 s
          | Total time for Hartree multipole sum        :       41.239 s          41.251 s
          | Total time for total energy evaluation      :        0.007 s           0.003 s
          | Total time first_order_DM                   :        1.866 s           1.862 s
          | Total time first_order_density              :      292.757 s         292.818 s
          | Total time first_order_potential            :      117.711 s         117.747 s
          | Total time first_order_H                    :      562.925 s         563.071 s
          | Total time solving of Sternheimer equations :        1.797 s           1.800 s
          | Total time for dielectric constant          :        0.001 s           0.001 s
          | Total time momentum matrix                  :        0.000 s           0.000 s

          GPU acceleration has been used for charge density update.
          GPU acceleration has been used for real-space Hamiltonian integration.
          Due to GPU usage, wall_clock(cpu1) will give a more reliable estimate for timings.

          Partial memory accounting:
          | Residual value for overall tracked memory usage across tasks:     1.234863 MB (should be 0.000000 MB)
          |
          | Largest tracked array allocation:
          |   Minimum:      103.263 MB (DFPT_pulay_mixing::initialize_pulay_mixing::X_in_diffs on task  0)
          |   Maximum:      103.263 MB (DFPT_pulay_mixing::initialize_pulay_mixing::X_in_diffs on task  0)
          |   Average:      103.263 MB
          |
          | Because the residual tracked memory usage was not zero, the peak value for overall
          | tracked memory usage was not output, as it is probably incorrect.  This is likely due
          | to a missing aims_deallocate statement in the source code, which should be otherwise
          | harmless.
          |
          Note:  These values currently only include a subset of arrays which are explicitly tracked.
          The "true" memory usage will be greater.

          Have a nice day.
------------------------------------------------------------
