------------------------------------------------------------
          Invoking FHI-aims ...

          When using FHI-aims, please cite the following reference:

            Volker Blum, Ralf Gehrke, Felix Hanke, Paula Havu,
            Ville Havu, Xinguo Ren, Karsten Reuter, and Matthias Scheffler,
            'Ab Initio Molecular Simulations with Numeric Atom-Centered Orbitals',
            Computer Physics Communications 180, 2175-2196 (2009)

          In addition, many other developments in FHI-aims are likely important for
          your particular application. A partial list of references is given at the end of
          this file. Thank you for giving credit to the authors of these developments.

          For any questions about FHI-aims, please visit our slack channel at

            https://fhi-aims.slack.com

          and our main development and support site at

            https://aims-git.rz-berlin.mpg.de .

          The latter site, in particular, has a wiki to collect information, as well
          as an issue tracker to log discussions, suggest improvements, and report issues
          or bugs. https://aims-git.rz-berlin.mpg.de is also the main development site
          of the project and all new and updated code versions can be obtained there.
          Please send an email to aims-coordinators@fhi-berlin.mpg.de and we will add
          you to these sites. They are for you and everyone is welcome there.

------------------------------------------------------------



  Date     :  20230125, Time     :  135514.032
  Time zero on CPU 1             :   0.401491000000000E+00  s.
  Internal wall clock time zero  :           443886914.032  s.

  FHI-aims created a unique identifier for this run for later identification
  aims_uuid : 0041FB5C-BB68-4C95-AEAF-A7A760B991F0

  Build configuration of the current instance of FHI-aims
  -------------------------------------------------------
  FHI-aims version      : 221103
  Commit number         : 42523251a
  CMake host system     : Linux-5.3.18-150300.59.68-default
  CMake version         : 3.17.0
  Fortran compiler      : /mpcdf/soft/SLE_15/packages/x86_64/intel_oneapi/2021.3/mpi/2021.3.0/bin/mpiifort (Intel) version 20.2.3.20210609
  Fortran compiler flags: -O3 -ip -fp-model precise
  C compiler            : /mpcdf/soft/SLE_15/packages/x86_64/intel/2021.3.0/bin/icc (Intel) version 20.2.3.20210609
  C compiler flags      : -O3 -ip -fp-model precise -std=gnu99
  CUDA compiler         : /mpcdf/soft/SLE_15/packages/x86_64/cuda/11.6.2/bin/nvcc
  CUDA compiler flags   : -O3 -DAdd_ -lcublas
  HIP compiler          :
  HIP compiler flags    :
  HIP GPU arch          :
  ELPA2 kernel          : AVX512
  Using MPI
  Using ScaLAPACK
  Using LibXC
  Using CUDA
  Using i-PI
  Using RLSY
  Linking against: /mpcdf/soft/SLE_15/packages/x86_64/cuda/11.6.2/lib64/libcublas.so
                   /mpcdf/soft/SLE_15/packages/x86_64/cuda/11.6.2/lib64/libcudart.so
                   /mpcdf/soft/SLE_15/packages/x86_64/intel_oneapi/2021.3/mkl/latest/lib/intel64/libmkl_intel_lp64.so
                   /mpcdf/soft/SLE_15/packages/x86_64/intel_oneapi/2021.3/mkl/latest/lib/intel64/libmkl_sequential.so
                   /mpcdf/soft/SLE_15/packages/x86_64/intel_oneapi/2021.3/mkl/latest/lib/intel64/libmkl_core.so
                   /mpcdf/soft/SLE_15/packages/x86_64/intel_oneapi/2021.3/mkl/latest/lib/intel64/libmkl_blacs_intelmpi_lp64.so
                   /mpcdf/soft/SLE_15/packages/x86_64/intel_oneapi/2021.3/mkl/latest/lib/intel64/libmkl_scalapack_lp64.so

  Using       18 parallel tasks.
  Task        0 on host adag035 reporting.
  Task        1 on host adag035 reporting.
  Task        2 on host adag035 reporting.
  Task        3 on host adag035 reporting.
  Task        4 on host adag035 reporting.
  Task        5 on host adag035 reporting.
  Task        6 on host adag035 reporting.
  Task        7 on host adag035 reporting.
  Task        8 on host adag035 reporting.
  Task        9 on host adag035 reporting.
  Task       10 on host adag035 reporting.
  Task       11 on host adag035 reporting.
  Task       12 on host adag035 reporting.
  Task       13 on host adag035 reporting.
  Task       14 on host adag035 reporting.
  Task       15 on host adag035 reporting.
  Task       16 on host adag035 reporting.
  Task       17 on host adag035 reporting.

  Obtaining array dimensions for all initial allocations:
  
  -----------------------------------------------------------------------
  Parsing control.in (first pass over file, find array dimensions only).
  The contents of control.in will be repeated verbatim below
  unless switched off by setting 'verbatim_writeout .false.' .
  in the first line of control.in .
  -----------------------------------------------------------------------
  
  #
  # Input for polarizability replays on generic oligoacene molecular crystals (light settings,  LDA+MBD).
  #
  #########################################################################################
  #
  #  Physical model
  #
    xc                 pw-lda
    spin               none
    relativistic       none
    charge             0.0
    k_grid 	     2 1 1
    DFPT dielectric
  #
  #  GPU acceleration
  #
  # Turns on GPU acceleration everywhere
    use_gpu
  
  # Turns OFF GPU acceleration of ELPA - may be necessary if GPU ELPA is slow
    elsi_elpa_gpu 0
  #
  #  Relaxation
  #
  #  relax_geometry trm 1E-3
  #  relax_unit_cell fixed_angles
  #
  #  SCF convergence        #
    charge_mix_param   0.75
    #sc_accuracy_rho 1E-4
  #
  # i-PI communication
  #
  compute_forces .false.
  # use_pimd_wrapper 130.183.223.27 26118
  #communicate_pimd_wrapper polarizability
  #output_level MD_light
  #
  # Output SALTED info
    ri_density_restart write
    ri_rho1 write
    ri_full_output .true.
  #  sc_accuracy_rho    1d-6
    default_prodbas_acc 1e-6
    default_max_l_prodbas 6
  #
  #
  ################################################################################
  #
  #  FHI-aims code project
  #  VB, Fritz-Haber Institut, 2009
  #
  #  Suggested "light" defaults for H atom (to be pasted into control.in file)
  #  Be sure to double-check any results obtained with these settings for post-processing,
  #  e.g., with the "tight" defaults and larger basis sets.
  #
  ################################################################################
    species        H
  #     global species definitions
      nucleus             1
      mass                1.00794
  #
      l_hartree           4
  #
      cut_pot             3.5  1.5  1.0
      basis_dep_cutoff    1e-4
  #
      radial_base         24 5.0
      radial_multiplier   1
      angular_grids       specified
        division   0.2421   50
        division   0.3822  110
        division   0.4799  194
        division   0.5341  302
  #      division   0.5626  434
  #      division   0.5922  590
  #      division   0.6542  770
  #      division   0.6868 1202
  #      outer_grid  770
        outer_grid  302
  ################################################################################
  #
  #  Definition of "minimal" basis
  #
  ################################################################################
  #     valence basis states
      valence      1  s   1.
  #     ion occupancy
      ion_occ      1  s   0.5
  ################################################################################
  #
  #  Suggested additional basis functions. For production calculations,
  #  uncomment them one after another (the most important basis functions are
  #  listed first).
  #
  #  Basis constructed for dimers: 0.5 A, 0.7 A, 1.0 A, 1.5 A, 2.5 A
  #
  ################################################################################
  #  "First tier" - improvements: -1014.90 meV to -62.69 meV
       hydro 2 s 2.1
       hydro 2 p 3.5
  #  "Second tier" - improvements: -12.89 meV to -1.83 meV
  #     hydro 1 s 0.85
  #     hydro 2 p 3.7
  #     hydro 2 s 1.2
  #     hydro 3 d 7
  #  "Third tier" - improvements: -0.25 meV to -0.12 meV
  #     hydro 4 f 11.2
  #     hydro 3 p 4.8
  #     hydro 4 d 9
  #     hydro 3 s 3.2
  ################################################################################
  ################################################################################
  #
  #  FHI-aims code project
  #  VB, Fritz-Haber Institut, 2009
  #
  #  Suggested "light" defaults for C atom (to be pasted into control.in file)
  #  Be sure to double-check any results obtained with these settings for post-processing,
  #  e.g., with the "tight" defaults and larger basis sets.
  #
  ################################################################################
    species        C
  #     global species definitions
      nucleus             6
      mass                12.0107
  #
      l_hartree           4
  #
      cut_pot             3.5  1.5  1.0
      basis_dep_cutoff    1e-4
  #
      radial_base         34 5.0
      radial_multiplier   1
      angular_grids specified
        division   0.3326   50
        division   0.5710  110
        division   0.7727  194
        division   0.8772  302
  #      division   0.9334  434
  #      division   0.9625  590
  #      division   0.9924  770
  #      division   1.0230  974
  #      division   1.4589 1202
  #     outer_grid  974
       outer_grid 302
  ################################################################################
  #
  #  Definition of "minimal" basis
  #
  ################################################################################
  #     valence basis states
      valence      2  s   2.
      valence      2  p   2.
  #     ion occupancy
      ion_occ      2  s   1.
      ion_occ      2  p   1.
  ################################################################################
  #
  #  Suggested additional basis functions. For production calculations,
  #  uncomment them one after another (the most important basis functions are
  #  listed first).
  #
  #  Constructed for dimers: 1.0 A, 1.25 A, 1.5 A, 2.0 A, 3.0 A
  #
  ################################################################################
  #  "First tier" - improvements: -1214.57 meV to -155.61 meV
       hydro 2 p 1.7
       hydro 3 d 6
       hydro 2 s 4.9
  #  "Second tier" - improvements: -67.75 meV to -5.23 meV
  #     hydro 4 f 9.8
  #     hydro 3 p 5.2
  #     hydro 3 s 4.3
  #     hydro 5 g 14.4
  #     hydro 3 d 6.2
  #  "Third tier" - improvements: -2.43 meV to -0.60 meV
  #     hydro 2 p 5.6
  #     hydro 2 s 1.4
  #     hydro 3 d 4.9
  #     hydro 4 f 11.2
  #  "Fourth tier" - improvements: -0.39 meV to -0.18 meV
  #     hydro 2 p 2.1
  #     hydro 5 g 16.4
  #     hydro 4 d 13.2
  #     hydro 3 s 13.6
  #     hydro 4 f 17.6
  #  Further basis functions - improvements: -0.08 meV and below
  #     hydro 3 s 2
  #     hydro 3 p 6
  #     hydro 4 d 20
  
  -----------------------------------------------------------------------
  Completed first pass over input file control.in .
  -----------------------------------------------------------------------
  
  
  -----------------------------------------------------------------------
  Parsing geometry.in (first pass over file, find array dimensions only).
  The contents of geometry.in will be repeated verbatim below
  unless switched off by setting 'verbatim_writeout .false.' .
  in the first line of geometry.in .
  -----------------------------------------------------------------------
  
  #=======================================================
  # FHI-aims file: /ada/ptmp/mpsd/alewis/naphthalene/qmdata/data/geoms/482.in
  # Created using the Atomic Simulation Environment (ASE)
  # Thu Jan 19 15:19:17 2023
  #=======================================================
  lattice_vector 8.1020000000000003 0.0000000000000000 0.0000000000000000
  lattice_vector 0.0000000000000000 11.8800000000000008 0.0000000000000000
  lattice_vector -9.7850918486534706 0.0000000000000000 14.2571119625755713
  atom -0.9395559999999999 0.1943890000000000 2.4236399999999998 C
  atom 0.2681960000000000 3.1244299999999998 4.9822100000000002 C
  atom 4.2471300000000003 5.7609399999999997 4.7905600000000002 C
  atom 3.2225199999999998 2.8483000000000001 2.3419500000000002 C
  atom -0.1182760000000000 1.0179100000000001 1.6493100000000001 C
  atom -0.4666420000000000 4.0129099999999998 5.7081099999999996 C
  atom 3.5459399999999999 4.9314299999999998 5.6454899999999997 C
  atom 3.8655200000000001 1.9083100000000000 1.5626500000000001 C
  atom 0.2507300000000000 0.6023680000000000 0.3674730000000000 C
  atom -0.8580690000000000 3.6855500000000001 7.0381900000000002 C
  atom 3.1060900000000000 5.3269200000000003 6.9157200000000003 C
  atom 4.2602000000000002 2.2458800000000001 0.2528880000000000 C
  atom -3.7850500000000000 1.5265599999999999 6.5400200000000002 C
  atom 3.1422099999999999 4.4437899999999999 0.5116030000000000 C
  atom 7.2288399999999999 4.3932000000000002 0.5829500000000000 C
  atom 0.2737430000000000 1.5032099999999999 6.7911000000000001 C
  atom -3.4766400000000002 1.2364200000000001 5.2319399999999998 C
  atom 2.8348599999999999 4.1053300000000004 1.8137000000000001 C
  atom 6.8414000000000001 4.7353800000000001 1.8446199999999999 C
  atom 0.6690350000000000 1.8537300000000001 5.5135300000000003 C
  atom -1.1319399999999999 0.5085640000000000 3.4752500000000000 H
  atom 0.5096079999999999 3.4043899999999998 3.9698099999999998 H
  atom 4.5869700000000000 5.3689700000000000 3.8158500000000002 H
  atom 2.9364300000000001 2.6111499999999999 3.3744999999999998 H
  atom 0.2537730000000000 1.9500599999999999 2.0676000000000001 H
  atom -0.7523470000000000 4.9687099999999997 5.2787499999999996 H
  atom 3.2294399999999999 3.9266700000000001 5.3459800000000000 H
  atom 4.1566700000000001 0.9482080000000001 1.9801400000000000 H
  atom -3.4384999999999999 2.4707400000000002 6.9831000000000003 H
  atom 2.7637299999999998 5.3541699999999999 0.0757347000000000 H
  atom 6.9196000000000000 3.4582000000000002 0.1266120000000000 H
  atom 0.4818270000000000 0.5238220000000000 7.2132800000000001 H
  atom -2.8899400000000002 1.9038299999999999 4.6097799999999998 H
  atom 2.2365300000000001 4.7591700000000001 2.4779499999999999 H
  atom 6.2439499999999999 4.0268400000000000 2.4303499999999998 H
  atom 1.3151100000000000 1.1679700000000000 4.9637799999999999 H
  atom -5.5815799999999998 -0.0972950000000000 9.4519500000000001 C
  atom -4.7595200000000002 3.0212300000000001 11.8512000000000004 C
  atom -0.5743570000000000 5.8532299999999999 12.0426000000000002 C
  atom -1.6584700000000001 2.9846499999999998 9.6165500000000002 C
  atom -4.9057000000000004 0.8574880000000000 8.6865600000000001 C
  atom -5.5115699999999999 3.8749500000000001 12.6151000000000000 C
  atom -1.3124000000000000 4.9391499999999997 12.7685999999999993 C
  atom -0.9500340000000000 2.0694400000000002 8.8816600000000001 C
  atom -4.5103900000000001 0.5895000000000000 7.3387700000000002 C
  atom -5.8991600000000002 3.5375500000000000 13.9669000000000008 C
  atom -1.7500400000000000 5.2446799999999998 14.0801999999999996 C
  atom -0.4802390000000000 2.4181300000000001 7.5790199999999999 C
  atom -8.7057099999999998 1.4503500000000000 13.8156999999999996 C
  atom -1.6420999999999999 4.5640200000000002 7.8123500000000003 C
  atom 2.3792000000000000 4.4935499999999999 7.8047800000000001 C
  atom -4.7145500000000000 1.3810300000000000 13.6936000000000000 C
  atom -8.4500700000000002 1.0899000000000001 12.4906000000000006 C
  atom -2.0316500000000000 4.2164999999999999 9.0848600000000008 C
  atom 2.0005999999999999 4.9472800000000001 9.0444499999999994 C
  atom -4.3358699999999999 1.7784500000000001 12.4154999999999998 C
  atom -5.8537699999999999 0.1154880000000000 10.4896999999999991 H
  atom -4.3990999999999998 3.2831800000000002 10.8504000000000005 H
  atom -0.2129620000000000 5.4915599999999998 11.0597999999999992 H
  atom -2.0151400000000002 2.7295600000000002 10.6204999999999998 H
  atom -4.5782499999999997 1.8197500000000000 9.1406700000000001 H
  atom -5.7961299999999998 4.8974500000000001 12.2806999999999995 H
  atom -1.5895800000000000 3.9933399999999999 12.3241999999999994 H
  atom -0.8234820000000000 1.0687400000000000 9.2345299999999995 H
  atom -8.3715700000000002 2.3928900000000000 14.2386999999999997 H
  atom -1.9148400000000001 5.5135199999999998 7.3547500000000001 H
  atom 2.0969099999999998 3.4712100000000001 7.4733799999999997 H
  atom -4.3654500000000001 0.4326750000000000 14.0793999999999997 H
  atom -7.7977299999999996 1.7251799999999999 11.8948000000000000 H
  atom -2.6756000000000002 4.8584399999999999 9.6705000000000005 H
  atom 1.3631000000000000 4.3181799999999999 9.7118800000000007 H
  atom -3.7110300000000001 1.0821300000000000 11.8325999999999993 H
  atom -0.9443370000000000 6.0201599999999997 2.3956800000000000 C
  atom 0.1869950000000000 8.8668700000000005 4.8271199999999999 C
  atom 4.1572800000000001 11.8937000000000008 4.6444700000000001 C
  atom 3.2308699999999999 8.9592600000000004 2.4604400000000002 C
  atom -0.0703871000000000 6.8385800000000003 1.6748099999999999 C
  atom -0.6245790000000000 9.7383799999999994 5.5350700000000002 C
  atom 3.4192700000000000 10.9895999999999994 5.3870500000000003 C
  atom 3.9956000000000000 8.0633599999999994 1.7749299999999999 C
  atom 0.3277430000000000 6.5355100000000004 0.3545460000000000 C
  atom -0.9651960000000001 9.4993800000000004 6.8729800000000001 C
  atom 3.1555900000000001 11.2169000000000008 6.7416000000000000 C
  atom 4.3300999999999998 8.3055199999999996 0.4043140000000000 C
  atom -3.8583500000000002 7.4945000000000004 6.5243700000000002 C
  atom 3.0672000000000001 10.4001000000000001 0.5378720000000000 C
  atom 7.1032599999999997 10.3604000000000003 0.7015450000000000 C
  atom 0.3314330000000000 7.4355000000000002 6.7896500000000000 C
  atom -3.5459399999999999 7.0544799999999999 5.2485900000000001 C
  atom 2.7405599999999999 10.1508000000000003 1.8481099999999999 C
  atom 6.7757600000000000 10.7807999999999993 1.9680899999999999 C
  atom 0.6617610000000000 7.7103799999999998 5.4838500000000003 C
  atom -1.2144999999999999 6.3379099999999999 3.3985900000000000 H
  atom 0.4145780000000000 9.0043299999999995 3.7571400000000001 H
  atom 4.4720700000000004 11.6410000000000000 3.6602800000000002 H
  atom 2.9942199999999999 8.7409599999999994 3.4967600000000001 H
  atom 0.2607490000000000 7.7977400000000001 2.0779399999999999 H
  atom -1.0618300000000001 10.6221999999999994 5.1186199999999999 H
  atom 3.0211299999999999 10.0858000000000008 4.9440400000000002 H
  atom 4.3687800000000001 7.1795000000000000 2.2442299999999999 H
  atom -3.6028799999999999 8.5088200000000001 6.8430099999999996 H
  atom 2.6642500000000000 11.3102999999999998 0.0516265000000000 H
  atom 6.7695699999999999 9.4075100000000003 0.2877960000000000 H
  atom 0.6947940000000000 6.5404999999999998 7.2720799999999999 H
  atom -2.9369399999999999 7.6974600000000004 4.5753399999999997 H
  atom 2.0228899999999999 10.8513999999999999 2.3231299999999999 H
  atom 6.2336900000000002 10.1173000000000002 2.6612900000000002 H
  atom 1.2162900000000001 6.9494300000000004 4.9225199999999996 H
  atom -5.6941600000000001 6.2139499999999996 9.4940999999999995 C
  atom -4.7138099999999996 8.9461300000000001 11.9582999999999995 C
  atom -0.7906660000000000 11.7310999999999996 12.0108999999999995 C
  atom -1.6459100000000000 8.9007500000000004 9.5658799999999999 C
  atom -4.9347099999999999 7.0573699999999997 8.7048400000000008 C
  atom -5.4856499999999997 9.7991299999999999 12.7149000000000001 C
  atom -1.5103200000000001 10.8666999999999998 12.7814999999999994 C
  atom -0.8484930000000001 8.0366999999999997 8.8523099999999992 C
  atom -4.6119300000000001 6.6530899999999997 7.3945699999999999 C
  atom -5.8855000000000004 9.5052000000000003 14.0406999999999993 C
  atom -1.8592700000000000 11.1862999999999992 14.1178000000000008 C
  atom -0.4937750000000000 8.2956500000000002 7.5205000000000002 C
  atom -8.6743600000000001 7.4646200000000000 13.8386999999999993 C
  atom -1.7433300000000000 10.3971999999999998 7.6287799999999999 C
  atom 2.3842699999999999 10.2980999999999998 7.5357300000000000 C
  atom -4.6387000000000000 7.4205199999999998 13.8953000000000007 C
  atom -8.2647700000000004 7.1090900000000001 12.5731999999999999 C
  atom -2.1166299999999998 10.0914999999999999 8.9434299999999993 C
  atom 2.1383200000000002 10.5635999999999992 8.8523599999999991 C
  atom -4.2862200000000001 7.7401799999999996 12.5713000000000008 C
  atom -6.0048599999999999 6.5585699999999996 10.4821000000000009 H
  atom -4.4832799999999997 9.1649200000000004 10.9335000000000004 H
  atom -0.5534150000000000 11.4484999999999992 11.0084000000000000 H
  atom -1.9225399999999999 8.6693200000000008 10.5928000000000004 H
  atom -4.5840300000000003 8.0468899999999994 9.0342000000000002 H
  atom -5.7979700000000003 10.7579999999999991 12.2929999999999993 H
  atom -1.8352100000000000 9.8960399999999993 12.3767999999999994 H
  atom -0.4027350000000000 7.1276200000000003 9.3454499999999996 H
  atom -8.4531100000000006 8.4249299999999998 14.2567000000000004 H
  atom -2.0324300000000002 11.3588000000000005 7.2054999999999998 H
  atom 1.9596300000000000 9.4028600000000004 7.0837500000000002 H
  atom -4.2600300000000004 6.4954700000000001 14.3346000000000000 H
  atom -7.6268500000000001 7.7674599999999998 11.9968000000000004 H
  atom -2.7360799999999998 10.8239999999999998 9.4976500000000001 H
  atom 1.5036600000000000 9.8875600000000006 9.4180499999999991 H
  atom -3.6086100000000001 7.0343999999999998 12.0473999999999997 H
  
  -----------------------------------------------------------------------
  Completed first pass over input file geometry.in .
  -----------------------------------------------------------------------
  

  Basic array size parameters:
  | Number of species                 :        2
  | Number of atoms                   :      144
  | Number of lattice vectors         :        3
  | Max. basis fn. angular momentum   :        2
  | Max. atomic/ionic basis occupied n:        2
  | Max. number of basis fn. types    :        2
  | Max. radial fns per species/type  :        3
  | Max. logarithmic grid size        :     1277
  | Max. radial integration grid size :       34
  | Max. angular integration grid size:      302
  | Max. angular grid division number :        8
  | Radial grid for Hartree potential :     1277
  | Number of spin channels           :        1

------------------------------------------------------------
          Reading file control.in.
------------------------------------------------------------
  XC: Using Perdew-Wang parametrisation of Ceperley-Alder LDA.
  Spin treatment: No spin polarisation.
  Non-relativistic treatment of kinetic energy.
  Charge =   0.000000E+00: Neutral system requested explicitly.
  Found k-point grid:         2         1         1
  DFPT calculation will begin after the DFT/HF calculation.
  Charge density mixing - mixing parameter:     0.7500
  Forces will not be computed.
 
  Reading configuration options for species H                   .
  | Found nuclear charge :   1.0000
  | Found atomic mass :    1.00794000000000      amu
  | Found l_max for Hartree potential  :   4
  | Found cutoff potl. onset [A], width [A], scale factor :    3.50000    1.50000    1.00000
  | Threshold for basis-dependent cutoff potential is   0.100000E-03
  | Found data for basic radial integration grid :    24 points, outermost radius =    5.000 A
  | Found multiplier for basic radial grid :   1
  | Found angular grid specification: user-specified.
  | Specified grid contains     5 separate shells.
  | Check grid settings after all constraints further below.
  | Found free-atom valence shell :  1 s   1.000
  | No ionic wave fns used. Skipping ion_occ.
  | Found hydrogenic basis function :  2 s   2.100
  | Found hydrogenic basis function :  2 p   3.500
  Species H                   : Missing cutoff potential type.
  Defaulting to exp(1/x)/(1-x)^2 type cutoff potential.
  Species H : No 'logarithmic' tag. Using default grid for free atom:
  | Default logarithmic grid data [bohr] : 0.1000E-03 0.1000E+03 0.1012E+01
  Species H : On-site basis accuracy parameter (for Gram-Schmidt orthonormalisation) not specified.
  Using default value basis_acc =  0.1000000E-03.
  Species H                   : Using default innermost maximum threshold i_radial=  2 for radial functions.
  Species H                   : Default cutoff onset for free atom density etc. : 0.35000000E+01 AA.
  Species H                   : Basic radial grid will be enhanced according to radial_multiplier =   1, to contain    24 grid points.
 
  Reading configuration options for species C                   .
  | Found nuclear charge :   6.0000
  | Found atomic mass :    12.0107000000000      amu
  | Found l_max for Hartree potential  :   4
  | Found cutoff potl. onset [A], width [A], scale factor :    3.50000    1.50000    1.00000
  | Threshold for basis-dependent cutoff potential is   0.100000E-03
  | Found data for basic radial integration grid :    34 points, outermost radius =    5.000 A
  | Found multiplier for basic radial grid :   1
  | Found angular grid specification: user-specified.
  | Specified grid contains     5 separate shells.
  | Check grid settings after all constraints further below.
  | Found free-atom valence shell :  2 s   2.000
  | Found free-atom valence shell :  2 p   2.000
  | No ionic wave fns used. Skipping ion_occ.
  | No ionic wave fns used. Skipping ion_occ.
  | Found hydrogenic basis function :  2 p   1.700
  | Found hydrogenic basis function :  3 d   6.000
  | Found hydrogenic basis function :  2 s   4.900
  Species C                   : Missing cutoff potential type.
  Defaulting to exp(1/x)/(1-x)^2 type cutoff potential.
  Species C : No 'logarithmic' tag. Using default grid for free atom:
  | Default logarithmic grid data [bohr] : 0.1000E-03 0.1000E+03 0.1012E+01
  Species C : On-site basis accuracy parameter (for Gram-Schmidt orthonormalisation) not specified.
  Using default value basis_acc =  0.1000000E-03.
  Species C                   : Using default innermost maximum threshold i_radial=  2 for radial functions.
  Species C                   : Default cutoff onset for free atom density etc. : 0.35000000E+01 AA.
  Species C                   : Basic radial grid will be enhanced according to radial_multiplier =   1, to contain    34 grid points.
 
  Finished reading input file 'control.in'.
 
------------------------------------------------------------


------------------------------------------------------------
          Reading geometry description geometry.in.
------------------------------------------------------------
  | The smallest distance between any two atoms is         1.06375749 AA.
  | The first atom of this pair is atom number                     75 .
  | The second atom of this pair is atom number                    95 .
  | Wigner-Seitz cell of the first atom image           0     0     0 .
  | (The Wigner-Seitz cell of the second atom is 0 0 0  by definition.)

  Symmetry information by spglib:
  | Precision set to  0.1E-04
  | Number of Operations  : 1
  | Space group           : 1
  | International         : P1
  | Schoenflies           : C1^1
  Input structure read successfully.
  The structure contains      144 atoms,  and a total of        544.000 electrons.

  Input geometry:
  | Unit cell:
  |        8.10200000        0.00000000        0.00000000
  |        0.00000000       11.88000000        0.00000000
  |       -9.78509185        0.00000000       14.25711196
  | Atomic structure:
  |       Atom                x [A]            y [A]            z [A]
  |    1: Species C            -0.93955600        0.19438900        2.42364000
  |    2: Species C             0.26819600        3.12443000        4.98221000
  |    3: Species C             4.24713000        5.76094000        4.79056000
  |    4: Species C             3.22252000        2.84830000        2.34195000
  |    5: Species C            -0.11827600        1.01791000        1.64931000
  |    6: Species C            -0.46664200        4.01291000        5.70811000
  |    7: Species C             3.54594000        4.93143000        5.64549000
  |    8: Species C             3.86552000        1.90831000        1.56265000
  |    9: Species C             0.25073000        0.60236800        0.36747300
  |   10: Species C            -0.85806900        3.68555000        7.03819000
  |   11: Species C             3.10609000        5.32692000        6.91572000
  |   12: Species C             4.26020000        2.24588000        0.25288800
  |   13: Species C            -3.78505000        1.52656000        6.54002000
  |   14: Species C             3.14221000        4.44379000        0.51160300
  |   15: Species C             7.22884000        4.39320000        0.58295000
  |   16: Species C             0.27374300        1.50321000        6.79110000
  |   17: Species C            -3.47664000        1.23642000        5.23194000
  |   18: Species C             2.83486000        4.10533000        1.81370000
  |   19: Species C             6.84140000        4.73538000        1.84462000
  |   20: Species C             0.66903500        1.85373000        5.51353000
  |   21: Species H            -1.13194000        0.50856400        3.47525000
  |   22: Species H             0.50960800        3.40439000        3.96981000
  |   23: Species H             4.58697000        5.36897000        3.81585000
  |   24: Species H             2.93643000        2.61115000        3.37450000
  |   25: Species H             0.25377300        1.95006000        2.06760000
  |   26: Species H            -0.75234700        4.96871000        5.27875000
  |   27: Species H             3.22944000        3.92667000        5.34598000
  |   28: Species H             4.15667000        0.94820800        1.98014000
  |   29: Species H            -3.43850000        2.47074000        6.98310000
  |   30: Species H             2.76373000        5.35417000        0.07573470
  |   31: Species H             6.91960000        3.45820000        0.12661200
  |   32: Species H             0.48182700        0.52382200        7.21328000
  |   33: Species H            -2.88994000        1.90383000        4.60978000
  |   34: Species H             2.23653000        4.75917000        2.47795000
  |   35: Species H             6.24395000        4.02684000        2.43035000
  |   36: Species H             1.31511000        1.16797000        4.96378000
  |   37: Species C            -5.58158000       -0.09729500        9.45195000
  |   38: Species C            -4.75952000        3.02123000       11.85120000
  |   39: Species C            -0.57435700        5.85323000       12.04260000
  |   40: Species C            -1.65847000        2.98465000        9.61655000
  |   41: Species C            -4.90570000        0.85748800        8.68656000
  |   42: Species C            -5.51157000        3.87495000       12.61510000
  |   43: Species C            -1.31240000        4.93915000       12.76860000
  |   44: Species C            -0.95003400        2.06944000        8.88166000
  |   45: Species C            -4.51039000        0.58950000        7.33877000
  |   46: Species C            -5.89916000        3.53755000       13.96690000
  |   47: Species C            -1.75004000        5.24468000       14.08020000
  |   48: Species C            -0.48023900        2.41813000        7.57902000
  |   49: Species C            -8.70571000        1.45035000       13.81570000
  |   50: Species C            -1.64210000        4.56402000        7.81235000
  |   51: Species C             2.37920000        4.49355000        7.80478000
  |   52: Species C            -4.71455000        1.38103000       13.69360000
  |   53: Species C            -8.45007000        1.08990000       12.49060000
  |   54: Species C            -2.03165000        4.21650000        9.08486000
  |   55: Species C             2.00060000        4.94728000        9.04445000
  |   56: Species C            -4.33587000        1.77845000       12.41550000
  |   57: Species H            -5.85377000        0.11548800       10.48970000
  |   58: Species H            -4.39910000        3.28318000       10.85040000
  |   59: Species H            -0.21296200        5.49156000       11.05980000
  |   60: Species H            -2.01514000        2.72956000       10.62050000
  |   61: Species H            -4.57825000        1.81975000        9.14067000
  |   62: Species H            -5.79613000        4.89745000       12.28070000
  |   63: Species H            -1.58958000        3.99334000       12.32420000
  |   64: Species H            -0.82348200        1.06874000        9.23453000
  |   65: Species H            -8.37157000        2.39289000       14.23870000
  |   66: Species H            -1.91484000        5.51352000        7.35475000
  |   67: Species H             2.09691000        3.47121000        7.47338000
  |   68: Species H            -4.36545000        0.43267500       14.07940000
  |   69: Species H            -7.79773000        1.72518000       11.89480000
  |   70: Species H            -2.67560000        4.85844000        9.67050000
  |   71: Species H             1.36310000        4.31818000        9.71188000
  |   72: Species H            -3.71103000        1.08213000       11.83260000
  |   73: Species C            -0.94433700        6.02016000        2.39568000
  |   74: Species C             0.18699500        8.86687000        4.82712000
  |   75: Species C             4.15728000       11.89370000        4.64447000
  |   76: Species C             3.23087000        8.95926000        2.46044000
  |   77: Species C            -0.07038710        6.83858000        1.67481000
  |   78: Species C            -0.62457900        9.73838000        5.53507000
  |   79: Species C             3.41927000       10.98960000        5.38705000
  |   80: Species C             3.99560000        8.06336000        1.77493000
  |   81: Species C             0.32774300        6.53551000        0.35454600
  |   82: Species C            -0.96519600        9.49938000        6.87298000
  |   83: Species C             3.15559000       11.21690000        6.74160000
  |   84: Species C             4.33010000        8.30552000        0.40431400
  |   85: Species C            -3.85835000        7.49450000        6.52437000
  |   86: Species C             3.06720000       10.40010000        0.53787200
  |   87: Species C             7.10326000       10.36040000        0.70154500
  |   88: Species C             0.33143300        7.43550000        6.78965000
  |   89: Species C            -3.54594000        7.05448000        5.24859000
  |   90: Species C             2.74056000       10.15080000        1.84811000
  |   91: Species C             6.77576000       10.78080000        1.96809000
  |   92: Species C             0.66176100        7.71038000        5.48385000
  |   93: Species H            -1.21450000        6.33791000        3.39859000
  |   94: Species H             0.41457800        9.00433000        3.75714000
  |   95: Species H             4.47207000       11.64100000        3.66028000
  |   96: Species H             2.99422000        8.74096000        3.49676000
  |   97: Species H             0.26074900        7.79774000        2.07794000
  |   98: Species H            -1.06183000       10.62220000        5.11862000
  |   99: Species H             3.02113000       10.08580000        4.94404000
  |  100: Species H             4.36878000        7.17950000        2.24423000
  |  101: Species H            -3.60288000        8.50882000        6.84301000
  |  102: Species H             2.66425000       11.31030000        0.05162650
  |  103: Species H             6.76957000        9.40751000        0.28779600
  |  104: Species H             0.69479400        6.54050000        7.27208000
  |  105: Species H            -2.93694000        7.69746000        4.57534000
  |  106: Species H             2.02289000       10.85140000        2.32313000
  |  107: Species H             6.23369000       10.11730000        2.66129000
  |  108: Species H             1.21629000        6.94943000        4.92252000
  |  109: Species C            -5.69416000        6.21395000        9.49410000
  |  110: Species C            -4.71381000        8.94613000       11.95830000
  |  111: Species C            -0.79066600       11.73110000       12.01090000
  |  112: Species C            -1.64591000        8.90075000        9.56588000
  |  113: Species C            -4.93471000        7.05737000        8.70484000
  |  114: Species C            -5.48565000        9.79913000       12.71490000
  |  115: Species C            -1.51032000       10.86670000       12.78150000
  |  116: Species C            -0.84849300        8.03670000        8.85231000
  |  117: Species C            -4.61193000        6.65309000        7.39457000
  |  118: Species C            -5.88550000        9.50520000       14.04070000
  |  119: Species C            -1.85927000       11.18630000       14.11780000
  |  120: Species C            -0.49377500        8.29565000        7.52050000
  |  121: Species C            -8.67436000        7.46462000       13.83870000
  |  122: Species C            -1.74333000       10.39720000        7.62878000
  |  123: Species C             2.38427000       10.29810000        7.53573000
  |  124: Species C            -4.63870000        7.42052000       13.89530000
  |  125: Species C            -8.26477000        7.10909000       12.57320000
  |  126: Species C            -2.11663000       10.09150000        8.94343000
  |  127: Species C             2.13832000       10.56360000        8.85236000
  |  128: Species C            -4.28622000        7.74018000       12.57130000
  |  129: Species H            -6.00486000        6.55857000       10.48210000
  |  130: Species H            -4.48328000        9.16492000       10.93350000
  |  131: Species H            -0.55341500       11.44850000       11.00840000
  |  132: Species H            -1.92254000        8.66932000       10.59280000
  |  133: Species H            -4.58403000        8.04689000        9.03420000
  |  134: Species H            -5.79797000       10.75800000       12.29300000
  |  135: Species H            -1.83521000        9.89604000       12.37680000
  |  136: Species H            -0.40273500        7.12762000        9.34545000
  |  137: Species H            -8.45311000        8.42493000       14.25670000
  |  138: Species H            -2.03243000       11.35880000        7.20550000
  |  139: Species H             1.95963000        9.40286000        7.08375000
  |  140: Species H            -4.26003000        6.49547000       14.33460000
  |  141: Species H            -7.62685000        7.76746000       11.99680000
  |  142: Species H            -2.73608000       10.82400000        9.49765000
  |  143: Species H             1.50366000        9.88756000        9.41805000
  |  144: Species H            -3.60861000        7.03440000       12.04740000

  Lattice parameters for 3D lattice (in Angstroms) :     8.102000   11.880000   17.292000
  Angle(s) between unit vectors (in degrees)       :    90.000000  124.463000   90.000000


  Quantities derived from the lattice vectors (in Angstrom^-1):
  | Reciprocal lattice vector 1:  0.775510  0.000000  0.532257
  | Reciprocal lattice vector 2:  0.000000  0.528888  0.000000
  | Reciprocal lattice vector 3: -0.000000  0.000000  0.440705
  | Unit cell volume                               :   0.137227E+04  Angstrom^3

  Fractional coordinates:
                         L1                L2                L3
       atom_frac         0.08934365        0.01636271        0.16999516  C
       atom_frac         0.45515170        0.26299916        0.34945436  C
       atom_frac         0.93002195        0.48492761        0.33601195  C
       atom_frac         0.59613329        0.23975589        0.16426539  C
       atom_frac         0.12511675        0.08568266        0.11568332  C
       atom_frac         0.42594525        0.33778704        0.40036930  C
       atom_frac         0.91589884        0.41510354        0.39597711  C
       atom_frac         0.60948093        0.16063215        0.10960495  C
       atom_frac         0.06207578        0.05070438        0.02577472  C
       atom_frac         0.49030560        0.31023148        0.49366169  C
       atom_frac         0.96921255        0.44839394        0.48507159  C
       atom_frac         0.54724324        0.18904714        0.01773767  C
       atom_frac         0.08683852        0.12849832        0.45871983  C
       atom_frac         0.43116993        0.37405640        0.03588406  C
       atom_frac         0.94161150        0.36979798        0.04088837  C
       atom_frac         0.60906968        0.12653283        0.47633069  C
       atom_frac         0.01409533        0.10407576        0.36697053  C
       atom_frac         0.50353712        0.34556650        0.12721370  C
       atom_frac         1.00066886        0.39860101        0.12938244  C
       atom_frac         0.54963456        0.15603788        0.38672138  C
       atom_frac         0.15468160        0.04280842        0.24375554  H
       atom_frac         0.39918662        0.28656481        0.27844419  H
       atom_frac         0.88939824        0.45193350        0.26764537  H
       atom_frac         0.64829086        0.21979377        0.23668889  H
       atom_frac         0.20647125        0.16414646        0.14502236  H
       atom_frac         0.35431011        0.41824158        0.37025381  H
       atom_frac         0.85146254        0.33052778        0.37496935  H
       atom_frac         0.68078260        0.07981549        0.13888788  H
       atom_frac         0.16714577        0.20797475        0.48979765  H
       atom_frac         0.34753259        0.45068771        0.00531206  H
       atom_frac         0.86478619        0.29109428        0.00888062  H
       atom_frac         0.67051612        0.04409276        0.50594258  H
       atom_frac         0.03380560        0.16025505        0.32333196  H
       atom_frac         0.48595691        0.40060354        0.17380448  H
       atom_frac         0.97654573        0.33895960        0.17046580  H
       atom_frac         0.58280721        0.09831397        0.34816168  H
       atom_frac         0.11177268       -0.00818981        0.66296386  C
       atom_frac         0.41647999        0.25431229        0.83124829  C
       atom_frac         0.94925297        0.49269613        0.84467317  C
       atom_frac         0.60993116        0.25123316        0.67450898  C
       atom_frac         0.13035691        0.07217912        0.60927908  C
       atom_frac         0.38836816        0.32617424        0.88482857  C
       atom_frac         0.91965941        0.41575337        0.89559513  C
       atom_frac         0.63511736        0.17419529        0.62296347  C
       atom_frac         0.06497559        0.04962121        0.51474450  C
       atom_frac         0.45504203        0.29777357        0.97964441  C
       atom_frac         0.97675040        0.44147138        0.98759132  C
       atom_frac         0.58275415        0.20354630        0.53159574  C
       atom_frac         0.09583156        0.12208333        0.96903917  C
       atom_frac         0.45911561        0.38417677        0.54796161  C
       atom_frac         0.95480858        0.37824495        0.54743065  C
       atom_frac         0.57810249        0.11624832        0.96047503  C
       atom_frac         0.01513338        0.09174242        0.87609609  C
       atom_frac         0.51883081        0.35492424        0.63721601  C
       atom_frac         1.01309338        0.41643771        0.63438164  C
       atom_frac         0.51657211        0.14970118        0.87082854  C
       atom_frac         0.16608638        0.00972121        0.73575210  H
       atom_frac         0.37618628        0.27636195        0.76105175  H
       atom_frac         0.91060441        0.46225253        0.77573916  H
       atom_frac         0.65095456        0.22976094        0.74492646  H
       atom_frac         0.20924109        0.15317761        0.64113055  H
       atom_frac         0.32491853        0.41224327        0.86137361  H
       atom_frac         0.84780243        0.33613973        0.86442472  H
       atom_frac         0.68062926        0.08996128        0.64771393  H
       atom_frac         0.17290609        0.20142172        0.99870858  H
       atom_frac         0.38668845        0.46410101        0.51586535  H
       atom_frac         0.89189326        0.29218939        0.52418611  H
       atom_frac         0.65387222        0.03642045        0.98753521  H
       atom_frac         0.04517834        0.14521717        0.83430642  H
       atom_frac         0.48896073        0.40895960        0.67829305  H
       atom_frac         0.99094794        0.36348316        0.68119546  H
       atom_frac         0.54431562        0.09108838        0.82994368  H
       atom_frac         0.08638502        0.50674747        0.16803403  C
       atom_frac         0.43199149        0.74636953        0.33857628  C
       atom_frac         0.90655662        1.00115320        0.32576513  C
       atom_frac         0.60720133        0.75414646        0.17257633  C
       atom_frac         0.13318763        0.57563805        0.11747190  C
       atom_frac         0.39179323        0.81972896        0.38823220  C
       atom_frac         0.87837165        0.92505051        0.37785002  C
       atom_frac         0.64351873        0.67873401        0.12449436  C
       atom_frac         0.07048615        0.55012710        0.02486801  C
       atom_frac         0.46308817        0.79961111        0.48207379  C
       atom_frac         0.96057223        0.94418350        0.47285874  C
       atom_frac         0.56869823        0.69911785        0.02835876  C
       atom_frac         0.07646564        0.63085017        0.45762213  C
       atom_frac         0.42413700        0.87542929        0.03772657  C
       atom_frac         0.93615796        0.87208754        0.04920667  C
       atom_frac         0.61606732        0.62588384        0.47622899  C
       atom_frac         0.00695233        0.59381145        0.36813837  C
       atom_frac         0.49481293        0.85444444        0.12962723  C
       atom_frac         1.00302646        0.90747475        0.13804268  C
       atom_frac         0.54622253        0.64902189        0.38463961  C
       atom_frac         0.13799756        0.53349411        0.23837857  H
       atom_frac         0.36944187        0.75794024        0.26352742  H
       atom_frac         0.86203802        0.97988215        0.25673362  H
       atom_frac         0.66578046        0.73577104        0.24526426  H
       atom_frac         0.20820819        0.65637542        0.14574761  H
       atom_frac         0.30254695        0.89412458        0.35902222  H
       atom_frac         0.79170277        0.84897306        0.34677710  H
       atom_frac         0.72933395        0.60433502        0.15741126  H
       atom_frac         0.13498975        0.71623064        0.47997168  H
       atom_frac         0.33321190        0.95204545        0.00362111  H
       atom_frac         0.85992264        0.79187795        0.02018614  H
       atom_frac         0.70178287        0.55054714        0.51006684  H
       atom_frac         0.02508711        0.64793434        0.32091633  H
       atom_frac         0.44647311        0.91341751        0.16294534  H
       atom_frac         0.99484259        0.85162458        0.18666403  H
       atom_frac         0.56711503        0.58496886        0.34526768  H
       atom_frac         0.10144793        0.52305976        0.66592028  C
       atom_frac         0.43119439        0.75304125        0.83876033  C
       atom_frac         0.91986940        0.98746633        0.84244972  C
       atom_frac         0.60718908        0.74922138        0.67095496  C
       atom_frac         0.12832484        0.59405471        0.61056124  C
       atom_frac         0.40002155        0.82484259        0.89182859  C
       atom_frac         0.89632365        0.91470539        0.89649994  C
       atom_frac         0.64516391        0.67648990        0.62090485  C
       atom_frac         0.05716977        0.56002441        0.51865834  C
       atom_frac         0.46297972        0.80010101        0.98482077  C
       atom_frac         0.96645369        0.94160774        0.99022860  C
       atom_frac         0.57612615        0.69828704        0.52749112  C
       atom_frac         0.10164934        0.62833502        0.97065240  C
       atom_frac         0.43107072        0.87518519        0.53508593  C
       atom_frac         0.93264279        0.86684343        0.52855936  C
       atom_frac         0.60455063        0.62462290        0.97462235  C
       atom_frac         0.04500143        0.59840825        0.88188969  C
       atom_frac         0.49636132        0.84945286        0.62729605  C
       atom_frac         1.01381947        0.88919192        0.62090836  C
       atom_frac         0.53589824        0.65153030        0.88175642  C
       atom_frac         0.14679409        0.55206818        0.73521903  H
       atom_frac         0.37283576        0.77145791        0.76688042  H
       atom_frac         0.86422939        0.96367845        0.77213394  H
       atom_frac         0.66003734        0.72974074        0.74298357  H
       atom_frac         0.19950848        0.67734764        0.63366270  H
       atom_frac         0.32573337        0.90555556        0.86223634  H
       atom_frac         0.82194103        0.83300000        0.86811411  H
       atom_frac         0.74195669        0.59996801        0.65549391  H
       atom_frac         0.16436671        0.70916919        0.99997110  H
       atom_frac         0.35953159        0.95612795        0.50539689  H
       atom_frac         0.84194325        0.79148653        0.49685729  H
       atom_frac         0.68850213        0.54675673        1.00543504  H
       atom_frac         0.07490998        0.65382660        0.84146074  H
       atom_frac         0.46685357        0.91111111        0.66616928  H
       atom_frac         0.98340603        0.83228620        0.66058610  H
       atom_frac         0.57515292        0.59212121        0.84500985  H

 
  Finished reading input file 'geometry.in'.
 

 
  Consistency checks for stacksize environment parameter are next.
 
  | Maximum stacksize for task 0: unlimited
  | Maximum stacksize for task 1: unlimited
  | Maximum stacksize for task 2: unlimited
  | Maximum stacksize for task 3: unlimited
  | Maximum stacksize for task 4: unlimited
  | Maximum stacksize for task 5: unlimited
  | Maximum stacksize for task 6: unlimited
  | Maximum stacksize for task 7: unlimited
  | Maximum stacksize for task 8: unlimited
  | Maximum stacksize for task 9: unlimited
  | Maximum stacksize for task 10: unlimited
  | Maximum stacksize for task 11: unlimited
  | Maximum stacksize for task 12: unlimited
  | Maximum stacksize for task 13: unlimited
  | Maximum stacksize for task 14: unlimited
  | Maximum stacksize for task 15: unlimited
  | Maximum stacksize for task 16: unlimited
  | Maximum stacksize for task 17: unlimited
  | Current stacksize for task 0: unlimited
  | Current stacksize for task 1: unlimited
  | Current stacksize for task 2: unlimited
  | Current stacksize for task 3: unlimited
  | Current stacksize for task 4: unlimited
  | Current stacksize for task 5: unlimited
  | Current stacksize for task 6: unlimited
  | Current stacksize for task 7: unlimited
  | Current stacksize for task 8: unlimited
  | Current stacksize for task 9: unlimited
  | Current stacksize for task 10: unlimited
  | Current stacksize for task 11: unlimited
  | Current stacksize for task 12: unlimited
  | Current stacksize for task 13: unlimited
  | Current stacksize for task 14: unlimited
  | Current stacksize for task 15: unlimited
  | Current stacksize for task 16: unlimited
  | Current stacksize for task 17: unlimited
 
  Consistency checks for the contents of control.in are next.
 
  MPI_IN_PLACE appears to work with this MPI implementation.
  | Keeping use_mpi_in_place .true. (see manual).
  Explicit treatment of the Coulomb operator is needed, but the RI method is not specified.
  Coulomb operator: Defaulting to 'LVL fast' resolution of identity - RI_type = LVL_fast
  Species H: Using default value for prodbas_acc =   1.000000E-06.
  Species H: Using default value max_l_prodbas =     6.
  Species C: Using default value for prodbas_acc =   1.000000E-06.
  Species C: Using default value max_l_prodbas =     6.
  Target number of points in a grid batch is not set.  Since GPU acceleration is enabled, defaulting to  200
  Method for grid partitioning is not set. Defaulting to parallel hash+maxmin partitioning.
  Batch size limit is not set. Defaulting to    200
  By default, will store active basis functions for each batch.
  If in need of memory, prune_basis_once .false. can be used to disable this option.
  communication_type for Hartree potential was not specified.
  Defaulting to calc_hartree .
  Defaulting to Pulay charge density mixer.
  Pulay mixer: Number of relevant iterations not set.
  Defaulting to    8 iterations.
  Pulay mixer: Number of initial linear mixing iterations not set.
  Defaulting to    0 iterations.
  Work space size for distributed Hartree potential not set.
  Defaulting to   0.200000E+03 MB.
  Algorithm-dependent basis array size parameters:
  | n_max_pulay                         :        8
  Maximum number of self-consistency iterations not provided.
  Presetting  1000 iterations.
  Presetting      1001 iterations before the initial mixing cycle
  is restarted anyway using the sc_init_iter criterion / keyword.
  Presetting a factor      1.000 between actual scf density residual
  and density convergence criterion sc_accuracy_rho below which sc_init_iter
  takes no effect.
 * No s.c.f. convergence criteria (sc_accuracy_*) were provided in control.in.
 * The run will proceed with a reasonable default guess, but please check whether.
 * the s.c.f. cycles seem to take too much or too little time.
  Geometry relaxation not requested: no relaxation will be performed.
 * Notice: The s.c.f. convergence criterion sc_accuracy_rho was not provided.
 * We used to stop in this case, and ask the user to provide reasonable
 * scf convergence criteria. However, this led some users to employ criteria
 * that led to extremely long run times, e.g., for simple relaxation.
 * We now preset a default value for sc_accuracy_rho if it is not set.
 * You may still wish to check if this setting is too tight or too loose for your needs.
 * Based on n_atoms and forces and force-correction status, FHI-aims chose sc_accuracy_rho =  0.391918E-04 .
  No accuracy limit for integral partition fn. given. Defaulting to  0.1000E-14.
  No threshold value for u(r) in integrations given. Defaulting to  0.1000E-05.
  No occupation type (smearing scheme) given. Defaulting to Gaussian broadening, width =  0.1000E-01 eV.
  The width will be adjusted in iteration number     2 of the first full s.c.f. cycle only.
  S.C.F. convergence parameters will be adjusted in iteration number     2 of the first full s.c.f. cycle only.
  No accuracy for occupation numbers given. Defaulting to  0.1000E-12.
  No threshold value for occupation numbers given. Defaulting to  0.0000E+00.
  No accuracy for fermi level given. Defaulting to  0.1000E-19.
  Maximum # of iterations to find E_F not set. Defaulting to  200.
  Preferred method for the eigenvalue solver ('KS_method') not specified in 'control.in'.
  Calling BLACS routine to test compilation state
  Since ScaLAPACK support is enabled, defaulting to ELPA (via ELSI).
  Will not use alltoall communication since running on < 1024 CPUs.
  Threshold for basis singularities not set.
  Default threshold for basis singularities:  0.1000E-04
  partition_type (choice of integration weights) for integrals was not specified.
  | Using a version of the partition function of Stratmann and coworkers ('stratmann_sparse').
  | At each grid point, the set of atoms used to build the partition table is smoothly restricted to
  | only those atoms whose free-atom density would be non-zero at that grid point.
  Partitioning for Hartree potential was not defined. Using partition_type for integrals.
  | Adjusted default value of keyword multip_moments_threshold to:       0.10000000E-11
  | This value may affect high angular momentum components of the Hartree potential in periodic systems.
  Angular momentum expansion for Kerker preconditioner not set explicitly.
  | Using default value of   0
  No explicit requirement for turning off preconditioner.
  | By default, it will be turned off when the charge convergence reaches
  | sc_accuracy_rho  =   0.391918E-04
  No special mixing parameter while Kerker preconditioner is on.
  Using default: charge_mix_param =     0.7500.
  Threshold for auxiliary basis singularities not set.
  Default threshold for auxiliary basis singularities:  0.1000E-04
  No q(lm)/r^(l+1) cutoff set for long-range Hartree potential.
  | Using default value of  0.100000E-09 .
  | Verify using the multipole_threshold keyword.
  Defaulting to new monopole extrapolation.
  Density update method: automatic selection selected.
  Using density matrix based charge density update.
  Using density matrix based charge density update.
  Using packed matrix style: index .
  Defaulting to use time-reversal symmetry for k-point grid.
  Charge integration errors on the 3D integration grid will be compensated
  by explicit normalization and distribution of residual charges.
  Use the "compensate_multipole_errors" flag to change this behaviour.
  Default to 1D ("use_logsbt") integrations for auxiliary 2-center integrals.
  Default onset of logarithmic r-grid for SBT is -38.000000000000
  Default onset of logarithmic k-grid for SBT is -25.000000000000
  Default range of logarithmic r- and k-grid for SBT is  45.000000000000
  Default number of logarithmic r- and k-grid for SBT is   4096
  Default of use_2d_corr is to use the efficient 2D distribution where possible
 
  Consistency checks for the contents of geometry.in are next.
 

  Range separation radius for Ewald summation (hartree_convergence_parameter):      2.91768261 bohr.
  Number of empty states per atom not set in control.in .
  | Since you are using a method that relies on the unoccupied spectrum
  | (MP2,GW,RPA et al.), will use the full Hamiltonian size (see below)
  | as the max. possible number of states (occupied plus empty).

  Structure-dependent array size parameters: 
  | Maximum number of distinct radial functions  :        9
  | Maximum number of basis functions            :     1440
  | Number of Kohn-Sham states (occupied + empty):     1440
------------------------------------------------------------

  Performing system and environment tests:
  | Environment variable OMP_NUM_THREADS correctly set to 1.
  | Checking for ScaLAPACK...
  | Testing pdtran()...
  | All pdtran() tests passed.
CUDA runtime version: 11060
CUDA driver version: 11060
  Initializing GPUs...

  Number of GPUs available to MPI task         0 :   1
  Number of GPUs available to MPI task         1 :   1
  Number of GPUs available to MPI task         2 :   1
  Number of GPUs available to MPI task         3 :   1
  Number of GPUs available to MPI task         4 :   1
  Number of GPUs available to MPI task         5 :   1
  Number of GPUs available to MPI task         6 :   1
  Number of GPUs available to MPI task         7 :   1
  Number of GPUs available to MPI task         8 :   1
  Number of GPUs available to MPI task         9 :   1
  Number of GPUs available to MPI task        10 :   1
  Number of GPUs available to MPI task        11 :   1
  Number of GPUs available to MPI task        12 :   1
  Number of GPUs available to MPI task        13 :   1
  Number of GPUs available to MPI task        14 :   1
  Number of GPUs available to MPI task        15 :   1
  Number of GPUs available to MPI task        16 :   1
  Number of GPUs available to MPI task        17 :   1

  | MPI task         0, GPU activated = T, Device Name = NVIDIA A100-SXM4-80GB
  | MPI task         1, GPU activated = T, Device Name = NVIDIA A100-SXM4-80GB
  | MPI task         2, GPU activated = T, Device Name = NVIDIA A100-SXM4-80GB
  | MPI task         3, GPU activated = T, Device Name = NVIDIA A100-SXM4-80GB
  | MPI task         4, GPU activated = T, Device Name = NVIDIA A100-SXM4-80GB
  | MPI task         5, GPU activated = T, Device Name = NVIDIA A100-SXM4-80GB
  | MPI task         6, GPU activated = T, Device Name = NVIDIA A100-SXM4-80GB
  | MPI task         7, GPU activated = T, Device Name = NVIDIA A100-SXM4-80GB
  | MPI task         8, GPU activated = T, Device Name = NVIDIA A100-SXM4-80GB
  | MPI task         9, GPU activated = T, Device Name = NVIDIA A100-SXM4-80GB
  | MPI task        10, GPU activated = T, Device Name = NVIDIA A100-SXM4-80GB
  | MPI task        11, GPU activated = T, Device Name = NVIDIA A100-SXM4-80GB
  | MPI task        12, GPU activated = T, Device Name = NVIDIA A100-SXM4-80GB
  | MPI task        13, GPU activated = T, Device Name = NVIDIA A100-SXM4-80GB
  | MPI task        14, GPU activated = T, Device Name = NVIDIA A100-SXM4-80GB
  | MPI task        15, GPU activated = T, Device Name = NVIDIA A100-SXM4-80GB
  | MPI task        16, GPU activated = T, Device Name = NVIDIA A100-SXM4-80GB
  | MPI task        17, GPU activated = T, Device Name = NVIDIA A100-SXM4-80GB

------------------------------------------------------------
          Preparing all fixed parts of the calculation.
------------------------------------------------------------
  Determining machine precision:
    2.225073858507201E-308
  Setting up grids for atomic and cluster calculations.

  Creating wave function, potential, and density for free atoms.
  Runtime choices for atomic solver:
  | atomic solver xc        : PW-LDA
  | compute density gradient: 0
  | compute kinetic density : F

  Species: H

  List of occupied orbitals and eigenvalues:
    n    l              occ      energy [Ha]    energy [eV]
    1    0           1.0000        -0.232375        -6.3233


  Species: C

  List of occupied orbitals and eigenvalues:
    n    l              occ      energy [Ha]    energy [eV]
    1    0           2.0000        -9.944615      -270.6068
    2    0           2.0000        -0.498807       -13.5732
    2    1           2.0000        -0.196968        -5.3598


  Adding cutoff potential to free-atom effective potential.
  Creating fixed part of basis set: Ionic, confined, hydrogenic.
 
  H                    hydrogenic:
 
  List of hydrogenic basis orbitals: 
    n    l      effective z      eigenvalue [eV]  inner max. [A]     outer max. [A]     outer radius [A]   
    2    0         2.100000       -14.9728           0.193243           1.317208           4.583499
    2    1         3.500000       -41.6669           0.602369           0.602369           3.723403
 
 
  C                    hydrogenic:
 
  List of hydrogenic basis orbitals: 
    n    l      effective z      eigenvalue [eV]  inner max. [A]     outer max. [A]     outer radius [A]   
    2    1         1.700000        -9.7616           1.230570           1.230570           4.607917
    3    2         6.000000       -54.4224           0.792453           0.792453           3.883070
    2    0         4.900000       -81.6679           0.082559           0.562749           3.078220
 
  Creating atomic-like basis functions for current effective potential.

  Species H                   :

  List of atomic basis orbitals and eigenvalues:
    n    l      energy [Ha]    energy [eV]    outer radius [A]
    1    0        -0.232375        -6.3233       4.527807


  Species C                   :

  List of atomic basis orbitals and eigenvalues:
    n    l      energy [Ha]    energy [eV]    outer radius [A]
    1    0        -9.944615      -270.6068       1.934409
    2    0        -0.498807       -13.5732       4.496620
    2    1        -0.196968        -5.3598       4.551928

  Assembling full basis from fixed parts.
  | Species H :   atomic orbital   1 s accepted.
  | Species H :    hydro orbital   2 s accepted.
  | Species H :    hydro orbital   2 p accepted.
  | Species C :   atomic orbital   1 s accepted.
  | Species C :    hydro orbital   2 s accepted.
  | Species C :   atomic orbital   2 s accepted.
  | Species C :   atomic orbital   2 p accepted.
  | Species C :    hydro orbital   2 p accepted.
  | Species C :    hydro orbital   3 d accepted.
 
  Basis size parameters after reduction:
  | Total number of radial functions:        9
  | Total number of basis functions :     1440
 
  Per-task memory consumption for arrays in subroutine allocate_ext:
  |           2.242384MB.
  Testing on-site integration grid accuracy.
  |  Species  Function  <phi|h_atom|phi> (log., in eV)  <phi|h_atom|phi> (rad., in eV)
           1        1                 -6.3245358373                 -6.3232436907
           1        2                 14.1326137532                 14.1384481100
           1        3                 25.3627025200                 25.3628451197
           2        4               -270.6067544938               -270.6067222788
           2        5                -10.5634280949                -10.5635685736
           2        6                 16.2089822398                 16.2052121796
           2        7                 -5.3613872565                 -5.3627872378
           2        8                  8.5292058327                  8.5051734780
           2        9                 27.4884461005                 27.4884542459

  Preparing densities etc. for the partition functions (integrals / Hartree potential).

  Preparations completed.
  max(cpu_time)          :      0.072 s.
  Wall clock time (cpu1) :      0.064 s.
------------------------------------------------------------

  Initializing index lists of integration centers etc. from given atomic structure:
  Mapping all atomic coordinates to central unit cell.

  Initializing the k-points
  Using symmetry for reducing the k-points
  | k-points reduced from:        2 to        2
  | Number of k-points                             :         2
  | Consuming          0 KiB for k_phase_exx.
  The eigenvectors in the calculations are REAL.
  | Number of basis functions in the Hamiltonian integrals :      8021
  | Number of basis functions in a single unit cell        :      1440
  | Number of centers in hartree potential         :      3316
  | Number of centers in hartree multipole         :      2548
  | Number of centers in electron density summation:      1985
  | Number of centers in basis integrals           :      2119
  | Number of centers in integrals                 :       971
  | Number of centers in hamiltonian               :      1995
  | Consuming          1 KiB for k_phase.
  | Number of super-cells (origin) [n_cells]                     :         175
  | Number of super-cells (after PM_index) [n_cells]             :          40
  | Number of super-cells in hamiltonian [n_cells_in_hamiltonian]:          40
  | Size of matrix packed + index [n_hamiltonian_matrix_size] :     1932443
  | Size of matrix packed + index (no_symmetry):     3862069

------------------------------------------------------------
          Begin self-consistency loop: Initialization.

          Date     :  20230125, Time     :  135530.063
------------------------------------------------------------
  | Estimated reciprocal-space cutoff momentum G_max:         3.24344278 bohr^-1 .
  | Reciprocal lattice points for long-range Hartree potential:    5310
  Using simple linear distribution as default method for k-point parallelism.
  * Using 18 tasks for Scalapack Eigenvalue solver.
  Detailed listing of tasks and assigned k-points:
   Task     0 k-point     1 on adag035
   Task     1 k-point     1 on adag035
   Task     2 k-point     1 on adag035
   Task     3 k-point     1 on adag035
   Task     4 k-point     1 on adag035
   Task     5 k-point     1 on adag035
   Task     6 k-point     1 on adag035
   Task     7 k-point     1 on adag035
   Task     8 k-point     1 on adag035
   Task     9 k-point     2 on adag035
   Task    10 k-point     2 on adag035
   Task    11 k-point     2 on adag035
   Task    12 k-point     2 on adag035
   Task    13 k-point     2 on adag035
   Task    14 k-point     2 on adag035
   Task    15 k-point     2 on adag035
   Task    16 k-point     2 on adag035
   Task    17 k-point     2 on adag035
  K-point:     1 Tasks:     9 split into      3 X      3 BLACS grid
  Calculating block size based on n_basis =         1440  max_nprow =            3  max_npcol =            3
  ScaLAPACK block size set to:           16
  Allocating        1.758 MB for ovlp
  Allocating        1.758 MB for ham
  Allocating        1.758 MB for eigenvec
  Required Scalapack workspace - INTEGER:            1  REAL:             1
  Partitioning the integration grid into batches with parallel hashing+maxmin method.
  | Number of batches:     5351
  | Maximal batch size:     200
  | Minimal batch size:      99
  | Average batch size:     142.747
  | Standard deviation of batch sizes:      32.628

  Integration load balanced across    18 MPI tasks.
  Work distribution over tasks is as follows:
  Task     0 has      42419 integration points.
  Task     1 has      42477 integration points.
  Task     2 has      42515 integration points.
  Task     3 has      42334 integration points.
  Task     4 has      42458 integration points.
  Task     5 has      42449 integration points.
  Task     6 has      42444 integration points.
  Task     7 has      42453 integration points.
  Task     8 has      42434 integration points.
  Task     9 has      42444 integration points.
  Task    10 has      42433 integration points.
  Task    11 has      42512 integration points.
  Task    12 has      42456 integration points.
  Task    13 has      42472 integration points.
  Task    14 has      42354 integration points.
  Task    15 has      42433 integration points.
  Task    16 has      42343 integration points.
  Task    17 has      42410 integration points.
  Initializing partition tables, free-atom densities, potentials, etc. across the integration grid (initialize_grid_storage).
  | initialize_grid_storage: Actual outermost partition radius vs. multipole_radius_free
  | (-- VB: in principle, multipole_radius_free should be larger, hence this output)
  | Species        1: Confinement radius =              4.999999999999999 AA, multipole_radius_free =              5.054417573612229 AA.
  | Species        1: outer_partition_radius set to              5.054417573612229 AA .
  | Species        2: Confinement radius =              4.999999999999999 AA, multipole_radius_free =              5.019602836301480 AA.
  | Species        2: outer_partition_radius set to              5.019602836301480 AA .
  | The sparse table of interatomic distances needs       7623.20 kbyte instead of     35921.29 kbyte of memory.
  | Net number of integration points:   763840
  | of which are non-zero points    :   605322
  | Numerical average free-atom electrostatic potential    :     -8.61464929 eV
  Renormalizing the initial density to the exact electron count on the 3D integration grid.
  | Initial density: Formal number of electrons (from input files) :     544.0000000000
  | Integrated number of electrons on 3D grid     :     543.9942807074
  | Charge integration error                      :      -0.0057192926
  | Normalization factor for density and gradient :       1.0000105135
  Renormalizing the free-atom superposition density to the exact electron count on the 3D integration grid.
  | Formal number of electrons (from input files) :     544.0000000000
  | Integrated number of electrons on 3D grid     :     543.9942807074
  | Charge integration error                      :      -0.0057192926
  | Normalization factor for density and gradient :       1.0000105135
  Obtaining max. number of non-zero basis functions in each batch (get_n_compute_maxes).
  | Maximal number of non-zero basis functions:      528 in task     0
  | Maximal number of non-zero basis functions:      534 in task     1
  | Maximal number of non-zero basis functions:      550 in task     2
  | Maximal number of non-zero basis functions:      545 in task     3
  | Maximal number of non-zero basis functions:      544 in task     4
  | Maximal number of non-zero basis functions:      544 in task     5
  | Maximal number of non-zero basis functions:      548 in task     6
  | Maximal number of non-zero basis functions:      544 in task     7
  | Maximal number of non-zero basis functions:      559 in task     8
  | Maximal number of non-zero basis functions:      539 in task     9
  | Maximal number of non-zero basis functions:      540 in task    10
  | Maximal number of non-zero basis functions:      542 in task    11
  | Maximal number of non-zero basis functions:      558 in task    12
  | Maximal number of non-zero basis functions:      545 in task    13
  | Maximal number of non-zero basis functions:      548 in task    14
  | Maximal number of non-zero basis functions:      529 in task    15
  | Maximal number of non-zero basis functions:      529 in task    16
  | Maximal number of non-zero basis functions:      546 in task    17
  Integrating Hamiltonian matrix: batch-based integration.
  GPU acceleration will be used when integrating the Hamiltonian matrix.
  Reporting GPU memory usage by myid 0.  Note that it is likely not the only MPI task binding to its GPU!
  Allocating        2.230 MB on GPU for hamiltonian_shell
  Allocating        0.845 MB on GPU for wave
  Allocating        0.002 MB on GPU for partition
  Allocating        0.845 MB on GPU for h_times_psi
  Time summed over all CPUs for integration: real work       21.156 s, elapsed       21.753 s
  Deallocating memory used on GPU for Hamiltonian integration.
  Integrating overlap matrix.
  Time summed over all CPUs for integration: real work       18.245 s, elapsed       18.791 s
  Deallocating overlap matrix.

  Updating Kohn-Sham eigenvalues and eigenvectors using ELSI and the ELPA eigensolver.
  Singularity check in k-point 1 (analysis for other k-points may follow below):
  Overlap matrix is not singular
  | Lowest and highest eigenvalues :  0.7889E-03,  0.8237E+01
  Finished singularity check of overlap matrix
  | Time :     0.106 s
  Starting ELPA eigensolver
  Finished Cholesky decomposition
  | Time :     0.020 s
  Finished transformation to standard eigenproblem
  | Time :     0.027 s
  Finished solving standard eigenproblem
  | Time :     0.228 s
  Finished back-transformation of eigenvectors
  | Time :     0.018 s

  Obtaining occupation numbers and electronic chemical potential using ELSI.
  | Note that, for insulating systems, the printed 'chemical potential' value is not uniquely defined.
  | It can be anywhere in the energy gap, as long as it correctly separates occupied and unoccupied states.
  | In systems with a gap, the physically relevant chemical potential is the VBM or HOMO.

  | Chemical potential (Fermi level):    -8.05393293 eV
  Writing Kohn-Sham eigenvalues.
  K-point:       1 at    0.000000    0.000000    0.000000 (in units of recip. lattice)

  State    Occupation    Eigenvalue [Ha]    Eigenvalue [eV]
      1       2.00000         -10.072721         -274.09269
      2       2.00000         -10.070655         -274.03647
      3       2.00000         -10.070088         -274.02103
      4       2.00000         -10.069776         -274.01255
      5       2.00000         -10.069106         -273.99432
      6       2.00000         -10.068518         -273.97832
      7       2.00000         -10.068354         -273.97386
      8       2.00000         -10.068286         -273.97200
      9       2.00000         -10.067548         -273.95192
     10       2.00000         -10.067322         -273.94577
     11       2.00000         -10.067108         -273.93996
     12       2.00000         -10.066813         -273.93192
     13       2.00000         -10.066662         -273.92782
     14       2.00000         -10.066520         -273.92395
     15       2.00000         -10.066497         -273.92332
     16       2.00000         -10.065804         -273.90445
     17       2.00000         -10.065768         -273.90348
     18       2.00000         -10.065704         -273.90175
     19       2.00000         -10.065701         -273.90165
     20       2.00000         -10.065661         -273.90057
     21       2.00000         -10.065458         -273.89505
     22       2.00000         -10.065387         -273.89310
     23       2.00000         -10.065289         -273.89044
     24       2.00000         -10.064901         -273.87989
     25       2.00000         -10.064849         -273.87848
     26       2.00000         -10.064772         -273.87639
     27       2.00000         -10.064512         -273.86931
     28       2.00000         -10.064338         -273.86457
     29       2.00000         -10.064274         -273.86282
     30       2.00000         -10.064144         -273.85930
     31       2.00000         -10.064093         -273.85791
     32       2.00000         -10.063987         -273.85502
     33       2.00000         -10.063741         -273.84833
     34       2.00000         -10.063614         -273.84487
     35       2.00000         -10.063574         -273.84378
     36       2.00000         -10.063546         -273.84303
     37       2.00000         -10.063541         -273.84290
     38       2.00000         -10.063219         -273.83413
     39       2.00000         -10.062774         -273.82200
     40       2.00000         -10.062651         -273.81866
     41       2.00000         -10.062638         -273.81831
     42       2.00000         -10.062527         -273.81530
     43       2.00000         -10.062443         -273.81300
     44       2.00000         -10.062337         -273.81012
     45       2.00000         -10.062268         -273.80825
     46       2.00000         -10.062163         -273.80538
     47       2.00000         -10.062113         -273.80403
     48       2.00000         -10.062093         -273.80348
     49       2.00000         -10.061806         -273.79566
     50       2.00000         -10.061727         -273.79351
     51       2.00000         -10.061661         -273.79172
     52       2.00000         -10.061543         -273.78852
     53       2.00000         -10.061379         -273.78405
     54       2.00000         -10.061126         -273.77716
     55       2.00000         -10.060821         -273.76888
     56       2.00000         -10.060685         -273.76518
     57       2.00000         -10.060320         -273.75523
     58       2.00000         -10.060043         -273.74770
     59       2.00000         -10.059830         -273.74190
     60       2.00000         -10.059450         -273.73157
     61       2.00000         -10.059026         -273.72002
     62       2.00000         -10.058944         -273.71780
     63       2.00000         -10.058936         -273.71756
     64       2.00000         -10.058690         -273.71088
     65       2.00000         -10.058038         -273.69314
     66       2.00000         -10.057799         -273.68665
     67       2.00000         -10.057618         -273.68170
     68       2.00000         -10.057564         -273.68025
     69       2.00000         -10.056797         -273.65936
     70       2.00000         -10.056673         -273.65599
     71       2.00000         -10.056660         -273.65563
[...]
  | charge radius: extent of product basis function
  | field radius: extent of its Coulomb potential
  | Species   l  charge radius    field radius  multipol momen
  |    H      1     3.910002 A      3.910002 A       -2.487223E-16 a.u.
  |    H      1     3.958095 A      3.958095 A       -2.441841E-16 a.u.
  |    H      0     4.527807 A      4.527807 A        1.268855E-16 a.u.
  |    H      0     4.527807 A      4.583499 A       -4.900954E-17 a.u.
  |    H      0     4.527807 A      4.583499 A        4.713786E-16 a.u.
  |    H      2     3.678162 A  1.011968E+04 A            0.556529 a.u.
  |    H      1     3.958095 A  1.721251E+06 A            0.841931 a.u.
  |    H      0     4.527807 A  3.866455E+12 A            0.581436 a.u.
  |    C      0     2.562483 A      2.562483 A        6.563029E-17 a.u.
  |    C      0     2.967371 A      2.967371 A        1.352164E-16 a.u.
  |    C      0     3.003870 A      3.003870 A        2.312640E-17 a.u.
  |    C      1     3.272245 A      3.272245 A       -3.835259E-17 a.u.
  |    C      0     3.312494 A      3.312494 A       -2.710381E-16 a.u.
  |    C      3     4.077671 A      4.077671 A       -1.683752E-15 a.u.
  |    C      3     4.077671 A      4.077671 A        1.412852E-15 a.u.
  |    C      1     4.496620 A      4.496620 A       -3.011059E-16 a.u.
  |    C      0     4.496620 A      4.551928 A        2.873903E-17 a.u.
  |    C      2     4.551928 A      4.551928 A       -4.610785E-16 a.u.
  |    C      2     4.551928 A      4.551928 A        7.440584E-16 a.u.
  |    C      2     4.551928 A      4.551928 A       -7.110458E-16 a.u.
  |    C      2     4.551928 A      4.551928 A       -1.935424E-16 a.u.
  |    C      0     4.551928 A      4.607917 A        2.067142E-16 a.u.
  |    C      0     4.551928 A      4.607917 A       -1.109786E-16 a.u.
  |    C      1     4.551928 A      4.607917 A       -9.951742E-17 a.u.
  |    C      1     4.551928 A      4.607917 A        1.937809E-16 a.u.
  |    C      1     4.607917 A      4.607917 A       -2.813308E-16 a.u.
  |    C      1     4.607917 A      4.607917 A       -7.330363E-17 a.u.
  |    C      2     4.607917 A      4.607917 A        1.318462E-15 a.u.
  |    C      2     4.607917 A      4.607917 A       -1.318397E-15 a.u.
  |    C      0     4.607917 A      4.664595 A        3.157826E-16 a.u.
  |    C      1     4.607917 A      4.664595 A        7.356967E-16 a.u.
  |    C      4     3.835889 A  2.962973E+02 A            4.379483 a.u.
  |    C      3     4.127827 A  1.725964E+03 A            9.005588 a.u.
  |    C      2     4.607917 A  2.608475E+04 A            9.531178 a.u.
  |    C      1     4.607917 A  2.736013E+06 A            2.127278 a.u.
  |    C      0     4.607917 A  4.399765E+12 A            0.661635 a.u.

  | Shrink_full_auxil_basis : there are       36  radial auxiliary wave functions
                            accepted and       7 rejected.
  | Shrink_full_auxil_basis : there are totally                8992 partial auxiliary wave functions.
 
  | Maximal number of product basis functions per thread :   512   512
 
  | Minimal total memory requirement for three-center overlap :      72.476 Gbs
  | Number of local auxiliary basis functions on task:      0   512
  | Number of local auxiliary basis functions on task:      1   512
  | Number of local auxiliary basis functions on task:      2   512
  | Number of local auxiliary basis functions on task:      3   512
  | Number of local auxiliary basis functions on task:      4   496
  | Number of local auxiliary basis functions on task:      5   496
  | Number of local auxiliary basis functions on task:      6   496
  | Number of local auxiliary basis functions on task:      7   496
  | Number of local auxiliary basis functions on task:      8   496
  | Number of local auxiliary basis functions on task:      9   496
  | Number of local auxiliary basis functions on task:     10   496
  | Number of local auxiliary basis functions on task:     11   496
  | Number of local auxiliary basis functions on task:     12   496
  | Number of local auxiliary basis functions on task:     13   496
  | Number of local auxiliary basis functions on task:     14   496
  | Number of local auxiliary basis functions on task:     15   496
  | Number of local auxiliary basis functions on task:     16   496
  | Number of local auxiliary basis functions on task:     17   496
  | 2D aux task distribution:      3 X      6
  | 2D block size (nb_aux_2d):     64
 
  Basis pair condensation :   1037520  -->     547257
 
 --------------------------------------------
  Constructing auxiliary basis (full product) ...
 
  Product basis:
  | charge radius: extent of product basis function
  | field radius: extent of its Coulomb potential
  | Species   l  charge radius    field radius  multipol momen
  |    H      1     3.910002 A      3.910002 A       -2.487223E-16 a.u.
  |    H      1     3.958095 A      3.958095 A       -2.441841E-16 a.u.
  |    H      0     4.527807 A      4.527807 A        1.268855E-16 a.u.
  |    H      0     4.527807 A      4.583499 A       -4.900954E-17 a.u.
  |    H      0     4.527807 A      4.583499 A        4.713786E-16 a.u.
  |    H      2     3.678162 A  1.011968E+04 A            0.556529 a.u.
  |    H      1     3.958095 A  1.721251E+06 A            0.841931 a.u.
  |    H      0     4.527807 A  3.866455E+12 A            0.581436 a.u.
  |    C      0     2.562483 A      2.562483 A        6.563029E-17 a.u.
  |    C      0     2.967371 A      2.967371 A        1.352164E-16 a.u.
  |    C      0     3.003870 A      3.003870 A        2.312640E-17 a.u.
  |    C      1     3.272245 A      3.272245 A       -3.835259E-17 a.u.
  |    C      0     3.312494 A      3.312494 A       -2.710381E-16 a.u.
  |    C      3     4.077671 A      4.077671 A       -1.683752E-15 a.u.
  |    C      3     4.077671 A      4.077671 A        1.412852E-15 a.u.
  |    C      1     4.496620 A      4.496620 A       -3.011059E-16 a.u.
  |    C      0     4.496620 A      4.551928 A        2.873903E-17 a.u.
  |    C      2     4.551928 A      4.551928 A       -4.610785E-16 a.u.
  |    C      2     4.551928 A      4.551928 A        7.440584E-16 a.u.
  |    C      2     4.551928 A      4.551928 A       -7.110458E-16 a.u.
  |    C      2     4.551928 A      4.551928 A       -1.935424E-16 a.u.
  |    C      0     4.551928 A      4.607917 A        2.067142E-16 a.u.
  |    C      0     4.551928 A      4.607917 A       -1.109786E-16 a.u.
  |    C      1     4.551928 A      4.607917 A       -9.951742E-17 a.u.
  |    C      1     4.551928 A      4.607917 A        1.937809E-16 a.u.
  |    C      1     4.607917 A      4.607917 A       -2.813308E-16 a.u.
  |    C      1     4.607917 A      4.607917 A       -7.330363E-17 a.u.
  |    C      2     4.607917 A      4.607917 A        1.318462E-15 a.u.
  |    C      2     4.607917 A      4.607917 A       -1.318397E-15 a.u.
  |    C      0     4.607917 A      4.664595 A        3.157826E-16 a.u.
  |    C      1     4.607917 A      4.664595 A        7.356967E-16 a.u.
  |    C      4     3.835889 A  2.962973E+02 A            4.379483 a.u.
  |    C      3     4.127827 A  1.725964E+03 A            9.005588 a.u.
  |    C      2     4.607917 A  2.608475E+04 A            9.531178 a.u.
  |    C      1     4.607917 A  2.736013E+06 A            2.127278 a.u.
  |    C      0     4.607917 A  4.399765E+12 A            0.661635 a.u.

  | Shrink_full_auxil_basis : there are       36  radial auxiliary wave functions
                            accepted and       7 rejected.
  | Shrink_full_auxil_basis : there are totally                8992 partial auxiliary wave functions.
 
  | Maximal number of product basis functions per thread :   512   512
 
  | Minimal total memory requirement for three-center overlap :      72.476 Gbs
  | Number of local auxiliary basis functions on task:      0   512
  | Number of local auxiliary basis functions on task:      1   512
  | Number of local auxiliary basis functions on task:      2   512
  | Number of local auxiliary basis functions on task:      3   512
  | Number of local auxiliary basis functions on task:      4   496
  | Number of local auxiliary basis functions on task:      5   496
  | Number of local auxiliary basis functions on task:      6   496
  | Number of local auxiliary basis functions on task:      7   496
  | Number of local auxiliary basis functions on task:      8   496
  | Number of local auxiliary basis functions on task:      9   496
  | Number of local auxiliary basis functions on task:     10   496
  | Number of local auxiliary basis functions on task:     11   496
  | Number of local auxiliary basis functions on task:     12   496
  | Number of local auxiliary basis functions on task:     13   496
  | Number of local auxiliary basis functions on task:     14   496
  | Number of local auxiliary basis functions on task:     15   496
  | Number of local auxiliary basis functions on task:     16   496
  | Number of local auxiliary basis functions on task:     17   496
  | 2D aux task distribution:      3 X      6
  | 2D block size (nb_aux_2d):     64
 
  Basis pair condensation :   1037520  -->     547257
dP_dE (Bohr^3) at every cycle:--->
 (996.255473446872,0.000000000000000E+000) (-15.8543680489247,0.000000000000000E+000) (-449.040530647662,0.000000000000000E+000)
 (-15.8728989663350,0.000000000000000E+000) (1362.43181434588,0.000000000000000E+000) (4.02333408250063,0.000000000000000E+000)
 (-449.234767502811,0.000000000000000E+000) (4.04871353879816,0.000000000000000E+000) (1689.37166360425,0.000000000000000E+000)
DFPT polarizability (Bohr^3)        xx        yy        zz        xy        xz        yz
  | Polarizability:--->                       996.255473447                 1362.431814346                 1689.371663604                  -15.854368049                 -449.040530648                    4.023334083

DFPT for dielectric_constant:--->  # PARSE DFPT_dielectric_tensor
               2.351897426906171            -0.021514039261846            -0.609338421859651
              -0.021539185321499             2.848790910805992             0.005459578530493
              -0.609601997128931             0.005494017911334             3.292441312480855

                                               :  max(cpu_time)    wall_clock(cpu1)
  | Time for  dielectric calculation            :        0.000 s           0.000 s
===========================================================================

------------------------------------------------------------------------------
  Final output of selected total energy values:

  The following output summarizes some interesting total energy values
  at the end of a run (AFTER all relaxation, molecular dynamics, etc.).

  | Total energy of the DFT / Hartree-Fock s.c.f. calculation      :         -83267.605909094 eV
  | Final zero-broadening corrected energy (caution - metals only) :         -83267.605909094 eV
  | For reference only, the value of 1 Hartree used in FHI-aims is :             27.211384500 eV
  | For reference only, the overall average (free atom contribution
  | + realspace contribution) of the electrostatic potential after
  | s.c.f. convergence is                                          :             -7.699353934 eV

  Before relying on these values, please be sure to understand exactly which
  total energy value is referred to by a given number. Different objects may
  all carry the same name 'total energy'. Definitions:

  Total energy of the DFT / Hartree-Fock s.c.f. calculation:
  | Note that this energy does not include ANY quantities calculated after the
  | s.c.f. cycle, in particular not ANY RPA, MP2, etc. many-body perturbation terms.

  Final zero-broadening corrected energy:
  | For metallic systems only, a broadening of the occupation numbers at the Fermi
  | level can be extrapolated back to zero broadening by an electron-gas inspired
  | formula. For all systems that are not real metals, this value can be
  | meaningless and should be avoided.

------------------------------------------------------------------------------
  Methods described in the following list of references were used in this FHI-aims run.
  If you publish the results, please make sure to cite these reference if they apply.
  FHI-aims is an academic code, and for our developers (often, Ph.D. students
  and postdocs), scientific credit in the community is essential.
  Thank you for helping us!

  For any use of FHI-aims, please cite:

    Volker Blum, Ralf Gehrke, Felix Hanke, Paula Havu, Ville Havu,
    Xinguo Ren, Karsten Reuter, and Matthias Scheffler
    'Ab initio molecular simulations with numeric atom-centered orbitals'
    Computer Physics Communications 180, 2175-2196 (2009)
    http://doi.org/10.1016/j.cpc.2009.06.022


  For Hartree-Fock, hybrid functionals, or many-body perturbation theory used in your run, please cite:

    Xinguo Ren, Patrick Rinke, Volker Blum, Juergen Wieferink, Alex Tkatchenko,
    Andrea Sanfilippo, Karsten Reuter, and Matthias Scheffler,
    'Resolution-of-identity approach to Hartree-Fock, hybrid density functionals,
    RPA, MP2, and GW with numeric atom-centered orbital basis functions'
    New Journal of Physics 14, 053020 (2012).
    http://doi.org/10.1088/1367-2630/14/5/053020


  The provided symmetry information was generated with SPGlib:

    Atsushi Togo, Yusuke Seto, Dimitar Pashov
    SPGlib 1.7.3 obtained from http://spglib.sourceforge.net
    Copyright (C) 2008 Atsushi Togo


  The DFPT (perturbation by an electric field) part of the code was used.
  Here is the corresponding reference:

    Honghui Shang, Nathaniel Raimbault, Mariana Rossi,
    Christian Carbogno, Patrick Rinke and Matthias Scheffler,
    'All-Electron, Real-Space Perturbation Theory for Homogeneous
    Electric Fields: Theory, Implementation, and Application within dft'
    New Journal of Physics, 20(7):073040, 2018


  The ELSI infrastructure was used in your run to solve the Kohn-Sham electronic structure.
  Please check out http://elsi-interchange.org to learn more.
  If scalability is important for your project, please acknowledge ELSI by citing:

    V. W-z. Yu, F. Corsetti, A. Garcia, W. P. Huhn, M. Jacquelin, W. Jia,
    B. Lange, L. Lin, J. Lu, W. Mi, A. Seifitokaldani, A. Vazquez-Mayagoitia,
    C. Yang, H. Yang, and V. Blum
    'ELSI: A unified software interface for Kohn-Sham electronic structure solvers'
    Computer Physics Communications 222, 267-285 (2018).
    http://doi.org/10.1016/j.cpc.2017.09.007


  For the real-space grid partitioning and parallelization used in this calculation, please cite:

    Ville Havu, Volker Blum, Paula Havu, and Matthias Scheffler,
    'Efficient O(N) integration for all-electron electronic structure calculation'
    'using numerically tabulated basis functions'
    Journal of Computational Physics 228, 8367-8379 (2009).
    http://doi.org/10.1016/j.jcp.2009.08.008


  The high-level electronic structure method used in your calculation
  employed our efficient localized resolution of identity for the Coulomb operator.
  Some calculations, especially large-scale hybrid density functional theory,
  are only possible thanks to this development. For this feature, please cite:

    Arvid Ihrig, Juergen Wieferink, Igor Ying Zhang, Matti Ropo, Xinguo Ren,
    Patrick Rinke, Matthias Scheffler, and Volker Blum,
    'Accurate localized resolution of identity approach for linear-scaling
    hybrid density functionals and for many-body perturbation theory'
    New Journal of Physics 117, 093020 (2015).
    http://doi.org/10.1088/1367-2630/17/9/093020

  Of course, there are many other important community references, e.g., those cited in the
  above references. Our list is limited to references that describe implementations in the
  FHI-aims code. The reason is purely practical (length of this list) - please credit others as well.

------------------------------------------------------------
          Leaving FHI-aims.
          Date     :  20230125, Time     :  142058.451

          Computational steps:
          | Number of self-consistency cycles          :           47
          | Number of SCF (re)initializations          :            1
          | Number of coupled perturbed self-consistency cycles          :            0
          | Number of CPSCF (re)initializations          :            0

          Detailed time accounting                     :  max(cpu_time)    wall_clock(cpu1)
          | Total time                                  :     1531.454 s        1544.419 s
          | GPU initialization                          :        2.193 s          10.240 s
          | Preparation time                            :        0.072 s           0.064 s
          | Boundary condition initalization            :        5.668 s           5.670 s
          | Grid partitioning                           :        1.265 s           1.265 s
          | Preloading free-atom quantities on grid     :        3.628 s           3.628 s
          | Free-atom superposition energy              :        0.513 s           0.513 s
          | Total time for integrations                 :       16.841 s          17.823 s
          | Product basis setup: Total time             :        0.000 s           0.000 s
          | Product basis: | 2-center integrations     :(       0.000 s)  (       0.000 s)
          | Product basis: | LVL 3-center & coefficient:(       0.000 s)  (       0.000 s)
          | Total time for solution of K.-S. equations  :        3.208 s           3.209 s
          | Total time for density update               :       11.623 s          14.360 s
          | Total time for mixing & preconditioning     :       10.690 s          10.691 s
          | Total time for Hartree multipole update     :        0.096 s           0.097 s
          | Total time for Hartree multipole sum        :       41.048 s          41.059 s
          | Total time for total energy evaluation      :        0.008 s           0.005 s
          | Total time for DFPT                         :     1433.465 s        1434.072 s
          | Total time first_order_DM                   :        1.880 s           1.876 s
          | Total time first_order_density              :      299.570 s         299.651 s
          | Total time first_order_potential            :      120.788 s         120.835 s
          | Total time first_order_H                    :      635.580 s         635.809 s
          | Total time solving of Sternheimer equations :        1.887 s           1.886 s
          | Total time for dielectric constant          :        0.000 s           0.000 s
          | Total time momentum matrix                  :        0.000 s           0.000 s

          GPU acceleration has been used for charge density update.
          GPU acceleration has been used for real-space Hamiltonian integration.
          Due to GPU usage, wall_clock(cpu1) will give a more reliable estimate for timings.

          Partial memory accounting:
          | Residual value for overall tracked memory usage across tasks:     0.000000 MB (should be 0.000000 MB)
          | Peak values for overall tracked memory usage:
          |   Minimum:      292.771 MB (on task  0 after allocating DFPT_pulay_mixing::pulay_mix::alphas)
          |   Maximum:      292.771 MB (on task  0 after allocating DFPT_pulay_mixing::pulay_mix::alphas)
          |   Average:      292.771 MB
          | Largest tracked array allocation:
          |   Minimum:      103.204 MB (DFPT_pulay_mixing::initialize_pulay_mixing::X_in_diffs on task  0)
          |   Maximum:      103.204 MB (DFPT_pulay_mixing::initialize_pulay_mixing::X_in_diffs on task  0)
          |   Average:      103.204 MB
          Note:  These values currently only include a subset of arrays which are explicitly tracked.
          The "true" memory usage will be greater.

          Have a nice day.
------------------------------------------------------------
