------------------------------------------------------------
          Invoking FHI-aims ...

          When using FHI-aims, please cite the following reference:

            Volker Blum, Ralf Gehrke, Felix Hanke, Paula Havu,
            Ville Havu, Xinguo Ren, Karsten Reuter, and Matthias Scheffler,
            'Ab Initio Molecular Simulations with Numeric Atom-Centered Orbitals',
            Computer Physics Communications 180, 2175-2196 (2009)

          In addition, many other developments in FHI-aims are likely important for
          your particular application. A partial list of references is given at the end of
          this file. Thank you for giving credit to the authors of these developments.

          For any questions about FHI-aims, please visit our slack channel at

            https://fhi-aims.slack.com

          and our main development and support site at

            https://aims-git.rz-berlin.mpg.de .

          The latter site, in particular, has a wiki to collect information, as well
          as an issue tracker to log discussions, suggest improvements, and report issues
          or bugs. https://aims-git.rz-berlin.mpg.de is also the main development site
          of the project and all new and updated code versions can be obtained there.
          Please send an email to aims-coordinators@fhi-berlin.mpg.de and we will add
          you to these sites. They are for you and everyone is welcome there.

------------------------------------------------------------



  Date     :  20230120, Time     :  155909.154
  Time zero on CPU 1             :   0.393478000000000E+00  s.
  Internal wall clock time zero  :           443462349.154  s.

  FHI-aims created a unique identifier for this run for later identification
  aims_uuid : C010964D-DE55-4C7D-AEEC-FCF6EAC2ED3E

  Build configuration of the current instance of FHI-aims
  -------------------------------------------------------
  FHI-aims version      : 220829
  Commit number         : 9895fc21d
  CMake host system     : Linux-5.3.18-150300.59.68-default
  CMake version         : 3.17.0
  Fortran compiler      : /mpcdf/soft/SLE_15/packages/x86_64/intel_oneapi/2021.3/mpi/2021.3.0/bin/mpiifort (Intel) version 20.2.3.20210609
  Fortran compiler flags: -O3 -ip -fp-model precise
  C compiler            : /mpcdf/soft/SLE_15/packages/x86_64/intel/2021.3.0/bin/icc (Intel) version 20.2.3.20210609
  C compiler flags      : -O3 -ip -fp-model precise -std=gnu99
  CUDA compiler         : /mpcdf/soft/SLE_15/packages/x86_64/cuda/11.6.2/bin/nvcc
  CUDA compiler flags   : -O3 -DAdd_ -lcublas
  ELPA2 kernel          : AVX512
  Using MPI
  Using ScaLAPACK
  Using LibXC
  Using CUDA
  Using i-PI
  Using RLSY
  Linking against: /mpcdf/soft/SLE_15/packages/x86_64/cuda/11.6.2/lib64/libcublas.so
                   /mpcdf/soft/SLE_15/packages/x86_64/cuda/11.6.2/lib64/libcudart.so
                   /mpcdf/soft/SLE_15/packages/x86_64/intel_oneapi/2021.3/mkl/latest/lib/intel64/libmkl_intel_lp64.so
                   /mpcdf/soft/SLE_15/packages/x86_64/intel_oneapi/2021.3/mkl/latest/lib/intel64/libmkl_sequential.so
                   /mpcdf/soft/SLE_15/packages/x86_64/intel_oneapi/2021.3/mkl/latest/lib/intel64/libmkl_core.so
                   /mpcdf/soft/SLE_15/packages/x86_64/intel_oneapi/2021.3/mkl/latest/lib/intel64/libmkl_blacs_intelmpi_lp64.so
                   /mpcdf/soft/SLE_15/packages/x86_64/intel_oneapi/2021.3/mkl/latest/lib/intel64/libmkl_scalapack_lp64.so

  Using       18 parallel tasks.
  Task        0 on host adag006 reporting.
  Task        1 on host adag006 reporting.
  Task        2 on host adag006 reporting.
  Task        3 on host adag006 reporting.
  Task        4 on host adag006 reporting.
  Task        5 on host adag006 reporting.
  Task        6 on host adag006 reporting.
  Task        7 on host adag006 reporting.
  Task        8 on host adag006 reporting.
  Task        9 on host adag006 reporting.
  Task       10 on host adag006 reporting.
  Task       11 on host adag006 reporting.
  Task       12 on host adag006 reporting.
  Task       13 on host adag006 reporting.
  Task       14 on host adag006 reporting.
  Task       15 on host adag006 reporting.
  Task       16 on host adag006 reporting.
  Task       17 on host adag006 reporting.

  Performing system and environment tests:
  | Environment variable OMP_NUM_THREADS correctly set to 1.
  | Checking for ScaLAPACK...
  | Testing pdtran()...
  | All pdtran() tests passed.

  Obtaining array dimensions for all initial allocations:
  
  -----------------------------------------------------------------------
  Parsing control.in (first pass over file, find array dimensions only).
  The contents of control.in will be repeated verbatim below
  unless switched off by setting 'verbatim_writeout .false.' .
  in the first line of control.in .
  -----------------------------------------------------------------------
  
  #
  # Input for polarizability replays on generic oligoacene molecular crystals (light settings,  LDA+MBD).
  #
  #########################################################################################
  #
  #  Physical model
  #
    xc                 pw-lda
    spin               none
    relativistic       none
    charge             0.0
    k_grid 	     2 1 1
    DFPT dielectric
  #
  #  GPU acceleration
  #
  # Turns on GPU acceleration everywhere
    use_gpu
  
  # Turns OFF GPU acceleration of ELPA - may be necessary if GPU ELPA is slow
    elsi_elpa_gpu 0
  #
  #  Relaxation
  #
  #  relax_geometry trm 1E-3
  #  relax_unit_cell fixed_angles
  #
  #  SCF convergence        #
    charge_mix_param   0.75
    #sc_accuracy_rho 1E-4
  #
  # i-PI communication
  #
  compute_forces .false.
  # use_pimd_wrapper 130.183.223.27 26118
  #communicate_pimd_wrapper polarizability
  #output_level MD_light
  #
  # Output SALTED info
    ri_density_restart write
    ri_rho1 write
    ri_full_output .true.
  #  sc_accuracy_rho    1d-6
    default_prodbas_acc 1e-6
    default_max_l_prodbas 6
  #
  #
  ################################################################################
  #
  #  FHI-aims code project
  #  VB, Fritz-Haber Institut, 2009
  #
  #  Suggested "light" defaults for H atom (to be pasted into control.in file)
  #  Be sure to double-check any results obtained with these settings for post-processing,
  #  e.g., with the "tight" defaults and larger basis sets.
  #
  ################################################################################
    species        H
  #     global species definitions
      nucleus             1
      mass                1.00794
  #
      l_hartree           4
  #
      cut_pot             3.5  1.5  1.0
      basis_dep_cutoff    1e-4
  #
      radial_base         24 5.0
      radial_multiplier   1
      angular_grids       specified
        division   0.2421   50
        division   0.3822  110
        division   0.4799  194
        division   0.5341  302
  #      division   0.5626  434
  #      division   0.5922  590
  #      division   0.6542  770
  #      division   0.6868 1202
  #      outer_grid  770
        outer_grid  302
  ################################################################################
  #
  #  Definition of "minimal" basis
  #
  ################################################################################
  #     valence basis states
      valence      1  s   1.
  #     ion occupancy
      ion_occ      1  s   0.5
  ################################################################################
  #
  #  Suggested additional basis functions. For production calculations,
  #  uncomment them one after another (the most important basis functions are
  #  listed first).
  #
  #  Basis constructed for dimers: 0.5 A, 0.7 A, 1.0 A, 1.5 A, 2.5 A
  #
  ################################################################################
  #  "First tier" - improvements: -1014.90 meV to -62.69 meV
       hydro 2 s 2.1
       hydro 2 p 3.5
  #  "Second tier" - improvements: -12.89 meV to -1.83 meV
  #     hydro 1 s 0.85
  #     hydro 2 p 3.7
  #     hydro 2 s 1.2
  #     hydro 3 d 7
  #  "Third tier" - improvements: -0.25 meV to -0.12 meV
  #     hydro 4 f 11.2
  #     hydro 3 p 4.8
  #     hydro 4 d 9
  #     hydro 3 s 3.2
  ################################################################################
  ################################################################################
  #
  #  FHI-aims code project
  #  VB, Fritz-Haber Institut, 2009
  #
  #  Suggested "light" defaults for C atom (to be pasted into control.in file)
  #  Be sure to double-check any results obtained with these settings for post-processing,
  #  e.g., with the "tight" defaults and larger basis sets.
  #
  ################################################################################
    species        C
  #     global species definitions
      nucleus             6
      mass                12.0107
  #
      l_hartree           4
  #
      cut_pot             3.5  1.5  1.0
      basis_dep_cutoff    1e-4
  #
      radial_base         34 5.0
      radial_multiplier   1
      angular_grids specified
        division   0.3326   50
        division   0.5710  110
        division   0.7727  194
        division   0.8772  302
  #      division   0.9334  434
  #      division   0.9625  590
  #      division   0.9924  770
  #      division   1.0230  974
  #      division   1.4589 1202
  #     outer_grid  974
       outer_grid 302
  ################################################################################
  #
  #  Definition of "minimal" basis
  #
  ################################################################################
  #     valence basis states
      valence      2  s   2.
      valence      2  p   2.
  #     ion occupancy
      ion_occ      2  s   1.
      ion_occ      2  p   1.
  ################################################################################
  #
  #  Suggested additional basis functions. For production calculations,
  #  uncomment them one after another (the most important basis functions are
  #  listed first).
  #
  #  Constructed for dimers: 1.0 A, 1.25 A, 1.5 A, 2.0 A, 3.0 A
  #
  ################################################################################
  #  "First tier" - improvements: -1214.57 meV to -155.61 meV
       hydro 2 p 1.7
       hydro 3 d 6
       hydro 2 s 4.9
  #  "Second tier" - improvements: -67.75 meV to -5.23 meV
  #     hydro 4 f 9.8
  #     hydro 3 p 5.2
  #     hydro 3 s 4.3
  #     hydro 5 g 14.4
  #     hydro 3 d 6.2
  #  "Third tier" - improvements: -2.43 meV to -0.60 meV
  #     hydro 2 p 5.6
  #     hydro 2 s 1.4
  #     hydro 3 d 4.9
  #     hydro 4 f 11.2
  #  "Fourth tier" - improvements: -0.39 meV to -0.18 meV
  #     hydro 2 p 2.1
  #     hydro 5 g 16.4
  #     hydro 4 d 13.2
  #     hydro 3 s 13.6
  #     hydro 4 f 17.6
  #  Further basis functions - improvements: -0.08 meV and below
  #     hydro 3 s 2
  #     hydro 3 p 6
  #     hydro 4 d 20
  
  -----------------------------------------------------------------------
  Completed first pass over input file control.in .
  -----------------------------------------------------------------------
  
  
  -----------------------------------------------------------------------
  Parsing geometry.in (first pass over file, find array dimensions only).
  The contents of geometry.in will be repeated verbatim below
  unless switched off by setting 'verbatim_writeout .false.' .
  in the first line of geometry.in .
  -----------------------------------------------------------------------
  
  #=======================================================
  # FHI-aims file: /ada/ptmp/mpsd/alewis/naphthalene/qmdata/data/geoms/489.in
  # Created using the Atomic Simulation Environment (ASE)
  # Thu Jan 19 15:19:17 2023
  #=======================================================
  lattice_vector 8.1020000000000003 0.0000000000000000 0.0000000000000000
  lattice_vector 0.0000000000000000 11.8800000000000008 0.0000000000000000
  lattice_vector -9.7850918486534706 0.0000000000000000 14.2571119625755713
  atom -0.5813080000000000 0.1603100000000000 2.4306800000000002 C
  atom 0.1470960000000000 3.1974600000000000 4.8338700000000001 C
  atom 4.1825900000000003 5.5750799999999998 4.7241700000000000 C
  atom 3.2538800000000001 2.7839200000000002 2.4190999999999998 C
  atom 0.1654260000000000 0.9971310000000000 1.6468200000000000 C
  atom -0.6194660000000000 4.0144299999999999 5.6361200000000000 C
  atom 3.4035000000000002 4.8058300000000003 5.5950400000000000 C
  atom 4.0161300000000004 1.9147799999999999 1.6527400000000001 C
  atom 0.3954150000000000 0.6742100000000000 0.2597740000000000 C
  atom -0.9476240000000000 3.6366299999999998 6.9849199999999998 C
  atom 3.0576800000000000 5.2706299999999997 6.8939199999999996 C
  atom 4.3736100000000002 2.2751999999999999 0.3017620000000000 C
  atom -3.8708399999999998 1.6128300000000000 6.6415699999999998 C
  atom 3.0685199999999999 4.3517200000000003 0.5500480000000000 C
  atom 7.1684799999999997 4.4056100000000002 0.5346870000000000 C
  atom 0.2496390000000000 1.5214399999999999 6.5959899999999996 C
  atom -3.4866500000000000 1.2324500000000000 5.3786800000000001 C
  atom 2.7999600000000000 4.0011799999999997 1.8777699999999999 C
  atom 6.7276699999999998 4.7397299999999998 1.8046899999999999 C
  atom 0.6296100000000000 1.9552600000000000 5.3313899999999999 C
  atom -0.7429210000000001 0.4511040000000000 3.4719799999999998 H
  atom 0.4538720000000000 3.5670000000000002 3.8580600000000000 H
  atom 4.4185200000000000 5.2125500000000002 3.7286000000000001 H
  atom 2.9665499999999998 2.5493199999999998 3.4268900000000002 H
  atom 0.4769360000000000 1.9779199999999999 2.0296500000000002 H
  atom -0.9436840000000000 4.9773199999999997 5.2165299999999997 H
  atom 3.0678100000000001 3.7845599999999999 5.3596899999999996 H
  atom 4.3326000000000002 0.9277470000000000 2.0097700000000001 H
  atom -3.5761300000000000 2.5611500000000000 7.0397100000000004 H
  atom 2.7197600000000000 5.3327799999999996 0.1967910000000000 H
  atom 6.8047199999999997 3.4860000000000002 0.0863613000000000 H
  atom 0.5970380000000000 0.5772460000000000 6.9871800000000004 H
  atom -2.8933700000000000 1.9601100000000000 4.7918200000000004 H
  atom 2.2377099999999999 4.6826299999999996 2.5148999999999999 H
  atom 6.0866300000000004 4.0366700000000000 2.3700399999999999 H
  atom 1.2421700000000000 1.2759199999999999 4.7053599999999998 H
  atom -5.7449100000000000 0.1511500000000000 9.5198999999999998 C
  atom -4.7415799999999999 2.9912600000000000 11.9238999999999997 C
  atom -0.6474160000000000 5.8222100000000001 11.9540000000000006 C
  atom -1.6404099999999999 2.7948100000000000 9.5790600000000001 C
  atom -5.0054800000000004 1.0390699999999999 8.7854399999999995 C
  atom -5.5728600000000004 3.8078400000000001 12.6541999999999994 C
  atom -1.3550500000000001 4.9084399999999997 12.7192000000000007 C
  atom -0.8850110000000000 1.9874600000000000 8.7522800000000007 C
  atom -4.6164399999999999 0.6986320000000000 7.4683400000000004 C
  atom -5.9038599999999999 3.5143200000000001 13.9864999999999995 C
  atom -1.7781600000000000 5.2784399999999998 14.0028000000000006 C
  atom -0.4976620000000000 2.3590100000000001 7.4504599999999996 C
  atom -8.6656499999999994 1.4968900000000001 13.6152999999999995 C
  atom -1.7892699999999999 4.4347399999999997 7.7977299999999996 C
  atom 2.2866800000000000 4.4905600000000003 7.7983700000000002 C
  atom -4.5536899999999996 1.4602400000000000 13.7723999999999993 C
  atom -8.3947800000000008 1.0872999999999999 12.3308999999999997 C
  atom -2.1649900000000000 4.0176400000000001 9.0787499999999994 C
  atom 1.9858600000000000 4.9945199999999996 9.0693300000000008 C
  atom -4.2225400000000004 1.7597200000000000 12.4758999999999993 C
  atom -6.0645800000000003 0.4160410000000000 10.5451999999999995 H
  atom -4.5441000000000003 3.2586599999999999 10.8903999999999996 H
  atom -0.3337730000000000 5.5976900000000001 10.9375999999999998 H
  atom -1.8059700000000001 2.4802000000000000 10.5886999999999993 H
  atom -4.8006900000000003 2.0505300000000002 9.1121700000000008 H
  atom -5.8900199999999998 4.7160700000000002 12.1674000000000007 H
  atom -1.7015800000000001 3.9712000000000001 12.2622999999999998 H
  atom -0.5644940000000001 0.9928590000000000 9.0981900000000007 H
  atom -8.3274299999999997 2.4686200000000000 13.9730000000000008 H
  atom -2.2000700000000002 5.3475799999999998 7.3476900000000001 H
  atom 1.9436199999999999 3.5280000000000000 7.4673900000000000 H
  atom -4.1173400000000004 0.5476080000000000 14.2318999999999996 H
  atom -7.8621999999999996 1.7355799999999999 11.6271000000000004 H
  atom -2.7715399999999999 4.6610899999999997 9.7342800000000000 H
  atom 1.3734100000000000 4.3551900000000003 9.7718799999999995 H
  atom -3.5502199999999999 1.1200699999999999 11.8917000000000002 H
  atom -1.0118700000000000 6.0067100000000000 2.3219900000000000 C
  atom 0.1294970000000000 9.0789899999999992 5.0258000000000003 C
  atom 4.2957900000000002 11.8506999999999998 4.8191400000000000 C
  atom 3.2754599999999998 8.8941199999999991 2.4141599999999999 C
  atom -0.1733900000000000 6.8417899999999996 1.6262900000000000 C
  atom -0.6559610000000000 9.9051500000000008 5.7986899999999997 C
  atom 3.5062000000000002 10.9658999999999995 5.5490000000000004 C
  atom 3.9822600000000001 8.0367700000000006 1.6470300000000000 C
  atom 0.2490330000000000 6.5636999999999999 0.3081960000000000 C
  atom -1.0125800000000000 9.5445399999999996 7.1021200000000002 C
  atom 3.1273100000000000 11.2966999999999995 6.8914700000000000 C
  atom 4.3499200000000000 8.3623999999999992 0.2881490000000000 C
  atom -3.7565800000000000 7.2843700000000000 6.4105999999999996 C
  atom 3.2085499999999998 10.4968000000000004 0.5797070000000000 C
  atom 7.2791300000000003 10.4184000000000001 0.6245510000000000 C
  atom 0.2865210000000000 7.4567800000000002 6.8020199999999997 C
  atom -3.4633600000000002 6.8685600000000004 5.1185400000000003 C
  atom 2.8940500000000000 10.1542999999999992 1.8735599999999999 C
  atom 7.0207199999999998 10.8217999999999996 1.9305500000000000 C
  atom 0.5981270000000000 7.8182999999999998 5.4995900000000004 C
  atom -1.3543700000000001 6.3321800000000001 3.3174999999999999 H
  atom 0.3714210000000000 9.3699499999999993 3.9753900000000000 H
  atom 4.5950199999999999 11.6027000000000005 3.7890899999999998 H
  atom 2.9901800000000001 8.5667299999999997 3.4015599999999999 H
  atom 0.0976228000000000 7.8128099999999998 2.0624799999999999 H
  atom -1.0283800000000001 10.8804999999999996 5.4175199999999997 H
  atom 3.2578900000000002 9.9686500000000002 5.1749599999999996 H
  atom 4.3480100000000004 7.0686499999999999 2.0326599999999999 H
  atom -3.3929100000000001 8.2281300000000002 6.7753500000000004 H
  atom 2.9121400000000000 11.4877000000000002 0.2455660000000000 H
  atom 6.8520700000000003 9.5015800000000006 0.2051600000000000 H
  atom 0.6336440000000000 6.5078600000000000 7.2200300000000004 H
  atom -2.9302000000000001 7.4938799999999999 4.4281499999999996 H
  atom 2.3219200000000000 10.8516999999999992 2.5029699999999999 H
  atom 6.4576099999999999 10.1776999999999997 2.5960500000000000 H
  atom 1.2424800000000000 7.2341400000000000 4.8676199999999996 H
  atom -5.6434400000000000 6.2441199999999997 9.4885000000000002 C
  atom -4.7902600000000000 9.0063200000000005 11.9053000000000004 C
  atom -0.6795880000000000 11.6649999999999991 11.8735999999999997 C
  atom -1.6852300000000000 8.7647300000000001 9.7001200000000001 C
  atom -4.8631799999999998 6.9981600000000004 8.6564099999999993 C
  atom -5.5120399999999998 9.9069900000000004 12.6669000000000000 C
  atom -1.3916400000000000 10.8238000000000003 12.7283000000000008 C
  atom -0.9144390000000000 7.9260099999999998 8.9220299999999995 C
  atom -4.5492499999999998 6.5571599999999997 7.3453299999999997 C
  atom -5.8430000000000000 9.6079399999999993 14.0112000000000005 C
  atom -1.6939599999999999 11.2456999999999994 14.0508000000000006 C
  atom -0.5290840000000000 8.2842099999999999 7.6074599999999997 C
  atom -8.7639099999999992 7.4360900000000001 13.7842000000000002 C
  atom -1.8058600000000000 10.3693000000000008 7.9187099999999999 C
  atom 2.3449900000000001 10.4260999999999999 7.7060399999999998 C
  atom -4.6598300000000004 7.4871699999999999 13.7745999999999995 C
  atom -8.3442100000000003 7.0580299999999996 12.5236999999999998 C
  atom -2.1710099999999999 9.9749499999999998 9.1747200000000007 C
  atom 1.9580599999999999 10.7706000000000000 8.9831900000000005 C
  atom -4.3008699999999997 7.7907599999999997 12.4535999999999998 C
  atom -5.8753099999999998 6.5807200000000003 10.4814000000000007 H
  atom -4.5504800000000003 9.2834000000000003 10.8964999999999996 H
  atom -0.5064210000000000 11.3665000000000003 10.7939000000000007 H
  atom -1.8944799999999999 8.4845799999999993 10.7436000000000007 H
  atom -4.5198099999999997 8.0131099999999993 8.9228000000000005 H
  atom -5.8587300000000004 10.8412000000000006 12.2507000000000001 H
  atom -1.7981900000000000 9.8694299999999995 12.3797999999999995 H
  atom -0.4889930000000000 7.0429800000000000 9.3543599999999998 H
  atom -8.4706799999999998 8.4069099999999999 14.2311999999999994 H
  atom -2.1219399999999999 11.3646999999999991 7.5745800000000001 H
  atom 2.0242900000000001 9.4691899999999993 7.2901499999999997 H
  atom -4.2901999999999996 6.5594900000000003 14.1564999999999994 H
  atom -7.6704400000000001 7.7089800000000004 12.0071999999999992 H
  atom -2.7620600000000000 10.6842000000000006 9.7784999999999993 H
  atom 1.3277300000000001 10.1239000000000008 9.6053300000000004 H
  atom -3.6894399999999998 7.0912899999999999 11.8812999999999995 H
  
  -----------------------------------------------------------------------
  Completed first pass over input file geometry.in .
  -----------------------------------------------------------------------
  

  Basic array size parameters:
  | Number of species                 :        2
  | Number of atoms                   :      144
  | Number of lattice vectors         :        3
  | Max. basis fn. angular momentum   :        2
  | Max. atomic/ionic basis occupied n:        2
  | Max. number of basis fn. types    :        2
  | Max. radial fns per species/type  :        3
  | Max. logarithmic grid size        :     1277
  | Max. radial integration grid size :       34
  | Max. angular integration grid size:      302
  | Max. angular grid division number :        8
  | Radial grid for Hartree potential :     1277
  | Number of spin channels           :        1

------------------------------------------------------------
          Reading file control.in.
------------------------------------------------------------
  XC: Using Perdew-Wang parametrisation of Ceperley-Alder LDA.
  Spin treatment: No spin polarisation.
  Non-relativistic treatment of kinetic energy.
  Charge =   0.000000E+00: Neutral system requested explicitly.
  Found k-point grid:         2         1         1
  DFPT calculation will begin after the DFT/HF calculation.
  Charge density mixing - mixing parameter:     0.7500
  Forces will not be computed.
 
  Reading configuration options for species H                   .
  | Found nuclear charge :   1.0000
  | Found atomic mass :    1.00794000000000      amu
  | Found l_max for Hartree potential  :   4
  | Found cutoff potl. onset [A], width [A], scale factor :    3.50000    1.50000    1.00000
  | Threshold for basis-dependent cutoff potential is   0.100000E-03
  | Found data for basic radial integration grid :    24 points, outermost radius =    5.000 A
  | Found multiplier for basic radial grid :   1
  | Found angular grid specification: user-specified.
  | Specified grid contains     5 separate shells.
  | Check grid settings after all constraints further below.
  | Found free-atom valence shell :  1 s   1.000
  | No ionic wave fns used. Skipping ion_occ.
  | Found hydrogenic basis function :  2 s   2.100
  | Found hydrogenic basis function :  2 p   3.500
  Species H                   : Missing cutoff potential type.
  Defaulting to exp(1/x)/(1-x)^2 type cutoff potential.
  Species H : No 'logarithmic' tag. Using default grid for free atom:
  | Default logarithmic grid data [bohr] : 0.1000E-03 0.1000E+03 0.1012E+01
  Species H : On-site basis accuracy parameter (for Gram-Schmidt orthonormalisation) not specified.
  Using default value basis_acc =  0.1000000E-03.
  Species H                   : Using default innermost maximum threshold i_radial=  2 for radial functions.
  Species H                   : Default cutoff onset for free atom density etc. : 0.35000000E+01 AA.
  Species H                   : Basic radial grid will be enhanced according to radial_multiplier =   1, to contain    24 grid points.
 
  Reading configuration options for species C                   .
  | Found nuclear charge :   6.0000
  | Found atomic mass :    12.0107000000000      amu
  | Found l_max for Hartree potential  :   4
  | Found cutoff potl. onset [A], width [A], scale factor :    3.50000    1.50000    1.00000
  | Threshold for basis-dependent cutoff potential is   0.100000E-03
  | Found data for basic radial integration grid :    34 points, outermost radius =    5.000 A
  | Found multiplier for basic radial grid :   1
  | Found angular grid specification: user-specified.
  | Specified grid contains     5 separate shells.
  | Check grid settings after all constraints further below.
  | Found free-atom valence shell :  2 s   2.000
  | Found free-atom valence shell :  2 p   2.000
  | No ionic wave fns used. Skipping ion_occ.
  | No ionic wave fns used. Skipping ion_occ.
  | Found hydrogenic basis function :  2 p   1.700
  | Found hydrogenic basis function :  3 d   6.000
  | Found hydrogenic basis function :  2 s   4.900
  Species C                   : Missing cutoff potential type.
  Defaulting to exp(1/x)/(1-x)^2 type cutoff potential.
  Species C : No 'logarithmic' tag. Using default grid for free atom:
  | Default logarithmic grid data [bohr] : 0.1000E-03 0.1000E+03 0.1012E+01
  Species C : On-site basis accuracy parameter (for Gram-Schmidt orthonormalisation) not specified.
  Using default value basis_acc =  0.1000000E-03.
  Species C                   : Using default innermost maximum threshold i_radial=  2 for radial functions.
  Species C                   : Default cutoff onset for free atom density etc. : 0.35000000E+01 AA.
  Species C                   : Basic radial grid will be enhanced according to radial_multiplier =   1, to contain    34 grid points.
 
  Finished reading input file 'control.in'.
 
------------------------------------------------------------


------------------------------------------------------------
          Reading geometry description geometry.in.
------------------------------------------------------------
  | The smallest distance between any two atoms is         1.06914177 AA.
  | The first atom of this pair is atom number                    124 .
  | The second atom of this pair is atom number                   140 .
  | Wigner-Seitz cell of the first atom image           0     0     0 .
  | (The Wigner-Seitz cell of the second atom is 0 0 0  by definition.)

  Symmetry information by spglib:
  | Precision set to  0.1E-04
  | Number of Operations  : 1
  | Space group           : 1
  | International         : P1
  | Schoenflies           : C1^1
  Input structure read successfully.
  The structure contains      144 atoms,  and a total of        544.000 electrons.

  Input geometry:
  | Unit cell:
  |        8.10200000        0.00000000        0.00000000
  |        0.00000000       11.88000000        0.00000000
  |       -9.78509185        0.00000000       14.25711196
  | Atomic structure:
  |       Atom                x [A]            y [A]            z [A]
  |    1: Species C            -0.58130800        0.16031000        2.43068000
  |    2: Species C             0.14709600        3.19746000        4.83387000
  |    3: Species C             4.18259000        5.57508000        4.72417000
  |    4: Species C             3.25388000        2.78392000        2.41910000
  |    5: Species C             0.16542600        0.99713100        1.64682000
  |    6: Species C            -0.61946600        4.01443000        5.63612000
  |    7: Species C             3.40350000        4.80583000        5.59504000
  |    8: Species C             4.01613000        1.91478000        1.65274000
  |    9: Species C             0.39541500        0.67421000        0.25977400
  |   10: Species C            -0.94762400        3.63663000        6.98492000
  |   11: Species C             3.05768000        5.27063000        6.89392000
  |   12: Species C             4.37361000        2.27520000        0.30176200
  |   13: Species C            -3.87084000        1.61283000        6.64157000
  |   14: Species C             3.06852000        4.35172000        0.55004800
  |   15: Species C             7.16848000        4.40561000        0.53468700
  |   16: Species C             0.24963900        1.52144000        6.59599000
  |   17: Species C            -3.48665000        1.23245000        5.37868000
  |   18: Species C             2.79996000        4.00118000        1.87777000
  |   19: Species C             6.72767000        4.73973000        1.80469000
  |   20: Species C             0.62961000        1.95526000        5.33139000
  |   21: Species H            -0.74292100        0.45110400        3.47198000
  |   22: Species H             0.45387200        3.56700000        3.85806000
  |   23: Species H             4.41852000        5.21255000        3.72860000
  |   24: Species H             2.96655000        2.54932000        3.42689000
  |   25: Species H             0.47693600        1.97792000        2.02965000
  |   26: Species H            -0.94368400        4.97732000        5.21653000
  |   27: Species H             3.06781000        3.78456000        5.35969000
  |   28: Species H             4.33260000        0.92774700        2.00977000
  |   29: Species H            -3.57613000        2.56115000        7.03971000
  |   30: Species H             2.71976000        5.33278000        0.19679100
  |   31: Species H             6.80472000        3.48600000        0.08636130
  |   32: Species H             0.59703800        0.57724600        6.98718000
  |   33: Species H            -2.89337000        1.96011000        4.79182000
  |   34: Species H             2.23771000        4.68263000        2.51490000
  |   35: Species H             6.08663000        4.03667000        2.37004000
  |   36: Species H             1.24217000        1.27592000        4.70536000
  |   37: Species C            -5.74491000        0.15115000        9.51990000
  |   38: Species C            -4.74158000        2.99126000       11.92390000
  |   39: Species C            -0.64741600        5.82221000       11.95400000
  |   40: Species C            -1.64041000        2.79481000        9.57906000
  |   41: Species C            -5.00548000        1.03907000        8.78544000
  |   42: Species C            -5.57286000        3.80784000       12.65420000
  |   43: Species C            -1.35505000        4.90844000       12.71920000
  |   44: Species C            -0.88501100        1.98746000        8.75228000
  |   45: Species C            -4.61644000        0.69863200        7.46834000
  |   46: Species C            -5.90386000        3.51432000       13.98650000
  |   47: Species C            -1.77816000        5.27844000       14.00280000
  |   48: Species C            -0.49766200        2.35901000        7.45046000
  |   49: Species C            -8.66565000        1.49689000       13.61530000
  |   50: Species C            -1.78927000        4.43474000        7.79773000
  |   51: Species C             2.28668000        4.49056000        7.79837000
  |   52: Species C            -4.55369000        1.46024000       13.77240000
  |   53: Species C            -8.39478000        1.08730000       12.33090000
  |   54: Species C            -2.16499000        4.01764000        9.07875000
  |   55: Species C             1.98586000        4.99452000        9.06933000
  |   56: Species C            -4.22254000        1.75972000       12.47590000
  |   57: Species H            -6.06458000        0.41604100       10.54520000
  |   58: Species H            -4.54410000        3.25866000       10.89040000
  |   59: Species H            -0.33377300        5.59769000       10.93760000
  |   60: Species H            -1.80597000        2.48020000       10.58870000
  |   61: Species H            -4.80069000        2.05053000        9.11217000
  |   62: Species H            -5.89002000        4.71607000       12.16740000
  |   63: Species H            -1.70158000        3.97120000       12.26230000
  |   64: Species H            -0.56449400        0.99285900        9.09819000
  |   65: Species H            -8.32743000        2.46862000       13.97300000
  |   66: Species H            -2.20007000        5.34758000        7.34769000
  |   67: Species H             1.94362000        3.52800000        7.46739000
  |   68: Species H            -4.11734000        0.54760800       14.23190000
  |   69: Species H            -7.86220000        1.73558000       11.62710000
  |   70: Species H            -2.77154000        4.66109000        9.73428000
  |   71: Species H             1.37341000        4.35519000        9.77188000
  |   72: Species H            -3.55022000        1.12007000       11.89170000
  |   73: Species C            -1.01187000        6.00671000        2.32199000
  |   74: Species C             0.12949700        9.07899000        5.02580000
  |   75: Species C             4.29579000       11.85070000        4.81914000
  |   76: Species C             3.27546000        8.89412000        2.41416000
  |   77: Species C            -0.17339000        6.84179000        1.62629000
  |   78: Species C            -0.65596100        9.90515000        5.79869000
  |   79: Species C             3.50620000       10.96590000        5.54900000
  |   80: Species C             3.98226000        8.03677000        1.64703000
  |   81: Species C             0.24903300        6.56370000        0.30819600
  |   82: Species C            -1.01258000        9.54454000        7.10212000
  |   83: Species C             3.12731000       11.29670000        6.89147000
  |   84: Species C             4.34992000        8.36240000        0.28814900
  |   85: Species C            -3.75658000        7.28437000        6.41060000
  |   86: Species C             3.20855000       10.49680000        0.57970700
  |   87: Species C             7.27913000       10.41840000        0.62455100
  |   88: Species C             0.28652100        7.45678000        6.80202000
  |   89: Species C            -3.46336000        6.86856000        5.11854000
  |   90: Species C             2.89405000       10.15430000        1.87356000
  |   91: Species C             7.02072000       10.82180000        1.93055000
  |   92: Species C             0.59812700        7.81830000        5.49959000
  |   93: Species H            -1.35437000        6.33218000        3.31750000
  |   94: Species H             0.37142100        9.36995000        3.97539000
  |   95: Species H             4.59502000       11.60270000        3.78909000
  |   96: Species H             2.99018000        8.56673000        3.40156000
  |   97: Species H             0.09762280        7.81281000        2.06248000
  |   98: Species H            -1.02838000       10.88050000        5.41752000
  |   99: Species H             3.25789000        9.96865000        5.17496000
  |  100: Species H             4.34801000        7.06865000        2.03266000
  |  101: Species H            -3.39291000        8.22813000        6.77535000
  |  102: Species H             2.91214000       11.48770000        0.24556600
  |  103: Species H             6.85207000        9.50158000        0.20516000
  |  104: Species H             0.63364400        6.50786000        7.22003000
  |  105: Species H            -2.93020000        7.49388000        4.42815000
  |  106: Species H             2.32192000       10.85170000        2.50297000
  |  107: Species H             6.45761000       10.17770000        2.59605000
  |  108: Species H             1.24248000        7.23414000        4.86762000
  |  109: Species C            -5.64344000        6.24412000        9.48850000
  |  110: Species C            -4.79026000        9.00632000       11.90530000
  |  111: Species C            -0.67958800       11.66500000       11.87360000
  |  112: Species C            -1.68523000        8.76473000        9.70012000
  |  113: Species C            -4.86318000        6.99816000        8.65641000
  |  114: Species C            -5.51204000        9.90699000       12.66690000
  |  115: Species C            -1.39164000       10.82380000       12.72830000
  |  116: Species C            -0.91443900        7.92601000        8.92203000
  |  117: Species C            -4.54925000        6.55716000        7.34533000
  |  118: Species C            -5.84300000        9.60794000       14.01120000
  |  119: Species C            -1.69396000       11.24570000       14.05080000
  |  120: Species C            -0.52908400        8.28421000        7.60746000
  |  121: Species C            -8.76391000        7.43609000       13.78420000
  |  122: Species C            -1.80586000       10.36930000        7.91871000
  |  123: Species C             2.34499000       10.42610000        7.70604000
  |  124: Species C            -4.65983000        7.48717000       13.77460000
  |  125: Species C            -8.34421000        7.05803000       12.52370000
  |  126: Species C            -2.17101000        9.97495000        9.17472000
  |  127: Species C             1.95806000       10.77060000        8.98319000
  |  128: Species C            -4.30087000        7.79076000       12.45360000
  |  129: Species H            -5.87531000        6.58072000       10.48140000
  |  130: Species H            -4.55048000        9.28340000       10.89650000
  |  131: Species H            -0.50642100       11.36650000       10.79390000
  |  132: Species H            -1.89448000        8.48458000       10.74360000
  |  133: Species H            -4.51981000        8.01311000        8.92280000
  |  134: Species H            -5.85873000       10.84120000       12.25070000
  |  135: Species H            -1.79819000        9.86943000       12.37980000
  |  136: Species H            -0.48899300        7.04298000        9.35436000
  |  137: Species H            -8.47068000        8.40691000       14.23120000
  |  138: Species H            -2.12194000       11.36470000        7.57458000
  |  139: Species H             2.02429000        9.46919000        7.29015000
  |  140: Species H            -4.29020000        6.55949000       14.15650000
  |  141: Species H            -7.67044000        7.70898000       12.00720000
  |  142: Species H            -2.76206000       10.68420000        9.77850000
  |  143: Species H             1.32773000       10.12390000        9.60533000
  |  144: Species H            -3.68944000        7.09129000       11.88130000

  Lattice parameters for 3D lattice (in Angstroms) :     8.102000   11.880000   17.292000
  Angle(s) between unit vectors (in degrees)       :    90.000000  124.463000   90.000000


  Quantities derived from the lattice vectors (in Angstrom^-1):
  | Reciprocal lattice vector 1:  0.775510  0.000000  0.532257
  | Reciprocal lattice vector 2:  0.000000  0.528888  0.000000
  | Reciprocal lattice vector 3: -0.000000  0.000000  0.440705
  | Unit cell volume                               :   0.137227E+04  Angstrom^3

  Fractional coordinates:
                         L1                L2                L3
       atom_frac         0.13415725        0.01349411        0.17048895  C
       atom_frac         0.42763870        0.26914646        0.33904973  C
       atom_frac         0.91643203        0.46928283        0.33135533  C
       atom_frac         0.60653941        0.23433670        0.16967672  C
       atom_frac         0.15992211        0.08393359        0.11550867  C
       atom_frac         0.40098438        0.33791498        0.39531989  C
       atom_frac         0.89404431        0.40453114        0.39243853  C
       atom_frac         0.63570180        0.16117677        0.11592390  C
       atom_frac         0.07081040        0.05675168        0.01822066  C
       atom_frac         0.47473959        0.30611364        0.48992531  C
       atom_frac         0.96139078        0.44365572        0.48354253  C
       atom_frac         0.56538120        0.19151515        0.02116572  C
       atom_frac         0.08485220        0.13576010        0.46584259  C
       atom_frac         0.42533137        0.36630640        0.03858060  C
       atom_frac         0.93007307        0.37084259        0.03750318  C
       atom_frac         0.58956660        0.12806734        0.46264559  C
       atom_frac         0.02529036        0.10374158        0.37726294  C
       atom_frac         0.50465699        0.33679966        0.13170760  C
       atom_frac         0.98324907        0.39896717        0.12658174  C
       atom_frac         0.52933917        0.16458418        0.37394600  C
       atom_frac         0.20241978        0.03797172        0.24352618  H
       atom_frac         0.38284085        0.30025253        0.27060600  H
       atom_frac         0.86121602        0.43876684        0.26152562  H
       atom_frac         0.65644648        0.21458923        0.24036355  H
       atom_frac         0.23080065        0.16649158        0.14236053  H
       atom_frac         0.32542336        0.41896633        0.36588967  H
       atom_frac         0.83267454        0.31856566        0.37593097  H
       atom_frac         0.70500699        0.07809318        0.14096614  H
       atom_frac         0.15495411        0.21558502        0.49376830  H
       atom_frac         0.35236037        0.44888721        0.01380301  H
       atom_frac         0.84719728        0.29343434        0.00605742  H
       atom_frac         0.66558298        0.04858973        0.49008383  H
       atom_frac         0.04880308        0.16499242        0.33610033  H
       atom_frac         0.48923263        0.39416077        0.17639617  H
       atom_frac         0.95201937        0.33978704        0.16623563  H
       atom_frac         0.55191341        0.10740067        0.33003599  H
       atom_frac         0.09736959        0.01272306        0.66772990  C
       atom_frac         0.42485277        0.25178956        0.83634750  C
       atom_frac         0.93273015        0.49008502        0.83845873  C
       atom_frac         0.60898442        0.23525337        0.67187941  C
       atom_frac         0.12641769        0.08746380        0.61621456  C
       atom_frac         0.38411557        0.32052525        0.88757106  C
       atom_frac         0.91021055        0.41316835        0.89213019  C
       atom_frac         0.63218296        0.16729461        0.61388871  C
       atom_frac         0.06286227        0.05880741        0.52383260  C
       atom_frac         0.45612226        0.29581818        0.98101916  C
       atom_frac         0.96672300        0.44431313        0.98216245  C
       atom_frac         0.56971322        0.19856987        0.52257849  C
       atom_frac         0.08379989        0.12600084        0.95498303  C
       atom_frac         0.43971248        0.37329461        0.54693616  C
       atom_frac         0.94284618        0.37799327        0.54698105  C
       atom_frac         0.60463209        0.12291582        0.96600209  C
       atom_frac         0.00842924        0.09152357        0.86489466  C
       atom_frac         0.50185555        0.33818519        0.63678745  C
       atom_frac         1.01338169        0.42041414        0.63612673  C
       atom_frac         0.53567658        0.14812458        0.87506502  C
       atom_frac         0.14476835        0.03502029        0.73964489  H
       atom_frac         0.36167792        0.27429798        0.76385737  H
       atom_frac         0.88534143        0.47118603        0.76716800  H
       atom_frac         0.67407783        0.20877104        0.74269600  H
       atom_frac         0.17937187        0.17260354        0.63913155  H
       atom_frac         0.30373224        0.39697559        0.85342670  H
       atom_frac         0.82873505        0.33427609        0.86008303  H
       atom_frac         0.70104566        0.08357399        0.63815098  H
       atom_frac         0.15584635        0.20779630        0.98007226  H
       atom_frac         0.35088550        0.45013300        0.51537015  H
       atom_frac         0.87246582        0.29696970        0.52376596  H
       atom_frac         0.69741399        0.04609495        0.99823162  H
       atom_frac         0.01454384        0.14609259        0.81552982  H
       atom_frac         0.48252209        0.39234764        0.68276661  H
       atom_frac         0.99730314        0.36659848        0.68540389  H
       atom_frac         0.56917024        0.09428199        0.83408898  H
       atom_frac         0.07180730        0.50561532        0.16286538  C
       atom_frac         0.44172515        0.76422475        0.35251179  C
       atom_frac         0.93844892        0.99753367        0.33801656  C
       atom_frac         0.60878448        0.74866330        0.16933023  C
       atom_frac         0.11636418        0.57590825        0.11406868  C
       atom_frac         0.41025145        0.83376684        0.40672262  C
       atom_frac         0.90282009        0.92305556        0.38920926  C
       atom_frac         0.63103765        0.67649579        0.11552340  C
       atom_frac         0.05684489        0.55250000        0.02161700  C
       atom_frac         0.47665047        0.80341246        0.49814577  C
       atom_frac         0.96977741        0.95090067        0.48337069  C
       atom_frac         0.56130406        0.70390572        0.02021090  C
       atom_frac         0.07938914        0.61316246        0.44964226  C
       atom_frac         0.44512721        0.88356902        0.04066090  C
       atom_frac         0.95134269        0.87696970        0.04380628  C
       atom_frac         0.61157187        0.62767508        0.47709663  C
       atom_frac         0.00612818        0.57816162        0.35901661  C
       atom_frac         0.51591354        0.85473906        0.13141231  C
       atom_frac         1.03008090        0.91092593        0.13540961  C
       atom_frac         0.53970177        0.65810606        0.38574362  C
       atom_frac         0.11386469        0.53301178        0.23269088  H
       atom_frac         0.38260339        0.78871633        0.27883557  H
       atom_frac         0.88812495        0.97665825        0.26576841  H
       atom_frac         0.65721731        0.72110522        0.23858689  H
       atom_frac         0.18676449        0.65764394        0.14466324  H
       atom_frac         0.33199576        0.91586700        0.37998720  H
       atom_frac         0.84048670        0.83911195        0.36297393  H
       atom_frac         0.70884803        0.59500421        0.14257165  H
       atom_frac         0.15517401        0.69260354        0.47522598  H
       atom_frac         0.38023691        0.96697811        0.01722411  H
       atom_frac         0.86310511        0.79979630        0.01439001  H
       atom_frac         0.68982613        0.54779966        0.50641603  H
       atom_frac         0.01345035        0.63079798        0.31059236  H
       atom_frac         0.49861575        0.91344276        0.17555940  H
       atom_frac         1.01695365        0.85670875        0.18208807  H
       atom_frac         0.56569692        0.60893434        0.34141697  H
       atom_frac         0.10723373        0.52559933        0.66552749  C
       atom_frac         0.41726875        0.75810774        0.83504289  C
       atom_frac         0.92194850        0.98190236        0.83281944  C
       atom_frac         0.61370760        0.73777189        0.68037061  C
       atom_frac         0.13305096        0.58907071        0.60716434  C
       atom_frac         0.39269819        0.83392172        0.88846185  C
       atom_frac         0.90646525        0.91109428        0.89276847  C
       atom_frac         0.64293051        0.66717256        0.62579504  C
       atom_frac         0.06073495        0.55194949        0.51520462  C
       atom_frac         0.46572636        0.80874916        0.98275163  C
       atom_frac         0.98118164        0.94660774        0.98552919  C
       atom_frac         0.57913458        0.69732407        0.53359054  C
       atom_frac         0.08597975        0.62593350        0.96682975  C
       atom_frac         0.44791320        0.87283670        0.55542174  C
       atom_frac         0.94222178        0.87761785        0.54050498  C
       atom_frac         0.59171799        0.63023316        0.96615640  C
       atom_frac         0.03100324        0.59411027        0.87841774  C
       atom_frac         0.50924227        0.83964226        0.64351883  C
       atom_frac         1.00265341        0.90661616        0.63008483  C
       atom_frac         0.52411953        0.65578788        0.87350089  C
       atom_frac         0.16272467        0.55393266        0.73516993  H
       atom_frac         0.36140720        0.78143098        0.76428522  H
       atom_frac         0.85185912        0.95677609        0.75708881  H
       atom_frac         0.67627514        0.71419024        0.75356075  H
       atom_frac         0.19799808        0.67450421        0.62584905  H
       atom_frac         0.31465070        0.91255892        0.85926940  H
       atom_frac         0.82676441        0.83076010        0.86832453  H
       atom_frac         0.73206496        0.59284343        0.65611886  H
       atom_frac         0.16003798        0.70765236        0.99818252  H
       atom_frac         0.37974893        0.95662458        0.53128432  H
       atom_frac         0.86740840        0.79706987        0.51133427  H
       atom_frac         0.66969128        0.55214562        0.99294303  H
       atom_frac         0.07041082        0.64890404        0.84219020  H
       atom_frac         0.48743810        0.89934343        0.68586822  H
       atom_frac         0.97755636        0.85218013        0.67372200  H
       atom_frac         0.55110583        0.59690993        0.83335952  H

 
  Finished reading input file 'geometry.in'.
 

 
  Consistency checks for stacksize environment parameter are next.
 
  | Maximum stacksize for task 0: unlimited
  | Maximum stacksize for task 1: unlimited
  | Maximum stacksize for task 2: unlimited
  | Maximum stacksize for task 3: unlimited
  | Maximum stacksize for task 4: unlimited
  | Maximum stacksize for task 5: unlimited
  | Maximum stacksize for task 6: unlimited
  | Maximum stacksize for task 7: unlimited
  | Maximum stacksize for task 8: unlimited
  | Maximum stacksize for task 9: unlimited
  | Maximum stacksize for task 10: unlimited
  | Maximum stacksize for task 11: unlimited
  | Maximum stacksize for task 12: unlimited
  | Maximum stacksize for task 13: unlimited
  | Maximum stacksize for task 14: unlimited
  | Maximum stacksize for task 15: unlimited
  | Maximum stacksize for task 16: unlimited
  | Maximum stacksize for task 17: unlimited
  | Current stacksize for task 0: unlimited
  | Current stacksize for task 1: unlimited
  | Current stacksize for task 2: unlimited
  | Current stacksize for task 3: unlimited
  | Current stacksize for task 4: unlimited
  | Current stacksize for task 5: unlimited
  | Current stacksize for task 6: unlimited
  | Current stacksize for task 7: unlimited
  | Current stacksize for task 8: unlimited
  | Current stacksize for task 9: unlimited
  | Current stacksize for task 10: unlimited
  | Current stacksize for task 11: unlimited
  | Current stacksize for task 12: unlimited
  | Current stacksize for task 13: unlimited
  | Current stacksize for task 14: unlimited
  | Current stacksize for task 15: unlimited
  | Current stacksize for task 16: unlimited
  | Current stacksize for task 17: unlimited
 
  Consistency checks for the contents of control.in are next.
 
  MPI_IN_PLACE appears to work with this MPI implementation.
  | Keeping use_mpi_in_place .true. (see manual).
  Explicit treatment of the Coulomb operator is needed, but the RI method is not specified.
  Coulomb operator: Defaulting to 'LVL fast' resolution of identity - RI_type = LVL_fast
  Species H: Using default value for prodbas_acc =   1.000000E-06.
  Species H: Using default value max_l_prodbas =     6.
  Species C: Using default value for prodbas_acc =   1.000000E-06.
  Species C: Using default value max_l_prodbas =     6.
  Target number of points in a grid batch is not set.  Since GPU acceleration is enabled, defaulting to  200
  Method for grid partitioning is not set. Defaulting to parallel hash+maxmin partitioning.
  Batch size limit is not set. Defaulting to    200
  By default, will store active basis functions for each batch.
  If in need of memory, prune_basis_once .false. can be used to disable this option.
  communication_type for Hartree potential was not specified.
  Defaulting to calc_hartree .
  Defaulting to Pulay charge density mixer.
  Pulay mixer: Number of relevant iterations not set.
  Defaulting to    8 iterations.
  Pulay mixer: Number of initial linear mixing iterations not set.
  Defaulting to    0 iterations.
  Work space size for distributed Hartree potential not set.
  Defaulting to   0.200000E+03 MB.
  Algorithm-dependent basis array size parameters:
  | n_max_pulay                         :        8
  Maximum number of self-consistency iterations not provided.
  Presetting  1000 iterations.
  Presetting      1001 iterations before the initial mixing cycle
  is restarted anyway using the sc_init_iter criterion / keyword.
  Presetting a factor      1.000 between actual scf density residual
  and density convergence criterion sc_accuracy_rho below which sc_init_iter
  takes no effect.
 * No s.c.f. convergence criteria (sc_accuracy_*) were provided in control.in.
 * The run will proceed with a reasonable default guess, but please check whether.
 * the s.c.f. cycles seem to take too much or too little time.
  Geometry relaxation not requested: no relaxation will be performed.
 * Notice: The s.c.f. convergence criterion sc_accuracy_rho was not provided.
 * We used to stop in this case, and ask the user to provide reasonable
 * scf convergence criteria. However, this led some users to employ criteria
 * that led to extremely long run times, e.g., for simple relaxation.
 * We now preset a default value for sc_accuracy_rho if it is not set.
 * You may still wish to check if this setting is too tight or too loose for your needs.
 * Based on n_atoms and forces and force-correction status, FHI-aims chose sc_accuracy_rho =  0.391918E-04 .
  No accuracy limit for integral partition fn. given. Defaulting to  0.1000E-14.
  No threshold value for u(r) in integrations given. Defaulting to  0.1000E-05.
  No occupation type (smearing scheme) given. Defaulting to Gaussian broadening, width =  0.1000E-01 eV.
  The width will be adjusted in iteration number     2 of the first full s.c.f. cycle only.
  S.C.F. convergence parameters will be adjusted in iteration number     2 of the first full s.c.f. cycle only.
  No accuracy for occupation numbers given. Defaulting to  0.1000E-12.
  No threshold value for occupation numbers given. Defaulting to  0.0000E+00.
  No accuracy for fermi level given. Defaulting to  0.1000E-19.
  Maximum # of iterations to find E_F not set. Defaulting to  200.
  Preferred method for the eigenvalue solver ('KS_method') not specified in 'control.in'.
  Calling BLACS routine to test compilation state
  Since ScaLAPACK support is enabled, defaulting to ELPA (via ELSI).
  Will not use alltoall communication since running on < 1024 CPUs.
  Threshold for basis singularities not set.
  Default threshold for basis singularities:  0.1000E-04
  partition_type (choice of integration weights) for integrals was not specified.
  | Using a version of the partition function of Stratmann and coworkers ('stratmann_sparse').
  | At each grid point, the set of atoms used to build the partition table is smoothly restricted to
  | only those atoms whose free-atom density would be non-zero at that grid point.
  Partitioning for Hartree potential was not defined. Using partition_type for integrals.
  | Adjusted default value of keyword multip_moments_threshold to:       0.10000000E-11
  | This value may affect high angular momentum components of the Hartree potential in periodic systems.
  Angular momentum expansion for Kerker preconditioner not set explicitly.
  | Using default value of   0
  No explicit requirement for turning off preconditioner.
  | By default, it will be turned off when the charge convergence reaches
  | sc_accuracy_rho  =   0.391918E-04
  No special mixing parameter while Kerker preconditioner is on.
  Using default: charge_mix_param =     0.7500.
  Threshold for auxiliary basis singularities not set.
  Default threshold for auxiliary basis singularities:  0.1000E-04
  No q(lm)/r^(l+1) cutoff set for long-range Hartree potential.
  | Using default value of  0.100000E-09 .
  | Verify using the multipole_threshold keyword.
  Defaulting to new monopole extrapolation.
  Density update method: automatic selection selected.
  Using density matrix based charge density update.
  Using density matrix based charge density update.
  Using packed matrix style: index .
  Defaulting to use time-reversal symmetry for k-point grid.
  Charge integration errors on the 3D integration grid will be compensated
  by explicit normalization and distribution of residual charges.
  Use the "compensate_multipole_errors" flag to change this behaviour.
  Default to 1D ("use_logsbt") integrations for auxiliary 2-center integrals.
  Default onset of logarithmic r-grid for SBT is -38.000000000000
  Default onset of logarithmic k-grid for SBT is -25.000000000000
  Default range of logarithmic r- and k-grid for SBT is  45.000000000000
  Default number of logarithmic r- and k-grid for SBT is   4096
  Default of use_2d_corr is to use the efficient 2D distribution where possible
 
  Consistency checks for the contents of geometry.in are next.
 

  Range separation radius for Ewald summation (hartree_convergence_parameter):      2.91768261 bohr.
  Number of empty states per atom not set in control.in .
  | Since you are using a method that relies on the unoccupied spectrum
  | (MP2,GW,RPA et al.), will use the full Hamiltonian size (see below)
  | as the max. possible number of states (occupied plus empty).

  Structure-dependent array size parameters: 
  | Maximum number of distinct radial functions  :        9
  | Maximum number of basis functions            :     1440
  | Number of Kohn-Sham states (occupied + empty):     1440
------------------------------------------------------------
CUDA runtime version: 11060
CUDA driver version: 11060
  Initializing GPUs...

  Number of GPUs available to MPI task         0 :   1
  Number of GPUs available to MPI task         1 :   1
  Number of GPUs available to MPI task         2 :   1
  Number of GPUs available to MPI task         3 :   1
  Number of GPUs available to MPI task         4 :   1
  Number of GPUs available to MPI task         5 :   1
  Number of GPUs available to MPI task         6 :   1
  Number of GPUs available to MPI task         7 :   1
  Number of GPUs available to MPI task         8 :   1
  Number of GPUs available to MPI task         9 :   1
  Number of GPUs available to MPI task        10 :   1
  Number of GPUs available to MPI task        11 :   1
  Number of GPUs available to MPI task        12 :   1
  Number of GPUs available to MPI task        13 :   1
  Number of GPUs available to MPI task        14 :   1
  Number of GPUs available to MPI task        15 :   1
  Number of GPUs available to MPI task        16 :   1
  Number of GPUs available to MPI task        17 :   1

  | MPI task         0, GPU activated = T, Device Name = NVIDIA A100-SXM4-80GB
  | MPI task         1, GPU activated = T, Device Name = NVIDIA A100-SXM4-80GB
  | MPI task         2, GPU activated = T, Device Name = NVIDIA A100-SXM4-80GB
  | MPI task         3, GPU activated = T, Device Name = NVIDIA A100-SXM4-80GB
  | MPI task         4, GPU activated = T, Device Name = NVIDIA A100-SXM4-80GB
  | MPI task         5, GPU activated = T, Device Name = NVIDIA A100-SXM4-80GB
  | MPI task         6, GPU activated = T, Device Name = NVIDIA A100-SXM4-80GB
  | MPI task         7, GPU activated = T, Device Name = NVIDIA A100-SXM4-80GB
  | MPI task         8, GPU activated = T, Device Name = NVIDIA A100-SXM4-80GB
  | MPI task         9, GPU activated = T, Device Name = NVIDIA A100-SXM4-80GB
  | MPI task        10, GPU activated = T, Device Name = NVIDIA A100-SXM4-80GB
  | MPI task        11, GPU activated = T, Device Name = NVIDIA A100-SXM4-80GB
  | MPI task        12, GPU activated = T, Device Name = NVIDIA A100-SXM4-80GB
  | MPI task        13, GPU activated = T, Device Name = NVIDIA A100-SXM4-80GB
  | MPI task        14, GPU activated = T, Device Name = NVIDIA A100-SXM4-80GB
  | MPI task        15, GPU activated = T, Device Name = NVIDIA A100-SXM4-80GB
  | MPI task        16, GPU activated = T, Device Name = NVIDIA A100-SXM4-80GB
  | MPI task        17, GPU activated = T, Device Name = NVIDIA A100-SXM4-80GB

------------------------------------------------------------
          Preparing all fixed parts of the calculation.
------------------------------------------------------------
  Determining machine precision:
    2.225073858507201E-308
  Setting up grids for atomic and cluster calculations.

  Creating wave function, potential, and density for free atoms.
  Runtime choices for atomic solver:
  | atomic solver xc        : PW-LDA
  | compute density gradient: 0
  | compute kinetic density : F

  Species: H

  List of occupied orbitals and eigenvalues:
    n    l              occ      energy [Ha]    energy [eV]
    1    0           1.0000        -0.232375        -6.3233


  Species: C

  List of occupied orbitals and eigenvalues:
    n    l              occ      energy [Ha]    energy [eV]
    1    0           2.0000        -9.944615      -270.6068
    2    0           2.0000        -0.498807       -13.5732
    2    1           2.0000        -0.196968        -5.3598


  Adding cutoff potential to free-atom effective potential.
  Creating fixed part of basis set: Ionic, confined, hydrogenic.
 
  H                    hydrogenic:
 
  List of hydrogenic basis orbitals: 
    n    l      effective z      eigenvalue [eV]  inner max. [A]     outer max. [A]     outer radius [A]   
    2    0         2.100000       -14.9728           0.193243           1.317208           4.583499
    2    1         3.500000       -41.6669           0.602369           0.602369           3.723403
 
 
  C                    hydrogenic:
 
  List of hydrogenic basis orbitals: 
    n    l      effective z      eigenvalue [eV]  inner max. [A]     outer max. [A]     outer radius [A]   
    2    1         1.700000        -9.7616           1.230570           1.230570           4.607917
    3    2         6.000000       -54.4224           0.792453           0.792453           3.883070
    2    0         4.900000       -81.6679           0.082559           0.562749           3.078220
 
  Creating atomic-like basis functions for current effective potential.

  Species H                   :

  List of atomic basis orbitals and eigenvalues:
    n    l      energy [Ha]    energy [eV]    outer radius [A]
    1    0        -0.232375        -6.3233       4.527807


  Species C                   :

  List of atomic basis orbitals and eigenvalues:
    n    l      energy [Ha]    energy [eV]    outer radius [A]
    1    0        -9.944615      -270.6068       1.934409
    2    0        -0.498807       -13.5732       4.496620
    2    1        -0.196968        -5.3598       4.551928

  Assembling full basis from fixed parts.
  | Species H :   atomic orbital   1 s accepted.
  | Species H :    hydro orbital   2 s accepted.
  | Species H :    hydro orbital   2 p accepted.
  | Species C :   atomic orbital   1 s accepted.
  | Species C :    hydro orbital   2 s accepted.
  | Species C :   atomic orbital   2 s accepted.
  | Species C :   atomic orbital   2 p accepted.
  | Species C :    hydro orbital   2 p accepted.
  | Species C :    hydro orbital   3 d accepted.
 
  Basis size parameters after reduction:
  | Total number of radial functions:        9
  | Total number of basis functions :     1440
 
  Per-task memory consumption for arrays in subroutine allocate_ext:
  |           2.242384MB.
  Testing on-site integration grid accuracy.
  |  Species  Function  <phi|h_atom|phi> (log., in eV)  <phi|h_atom|phi> (rad., in eV)
           1        1                 -6.3245358373                 -6.3232436907
           1        2                 14.1326137532                 14.1384481100
           1        3                 25.3627025200                 25.3628451197
           2        4               -270.6067544938               -270.6067222788
           2        5                -10.5634280949                -10.5635685736
           2        6                 16.2089822398                 16.2052121796
           2        7                 -5.3613872565                 -5.3627872378
           2        8                  8.5292058327                  8.5051734780
           2        9                 27.4884461005                 27.4884542459

  Preparing densities etc. for the partition functions (integrals / Hartree potential).

  Preparations completed.
  max(cpu_time)          :      0.073 s.
  Wall clock time (cpu1) :      0.066 s.
------------------------------------------------------------

  Initializing index lists of integration centers etc. from given atomic structure:
  Mapping all atomic coordinates to central unit cell.

  Initializing the k-points
  Using symmetry for reducing the k-points
  | k-points reduced from:        2 to        2
  | Number of k-points                             :         2
  | Consuming          0 KiB for k_phase_exx.
  The eigenvectors in the calculations are REAL.
  | Number of basis functions in the Hamiltonian integrals :      8034
  | Number of basis functions in a single unit cell        :      1440
  | Number of centers in hartree potential         :      3316
  | Number of centers in hartree multipole         :      2533
  | Number of centers in electron density summation:      1977
  | Number of centers in basis integrals           :      2112
  | Number of centers in integrals                 :       961
  | Number of centers in hamiltonian               :      1985
  | Consuming          1 KiB for k_phase.
  | Number of super-cells (origin) [n_cells]                     :         175
  | Number of super-cells (after PM_index) [n_cells]             :          40
  | Number of super-cells in hamiltonian [n_cells_in_hamiltonian]:          40
  | Size of matrix packed + index [n_hamiltonian_matrix_size] :     1931133
  | Size of matrix packed + index (no_symmetry):     3859449

------------------------------------------------------------
          Begin self-consistency loop: Initialization.

          Date     :  20230120, Time     :  155919.614
------------------------------------------------------------
  | Estimated reciprocal-space cutoff momentum G_max:         3.24344278 bohr^-1 .
  | Reciprocal lattice points for long-range Hartree potential:    5310
  Using simple linear distribution as default method for k-point parallelism.
  * Using 18 tasks for Scalapack Eigenvalue solver.
  Detailed listing of tasks and assigned k-points:
   Task     0 k-point     1 on adag006
   Task     1 k-point     1 on adag006
   Task     2 k-point     1 on adag006
   Task     3 k-point     1 on adag006
   Task     4 k-point     1 on adag006
   Task     5 k-point     1 on adag006
   Task     6 k-point     1 on adag006
   Task     7 k-point     1 on adag006
   Task     8 k-point     1 on adag006
   Task     9 k-point     2 on adag006
   Task    10 k-point     2 on adag006
   Task    11 k-point     2 on adag006
   Task    12 k-point     2 on adag006
   Task    13 k-point     2 on adag006
   Task    14 k-point     2 on adag006
   Task    15 k-point     2 on adag006
   Task    16 k-point     2 on adag006
   Task    17 k-point     2 on adag006
  K-point:     1 Tasks:     9 split into      3 X      3 BLACS grid
  Calculating block size based on n_basis =         1440  max_nprow =            3  max_npcol =            3
  ScaLAPACK block size set to:           16
  Allocating        1.758 MB for ovlp
  Allocating        1.758 MB for ham
  Allocating        1.758 MB for eigenvec
  Required Scalapack workspace - INTEGER:            1  REAL:             1
  Partitioning the integration grid into batches with parallel hashing+maxmin method.
  | Number of batches:     5320
  | Maximal batch size:     200
  | Minimal batch size:      99
  | Average batch size:     143.579
  | Standard deviation of batch sizes:      31.124

  Integration load balanced across    18 MPI tasks.
  Work distribution over tasks is as follows:
  Task     0 has      42407 integration points.
  Task     1 has      42474 integration points.
  Task     2 has      42450 integration points.
  Task     3 has      42434 integration points.
  Task     4 has      42418 integration points.
  Task     5 has      42430 integration points.
  Task     6 has      42428 integration points.
  Task     7 has      42424 integration points.
  Task     8 has      42504 integration points.
  Task     9 has      42410 integration points.
  Task    10 has      42478 integration points.
  Task    11 has      42443 integration points.
  Task    12 has      42409 integration points.
  Task    13 has      42439 integration points.
  Task    14 has      42422 integration points.
  Task    15 has      42421 integration points.
  Task    16 has      42414 integration points.
  Task    17 has      42435 integration points.
  Initializing partition tables, free-atom densities, potentials, etc. across the integration grid (initialize_grid_storage).
  | initialize_grid_storage: Actual outermost partition radius vs. multipole_radius_free
  | (-- VB: in principle, multipole_radius_free should be larger, hence this output)
  | Species        1: Confinement radius =              4.999999999999999 AA, multipole_radius_free =              5.054417573612229 AA.
  | Species        1: outer_partition_radius set to              5.054417573612229 AA .
  | Species        2: Confinement radius =              4.999999999999999 AA, multipole_radius_free =              5.019602836301480 AA.
  | Species        2: outer_partition_radius set to              5.019602836301480 AA .
  | The sparse table of interatomic distances needs       7598.93 kbyte instead of     35684.35 kbyte of memory.
  | Net number of integration points:   763840
  | of which are non-zero points    :   605396
  | Numerical average free-atom electrostatic potential    :     -8.61471631 eV
  Renormalizing the initial density to the exact electron count on the 3D integration grid.
  | Initial density: Formal number of electrons (from input files) :     544.0000000000
  | Integrated number of electrons on 3D grid     :     543.9992524204
  | Charge integration error                      :      -0.0007475796
  | Normalization factor for density and gradient :       1.0000013742
  Renormalizing the free-atom superposition density to the exact electron count on the 3D integration grid.
  | Formal number of electrons (from input files) :     544.0000000000
  | Integrated number of electrons on 3D grid     :     543.9992524204
  | Charge integration error                      :      -0.0007475796
  | Normalization factor for density and gradient :       1.0000013742
  Obtaining max. number of non-zero basis functions in each batch (get_n_compute_maxes).
  | Maximal number of non-zero basis functions:      541 in task     0
  | Maximal number of non-zero basis functions:      548 in task     1
  | Maximal number of non-zero basis functions:      547 in task     2
  | Maximal number of non-zero basis functions:      540 in task     3
  | Maximal number of non-zero basis functions:      540 in task     4
  | Maximal number of non-zero basis functions:      534 in task     5
  | Maximal number of non-zero basis functions:      553 in task     6
  | Maximal number of non-zero basis functions:      538 in task     7
  | Maximal number of non-zero basis functions:      536 in task     8
  | Maximal number of non-zero basis functions:      540 in task     9
  | Maximal number of non-zero basis functions:      529 in task    10
  | Maximal number of non-zero basis functions:      538 in task    11
  | Maximal number of non-zero basis functions:      552 in task    12
  | Maximal number of non-zero basis functions:      550 in task    13
  | Maximal number of non-zero basis functions:      578 in task    14
  | Maximal number of non-zero basis functions:      547 in task    15
  | Maximal number of non-zero basis functions:      553 in task    16
  | Maximal number of non-zero basis functions:      549 in task    17
  Integrating Hamiltonian matrix: batch-based integration.
  GPU acceleration will be used when integrating the Hamiltonian matrix.
  Reporting GPU memory usage by myid 0.  Note that it is likely not the only MPI task binding to its GPU!
  Allocating        2.341 MB on GPU for hamiltonian_shell
  Allocating        0.866 MB on GPU for wave
  Allocating        0.002 MB on GPU for partition
  Allocating        0.866 MB on GPU for h_times_psi
  Time summed over all CPUs for integration: real work       21.686 s, elapsed       23.016 s
  Deallocating memory used on GPU for Hamiltonian integration.
  Integrating overlap matrix.
  Time summed over all CPUs for integration: real work       19.131 s, elapsed       19.945 s
  Deallocating overlap matrix.

  Updating Kohn-Sham eigenvalues and eigenvectors using ELSI and the ELPA eigensolver.
  Singularity check in k-point 1 (analysis for other k-points may follow below):
  Overlap matrix is not singular
  | Lowest and highest eigenvalues :  0.7950E-03,  0.8260E+01
  Finished singularity check of overlap matrix
  | Time :     0.102 s
  Starting ELPA eigensolver
  Finished Cholesky decomposition
  | Time :     0.017 s
  Finished transformation to standard eigenproblem
  | Time :     0.022 s
  Finished solving standard eigenproblem
  | Time :     0.225 s
  Finished back-transformation of eigenvectors
  | Time :     0.017 s

  Obtaining occupation numbers and electronic chemical potential using ELSI.
  | Note that, for insulating systems, the printed 'chemical potential' value is not uniquely defined.
  | It can be anywhere in the energy gap, as long as it correctly separates occupied and unoccupied states.
  | In systems with a gap, the physically relevant chemical potential is the VBM or HOMO.

  | Chemical potential (Fermi level):    -8.73418879 eV
  Writing Kohn-Sham eigenvalues.
  K-point:       1 at    0.000000    0.000000    0.000000 (in units of recip. lattice)

  State    Occupation    Eigenvalue [Ha]    Eigenvalue [eV]
      1       2.00000         -10.071003         -274.04594
      2       2.00000         -10.070083         -274.02091
      3       2.00000         -10.068570         -273.97973
      4       2.00000         -10.067398         -273.94783
      5       2.00000         -10.067305         -273.94530
      6       2.00000         -10.067266         -273.94425
      7       2.00000         -10.067129         -273.94051
      8       2.00000         -10.066777         -273.93094
      9       2.00000         -10.066774         -273.93087
     10       2.00000         -10.066696         -273.92875
     11       2.00000         -10.066385         -273.92028
     12       2.00000         -10.066374         -273.91996
     13       2.00000         -10.065930         -273.90788
     14       2.00000         -10.065614         -273.89930
     15       2.00000         -10.065337         -273.89176
     16       2.00000         -10.065307         -273.89094
     17       2.00000         -10.065165         -273.88708
     18       2.00000         -10.065095         -273.88517
     19       2.00000         -10.064812         -273.87747
     20       2.00000         -10.064786         -273.87677
     21       2.00000         -10.064700         -273.87443
     22       2.00000         -10.064616         -273.87213
     23       2.00000         -10.064433         -273.86715
     24       2.00000         -10.064396         -273.86615
     25       2.00000         -10.064367         -273.86537
     26       2.00000         -10.064243         -273.86198
     27       2.00000         -10.064209         -273.86106
     28       2.00000         -10.064187         -273.86047
     29       2.00000         -10.064176         -273.86018
     30       2.00000         -10.064009         -273.85562
     31       2.00000         -10.063997         -273.85528
     32       2.00000         -10.063683         -273.84676
     33       2.00000         -10.063476         -273.84110
     34       2.00000         -10.063295         -273.83619
     35       2.00000         -10.063287         -273.83598
     36       2.00000         -10.063223         -273.83424
     37       2.00000         -10.063172         -273.83283
     38       2.00000         -10.063096         -273.83077
     39       2.00000         -10.062861         -273.82439
     40       2.00000         -10.062818         -273.82321
     41       2.00000         -10.062693         -273.81980
     42       2.00000         -10.062305         -273.80924
     43       2.00000         -10.062238         -273.80744
     44       2.00000         -10.062221         -273.80696
     45       2.00000         -10.061749         -273.79413
     46       2.00000         -10.061494         -273.78719
     47       2.00000         -10.061433         -273.78552
     48       2.00000         -10.060930         -273.77183
     49       2.00000         -10.060825         -273.76899
     50       2.00000         -10.060793         -273.76811
     51       2.00000         -10.060757         -273.76714
     52       2.00000         -10.060601         -273.76289
     53       2.00000         -10.060563         -273.76186
     54       2.00000         -10.060544         -273.76133
     55       2.00000         -10.060519         -273.76064
     56       2.00000         -10.060486         -273.75975
     57       2.00000         -10.060468         -273.75927
     58       2.00000         -10.060399         -273.75738
     59       2.00000         -10.060329         -273.75549
     60       2.00000         -10.059732         -273.73925
     61       2.00000         -10.059438         -273.73124
     62       2.00000         -10.059346         -273.72873
     63       2.00000         -10.059309         -273.72771
     64       2.00000         -10.059294         -273.72733
     65       2.00000         -10.059162         -273.72371
     66       2.00000         -10.058975         -273.71864
     67       2.00000         -10.058763         -273.71288
     68       2.00000         -10.058732         -273.71201
     69       2.00000         -10.057823         -273.68730
     70       2.00000         -10.056116         -273.64084
     71       2.00000         -10.055344         -273.61984
     72       2.00000         -10.055299         -273.61860
     73       2.00000         -10.054819         -273.60555
[...]
  |    H      0     4.527807 A      4.583499 A        4.713786E-16 a.u.
  |    H      2     3.678162 A  1.011968E+04 A            0.556529 a.u.
  |    H      1     3.958095 A  1.721251E+06 A            0.841931 a.u.
  |    H      0     4.527807 A  3.866455E+12 A            0.581436 a.u.
  |    C      0     2.562483 A      2.562483 A        6.563029E-17 a.u.
  |    C      0     2.967371 A      2.967371 A        1.352164E-16 a.u.
  |    C      0     3.003870 A      3.003870 A        2.312640E-17 a.u.
  |    C      1     3.272245 A      3.272245 A       -3.835259E-17 a.u.
  |    C      0     3.312494 A      3.312494 A       -2.710381E-16 a.u.
  |    C      3     4.077671 A      4.077671 A       -1.683752E-15 a.u.
  |    C      3     4.077671 A      4.077671 A        1.412852E-15 a.u.
  |    C      1     4.496620 A      4.496620 A       -3.011059E-16 a.u.
  |    C      0     4.496620 A      4.551928 A        2.873903E-17 a.u.
  |    C      2     4.551928 A      4.551928 A       -4.610785E-16 a.u.
  |    C      2     4.551928 A      4.551928 A        7.440584E-16 a.u.
  |    C      2     4.551928 A      4.551928 A       -7.110458E-16 a.u.
  |    C      2     4.551928 A      4.551928 A       -1.935424E-16 a.u.
  |    C      0     4.551928 A      4.607917 A        2.067142E-16 a.u.
  |    C      0     4.551928 A      4.607917 A       -1.109786E-16 a.u.
  |    C      1     4.551928 A      4.607917 A       -9.951742E-17 a.u.
  |    C      1     4.551928 A      4.607917 A        1.937809E-16 a.u.
  |    C      1     4.607917 A      4.607917 A       -2.813308E-16 a.u.
  |    C      1     4.607917 A      4.607917 A       -7.330363E-17 a.u.
  |    C      2     4.607917 A      4.607917 A        1.318462E-15 a.u.
  |    C      2     4.607917 A      4.607917 A       -1.318397E-15 a.u.
  |    C      0     4.607917 A      4.664595 A        3.157826E-16 a.u.
  |    C      1     4.607917 A      4.664595 A        7.356967E-16 a.u.
  |    C      4     3.835889 A  2.962973E+02 A            4.379483 a.u.
  |    C      3     4.127827 A  1.725964E+03 A            9.005588 a.u.
  |    C      2     4.607917 A  2.608475E+04 A            9.531178 a.u.
  |    C      1     4.607917 A  2.736013E+06 A            2.127278 a.u.
  |    C      0     4.607917 A  4.399765E+12 A            0.661635 a.u.

  | Shrink_full_auxil_basis : there are       36  radial auxiliary wave functions
                            accepted and       7 rejected.
  | Shrink_full_auxil_basis : there are totally                8992 partial auxiliary wave functions.
 
  | Maximal number of product basis functions per thread :   512   512
 
  | Minimal total memory requirement for three-center overlap :      72.476 Gbs
  | Number of local auxiliary basis functions on task:      0   512
  | Number of local auxiliary basis functions on task:      1   512
  | Number of local auxiliary basis functions on task:      2   512
  | Number of local auxiliary basis functions on task:      3   512
  | Number of local auxiliary basis functions on task:      4   496
  | Number of local auxiliary basis functions on task:      5   496
  | Number of local auxiliary basis functions on task:      6   496
  | Number of local auxiliary basis functions on task:      7   496
  | Number of local auxiliary basis functions on task:      8   496
  | Number of local auxiliary basis functions on task:      9   496
  | Number of local auxiliary basis functions on task:     10   496
  | Number of local auxiliary basis functions on task:     11   496
  | Number of local auxiliary basis functions on task:     12   496
  | Number of local auxiliary basis functions on task:     13   496
  | Number of local auxiliary basis functions on task:     14   496
  | Number of local auxiliary basis functions on task:     15   496
  | Number of local auxiliary basis functions on task:     16   496
  | Number of local auxiliary basis functions on task:     17   496
  | 2D aux task distribution:      3 X      6
  | 2D block size (nb_aux_2d):     64
 
  Basis pair condensation :   1037520  -->     551828
 
 --------------------------------------------
  Constructing auxiliary basis (full product) ...
 
  Product basis:
  | charge radius: extent of product basis function
  | field radius: extent of its Coulomb potential
  | Species   l  charge radius    field radius  multipol momen
  |    H      1     3.910002 A      3.910002 A       -2.487223E-16 a.u.
  |    H      1     3.958095 A      3.958095 A       -2.441841E-16 a.u.
  |    H      0     4.527807 A      4.527807 A        1.268855E-16 a.u.
  |    H      0     4.527807 A      4.583499 A       -4.900954E-17 a.u.
  |    H      0     4.527807 A      4.583499 A        4.713786E-16 a.u.
  |    H      2     3.678162 A  1.011968E+04 A            0.556529 a.u.
  |    H      1     3.958095 A  1.721251E+06 A            0.841931 a.u.
  |    H      0     4.527807 A  3.866455E+12 A            0.581436 a.u.
  |    C      0     2.562483 A      2.562483 A        6.563029E-17 a.u.
  |    C      0     2.967371 A      2.967371 A        1.352164E-16 a.u.
  |    C      0     3.003870 A      3.003870 A        2.312640E-17 a.u.
  |    C      1     3.272245 A      3.272245 A       -3.835259E-17 a.u.
  |    C      0     3.312494 A      3.312494 A       -2.710381E-16 a.u.
  |    C      3     4.077671 A      4.077671 A       -1.683752E-15 a.u.
  |    C      3     4.077671 A      4.077671 A        1.412852E-15 a.u.
  |    C      1     4.496620 A      4.496620 A       -3.011059E-16 a.u.
  |    C      0     4.496620 A      4.551928 A        2.873903E-17 a.u.
  |    C      2     4.551928 A      4.551928 A       -4.610785E-16 a.u.
  |    C      2     4.551928 A      4.551928 A        7.440584E-16 a.u.
  |    C      2     4.551928 A      4.551928 A       -7.110458E-16 a.u.
  |    C      2     4.551928 A      4.551928 A       -1.935424E-16 a.u.
  |    C      0     4.551928 A      4.607917 A        2.067142E-16 a.u.
  |    C      0     4.551928 A      4.607917 A       -1.109786E-16 a.u.
  |    C      1     4.551928 A      4.607917 A       -9.951742E-17 a.u.
  |    C      1     4.551928 A      4.607917 A        1.937809E-16 a.u.
  |    C      1     4.607917 A      4.607917 A       -2.813308E-16 a.u.
  |    C      1     4.607917 A      4.607917 A       -7.330363E-17 a.u.
  |    C      2     4.607917 A      4.607917 A        1.318462E-15 a.u.
  |    C      2     4.607917 A      4.607917 A       -1.318397E-15 a.u.
  |    C      0     4.607917 A      4.664595 A        3.157826E-16 a.u.
  |    C      1     4.607917 A      4.664595 A        7.356967E-16 a.u.
  |    C      4     3.835889 A  2.962973E+02 A            4.379483 a.u.
  |    C      3     4.127827 A  1.725964E+03 A            9.005588 a.u.
  |    C      2     4.607917 A  2.608475E+04 A            9.531178 a.u.
  |    C      1     4.607917 A  2.736013E+06 A            2.127278 a.u.
  |    C      0     4.607917 A  4.399765E+12 A            0.661635 a.u.

  | Shrink_full_auxil_basis : there are       36  radial auxiliary wave functions
                            accepted and       7 rejected.
  | Shrink_full_auxil_basis : there are totally                8992 partial auxiliary wave functions.
 
  | Maximal number of product basis functions per thread :   512   512
 
  | Minimal total memory requirement for three-center overlap :      72.476 Gbs
  | Number of local auxiliary basis functions on task:      0   512
  | Number of local auxiliary basis functions on task:      1   512
  | Number of local auxiliary basis functions on task:      2   512
  | Number of local auxiliary basis functions on task:      3   512
  | Number of local auxiliary basis functions on task:      4   496
  | Number of local auxiliary basis functions on task:      5   496
  | Number of local auxiliary basis functions on task:      6   496
  | Number of local auxiliary basis functions on task:      7   496
  | Number of local auxiliary basis functions on task:      8   496
  | Number of local auxiliary basis functions on task:      9   496
  | Number of local auxiliary basis functions on task:     10   496
  | Number of local auxiliary basis functions on task:     11   496
  | Number of local auxiliary basis functions on task:     12   496
  | Number of local auxiliary basis functions on task:     13   496
  | Number of local auxiliary basis functions on task:     14   496
  | Number of local auxiliary basis functions on task:     15   496
  | Number of local auxiliary basis functions on task:     16   496
  | Number of local auxiliary basis functions on task:     17   496
  | 2D aux task distribution:      3 X      6
  | 2D block size (nb_aux_2d):     64
 
  Basis pair condensation :   1037520  -->     551828
  Allocating        0.069 MB for t_coeff
  Allocating        0.034 MB for basbas_idx
  Allocating        0.069 MB for wave
  Allocating        0.069 MB for total_wave
  Allocating        0.206 MB for wave_gradient
  Allocating        0.206 MB for total_wave_grad
 HERE1
 HERE2
  Deallocating        0.069 MB for t_coeff
  Deallocating        0.034 MB for basbas_idx
  Deallocating        0.069 MB for wave
  Deallocating        0.206 MB for wave_gradient
  Deallocating        0.206 MB for total_wave_grad
dP_dE (Bohr^3) at every cycle:--->
 (1001.61963795824,0.000000000000000E+000) (-19.1381662424299,0.000000000000000E+000) (-460.499323048748,0.000000000000000E+000)
 (-19.2113606821653,0.000000000000000E+000) (1357.78486583539,0.000000000000000E+000) (4.44724537428283,0.000000000000000E+000)
 (-460.713754203721,0.000000000000000E+000) (4.46713278969012,0.000000000000000E+000) (1722.91652514430,0.000000000000000E+000)
DFPT polarizability (Bohr^3)        xx        yy        zz        xy        xz        yz
  | Polarizability:--->                      1001.619637958                 1357.784865835                 1722.916525144                  -19.138166242                 -460.499323049                    4.447245374

DFPT for dielectric_constant:--->  # PARSE DFPT_dielectric_tensor
               2.359176483728137            -0.025970083365593            -0.624887758726914
              -0.026069406659045             2.842485100798689             0.006034817111230
              -0.625178737230302             0.006061803909730             3.337960974064265

                                               :  max(cpu_time)    wall_clock(cpu1)
  | Time for  dielectric calculation            :        0.001 s           0.001 s
===========================================================================

------------------------------------------------------------------------------
  Final output of selected total energy values:

  The following output summarizes some interesting total energy values
  at the end of a run (AFTER all relaxation, molecular dynamics, etc.).

  | Total energy of the DFT / Hartree-Fock s.c.f. calculation      :         -83267.558232144 eV
  | Final zero-broadening corrected energy (caution - metals only) :         -83267.558232144 eV
  | For reference only, the value of 1 Hartree used in FHI-aims is :             27.211384500 eV
  | For reference only, the overall average (free atom contribution
  | + realspace contribution) of the electrostatic potential after
  | s.c.f. convergence is                                          :             -7.702499640 eV

  Before relying on these values, please be sure to understand exactly which
  total energy value is referred to by a given number. Different objects may
  all carry the same name 'total energy'. Definitions:

  Total energy of the DFT / Hartree-Fock s.c.f. calculation:
  | Note that this energy does not include ANY quantities calculated after the
  | s.c.f. cycle, in particular not ANY RPA, MP2, etc. many-body perturbation terms.

  Final zero-broadening corrected energy:
  | For metallic systems only, a broadening of the occupation numbers at the Fermi
  | level can be extrapolated back to zero broadening by an electron-gas inspired
  | formula. For all systems that are not real metals, this value can be
  | meaningless and should be avoided.

------------------------------------------------------------------------------
  Methods described in the following list of references were used in this FHI-aims run.
  If you publish the results, please make sure to cite these reference if they apply.
  FHI-aims is an academic code, and for our developers (often, Ph.D. students
  and postdocs), scientific credit in the community is essential.
  Thank you for helping us!

  For any use of FHI-aims, please cite:

    Volker Blum, Ralf Gehrke, Felix Hanke, Paula Havu, Ville Havu,
    Xinguo Ren, Karsten Reuter, and Matthias Scheffler
    'Ab initio molecular simulations with numeric atom-centered orbitals'
    Computer Physics Communications 180, 2175-2196 (2009)
    http://doi.org/10.1016/j.cpc.2009.06.022


  For Hartree-Fock, hybrid functionals, or many-body perturbation theory used in your run, please cite:

    Xinguo Ren, Patrick Rinke, Volker Blum, Juergen Wieferink, Alex Tkatchenko,
    Andrea Sanfilippo, Karsten Reuter, and Matthias Scheffler,
    'Resolution-of-identity approach to Hartree-Fock, hybrid density functionals,
    RPA, MP2, and GW with numeric atom-centered orbital basis functions'
    New Journal of Physics 14, 053020 (2012).
    http://doi.org/10.1088/1367-2630/14/5/053020


  The provided symmetry information was generated with SPGlib:

    Atsushi Togo, Yusuke Seto, Dimitar Pashov
    SPGlib 1.7.3 obtained from http://spglib.sourceforge.net
    Copyright (C) 2008 Atsushi Togo


  The DFPT (perturbation by an electric field) part of the code was used.
  Here is the corresponding reference:

    Honghui Shang, Nathaniel Raimbault, Mariana Rossi,
    Christian Carbogno, Patrick Rinke and Matthias Scheffler,
    'All-Electron, Real-Space Perturbation Theory for Homogeneous
    Electric Fields: Theory, Implementation, and Application within dft'
    New Journal of Physics, 20(7):073040, 2018


  The ELSI infrastructure was used in your run to solve the Kohn-Sham electronic structure.
  Please check out http://elsi-interchange.org to learn more.
  If scalability is important for your project, please acknowledge ELSI by citing:

    V. W-z. Yu, F. Corsetti, A. Garcia, W. P. Huhn, M. Jacquelin, W. Jia,
    B. Lange, L. Lin, J. Lu, W. Mi, A. Seifitokaldani, A. Vazquez-Mayagoitia,
    C. Yang, H. Yang, and V. Blum
    'ELSI: A unified software interface for Kohn-Sham electronic structure solvers'
    Computer Physics Communications 222, 267-285 (2018).
    http://doi.org/10.1016/j.cpc.2017.09.007


  For the real-space grid partitioning and parallelization used in this calculation, please cite:

    Ville Havu, Volker Blum, Paula Havu, and Matthias Scheffler,
    'Efficient O(N) integration for all-electron electronic structure calculation'
    'using numerically tabulated basis functions'
    Journal of Computational Physics 228, 8367-8379 (2009).
    http://doi.org/10.1016/j.jcp.2009.08.008


  The high-level electronic structure method used in your calculation
  employed our efficient localized resolution of identity for the Coulomb operator.
  Some calculations, especially large-scale hybrid density functional theory,
  are only possible thanks to this development. For this feature, please cite:

    Arvid Ihrig, Juergen Wieferink, Igor Ying Zhang, Matti Ropo, Xinguo Ren,
    Patrick Rinke, Matthias Scheffler, and Volker Blum,
    'Accurate localized resolution of identity approach for linear-scaling
    hybrid density functionals and for many-body perturbation theory'
    New Journal of Physics 117, 093020 (2015).
    http://doi.org/10.1088/1367-2630/17/9/093020

  Of course, there are many other important community references, e.g., those cited in the
  above references. Our list is limited to references that describe implementations in the
  FHI-aims code. The reason is purely practical (length of this list) - please credit others as well.

------------------------------------------------------------
          Leaving FHI-aims.
          Date     :  20230120, Time     :  162405.365

          Computational steps:
          | Number of self-consistency cycles          :           46
          | Number of SCF (re)initializations          :            1
          | Number of coupled perturbed self-consistency cycles          :            0
          | Number of CPSCF (re)initializations          :            0

          Detailed time accounting                     :  max(cpu_time)    wall_clock(cpu1)
          | Total time                                  :     1487.928 s        1496.211 s
          | GPU initialization                          :        2.194 s           9.270 s
          | Preparation time                            :        0.073 s           0.066 s
          | Boundary condition initalization            :        1.005 s           1.005 s
          | Grid partitioning                           :        1.251 s           1.251 s
          | Preloading free-atom quantities on grid     :        3.884 s           3.885 s
          | Free-atom superposition energy              :        0.518 s           0.518 s
          | Total time for integrations                 :       17.141 s          17.232 s
          | Product basis setup: Total time             :        0.000 s           0.000 s
          | Product basis: | 2-center integrations     :(       0.000 s)  (       0.000 s)
          | Product basis: | LVL 3-center & coefficient:(       0.000 s)  (       0.000 s)
          | Total time for solution of K.-S. equations  :        3.421 s           3.423 s
          | Total time for density update               :       12.064 s          12.200 s
          | Total time for mixing & preconditioning     :       12.630 s          12.634 s
          | Total time for Hartree multipole update     :        0.087 s           0.087 s
          | Total time for Hartree multipole sum        :       42.678 s          42.689 s
          | Total time for total energy evaluation      :        0.008 s           0.007 s
          | Total time first_order_DM                   :        2.017 s           2.011 s
          | Total time first_order_density              :      310.238 s         310.236 s
          | Total time first_order_potential            :      124.562 s         124.597 s
          | Total time first_order_H                    :      593.560 s         593.719 s
          | Total time solving of Sternheimer equations :        1.891 s           1.890 s
          | Total time for dielectric constant          :        0.001 s           0.001 s
          | Total time momentum matrix                  :        0.000 s           0.000 s

          GPU acceleration has been used for charge density update.
          GPU acceleration has been used for real-space Hamiltonian integration.
          Due to GPU usage, wall_clock(cpu1) will give a more reliable estimate for timings.

          Partial memory accounting:
          | Residual value for overall tracked memory usage across tasks:     1.234863 MB (should be 0.000000 MB)
          |
          | Largest tracked array allocation:
          |   Minimum:      103.134 MB (DFPT_pulay_mixing::initialize_pulay_mixing::X_in_diffs on task  0)
          |   Maximum:      103.134 MB (DFPT_pulay_mixing::initialize_pulay_mixing::X_in_diffs on task  0)
          |   Average:      103.134 MB
          |
          | Because the residual tracked memory usage was not zero, the peak value for overall
          | tracked memory usage was not output, as it is probably incorrect.  This is likely due
          | to a missing aims_deallocate statement in the source code, which should be otherwise
          | harmless.
          |
          Note:  These values currently only include a subset of arrays which are explicitly tracked.
          The "true" memory usage will be greater.

          Have a nice day.
------------------------------------------------------------
