------------------------------------------------------------
          Invoking FHI-aims ...

          When using FHI-aims, please cite the following reference:

            Volker Blum, Ralf Gehrke, Felix Hanke, Paula Havu,
            Ville Havu, Xinguo Ren, Karsten Reuter, and Matthias Scheffler,
            'Ab Initio Molecular Simulations with Numeric Atom-Centered Orbitals',
            Computer Physics Communications 180, 2175-2196 (2009)

          In addition, many other developments in FHI-aims are likely important for
          your particular application. A partial list of references is given at the end of
          this file. Thank you for giving credit to the authors of these developments.

          For any questions about FHI-aims, please visit our slack channel at

            https://fhi-aims.slack.com

          and our main development and support site at

            https://aims-git.rz-berlin.mpg.de .

          The latter site, in particular, has a wiki to collect information, as well
          as an issue tracker to log discussions, suggest improvements, and report issues
          or bugs. https://aims-git.rz-berlin.mpg.de is also the main development site
          of the project and all new and updated code versions can be obtained there.
          Please send an email to aims-coordinators@fhi-berlin.mpg.de and we will add
          you to these sites. They are for you and everyone is welcome there.

------------------------------------------------------------



  Date     :  20230120, Time     :  154450.230
  Time zero on CPU 1             :   0.406940000000000E+00  s.
  Internal wall clock time zero  :           443461490.230  s.

  FHI-aims created a unique identifier for this run for later identification
  aims_uuid : BAE3C765-4678-438D-AAC5-DD571F95DA88

  Build configuration of the current instance of FHI-aims
  -------------------------------------------------------
  FHI-aims version      : 220829
  Commit number         : 9895fc21d
  CMake host system     : Linux-5.3.18-150300.59.68-default
  CMake version         : 3.17.0
  Fortran compiler      : /mpcdf/soft/SLE_15/packages/x86_64/intel_oneapi/2021.3/mpi/2021.3.0/bin/mpiifort (Intel) version 20.2.3.20210609
  Fortran compiler flags: -O3 -ip -fp-model precise
  C compiler            : /mpcdf/soft/SLE_15/packages/x86_64/intel/2021.3.0/bin/icc (Intel) version 20.2.3.20210609
  C compiler flags      : -O3 -ip -fp-model precise -std=gnu99
  CUDA compiler         : /mpcdf/soft/SLE_15/packages/x86_64/cuda/11.6.2/bin/nvcc
  CUDA compiler flags   : -O3 -DAdd_ -lcublas
  ELPA2 kernel          : AVX512
  Using MPI
  Using ScaLAPACK
  Using LibXC
  Using CUDA
  Using i-PI
  Using RLSY
  Linking against: /mpcdf/soft/SLE_15/packages/x86_64/cuda/11.6.2/lib64/libcublas.so
                   /mpcdf/soft/SLE_15/packages/x86_64/cuda/11.6.2/lib64/libcudart.so
                   /mpcdf/soft/SLE_15/packages/x86_64/intel_oneapi/2021.3/mkl/latest/lib/intel64/libmkl_intel_lp64.so
                   /mpcdf/soft/SLE_15/packages/x86_64/intel_oneapi/2021.3/mkl/latest/lib/intel64/libmkl_sequential.so
                   /mpcdf/soft/SLE_15/packages/x86_64/intel_oneapi/2021.3/mkl/latest/lib/intel64/libmkl_core.so
                   /mpcdf/soft/SLE_15/packages/x86_64/intel_oneapi/2021.3/mkl/latest/lib/intel64/libmkl_blacs_intelmpi_lp64.so
                   /mpcdf/soft/SLE_15/packages/x86_64/intel_oneapi/2021.3/mkl/latest/lib/intel64/libmkl_scalapack_lp64.so

  Using       18 parallel tasks.
  Task        0 on host adag003 reporting.
  Task        1 on host adag003 reporting.
  Task        2 on host adag003 reporting.
  Task        3 on host adag003 reporting.
  Task        4 on host adag003 reporting.
  Task        5 on host adag003 reporting.
  Task        6 on host adag003 reporting.
  Task        7 on host adag003 reporting.
  Task        8 on host adag003 reporting.
  Task        9 on host adag003 reporting.
  Task       10 on host adag003 reporting.
  Task       11 on host adag003 reporting.
  Task       12 on host adag003 reporting.
  Task       13 on host adag003 reporting.
  Task       14 on host adag003 reporting.
  Task       15 on host adag003 reporting.
  Task       16 on host adag003 reporting.
  Task       17 on host adag003 reporting.

  Performing system and environment tests:
  | Environment variable OMP_NUM_THREADS correctly set to 1.
  | Checking for ScaLAPACK...
  | Testing pdtran()...
  | All pdtran() tests passed.

  Obtaining array dimensions for all initial allocations:
  
  -----------------------------------------------------------------------
  Parsing control.in (first pass over file, find array dimensions only).
  The contents of control.in will be repeated verbatim below
  unless switched off by setting 'verbatim_writeout .false.' .
  in the first line of control.in .
  -----------------------------------------------------------------------
  
  #
  # Input for polarizability replays on generic oligoacene molecular crystals (light settings,  LDA+MBD).
  #
  #########################################################################################
  #
  #  Physical model
  #
    xc                 pw-lda
    spin               none
    relativistic       none
    charge             0.0
    k_grid 	     2 1 1
    DFPT dielectric
  #
  #  GPU acceleration
  #
  # Turns on GPU acceleration everywhere
    use_gpu
  
  # Turns OFF GPU acceleration of ELPA - may be necessary if GPU ELPA is slow
    elsi_elpa_gpu 0
  #
  #  Relaxation
  #
  #  relax_geometry trm 1E-3
  #  relax_unit_cell fixed_angles
  #
  #  SCF convergence        #
    charge_mix_param   0.75
    #sc_accuracy_rho 1E-4
  #
  # i-PI communication
  #
  compute_forces .false.
  # use_pimd_wrapper 130.183.223.27 26118
  #communicate_pimd_wrapper polarizability
  #output_level MD_light
  #
  # Output SALTED info
    ri_density_restart write
    ri_rho1 write
    ri_full_output .true.
  #  sc_accuracy_rho    1d-6
    default_prodbas_acc 1e-6
    default_max_l_prodbas 6
  #
  #
  ################################################################################
  #
  #  FHI-aims code project
  #  VB, Fritz-Haber Institut, 2009
  #
  #  Suggested "light" defaults for H atom (to be pasted into control.in file)
  #  Be sure to double-check any results obtained with these settings for post-processing,
  #  e.g., with the "tight" defaults and larger basis sets.
  #
  ################################################################################
    species        H
  #     global species definitions
      nucleus             1
      mass                1.00794
  #
      l_hartree           4
  #
      cut_pot             3.5  1.5  1.0
      basis_dep_cutoff    1e-4
  #
      radial_base         24 5.0
      radial_multiplier   1
      angular_grids       specified
        division   0.2421   50
        division   0.3822  110
        division   0.4799  194
        division   0.5341  302
  #      division   0.5626  434
  #      division   0.5922  590
  #      division   0.6542  770
  #      division   0.6868 1202
  #      outer_grid  770
        outer_grid  302
  ################################################################################
  #
  #  Definition of "minimal" basis
  #
  ################################################################################
  #     valence basis states
      valence      1  s   1.
  #     ion occupancy
      ion_occ      1  s   0.5
  ################################################################################
  #
  #  Suggested additional basis functions. For production calculations,
  #  uncomment them one after another (the most important basis functions are
  #  listed first).
  #
  #  Basis constructed for dimers: 0.5 A, 0.7 A, 1.0 A, 1.5 A, 2.5 A
  #
  ################################################################################
  #  "First tier" - improvements: -1014.90 meV to -62.69 meV
       hydro 2 s 2.1
       hydro 2 p 3.5
  #  "Second tier" - improvements: -12.89 meV to -1.83 meV
  #     hydro 1 s 0.85
  #     hydro 2 p 3.7
  #     hydro 2 s 1.2
  #     hydro 3 d 7
  #  "Third tier" - improvements: -0.25 meV to -0.12 meV
  #     hydro 4 f 11.2
  #     hydro 3 p 4.8
  #     hydro 4 d 9
  #     hydro 3 s 3.2
  ################################################################################
  ################################################################################
  #
  #  FHI-aims code project
  #  VB, Fritz-Haber Institut, 2009
  #
  #  Suggested "light" defaults for C atom (to be pasted into control.in file)
  #  Be sure to double-check any results obtained with these settings for post-processing,
  #  e.g., with the "tight" defaults and larger basis sets.
  #
  ################################################################################
    species        C
  #     global species definitions
      nucleus             6
      mass                12.0107
  #
      l_hartree           4
  #
      cut_pot             3.5  1.5  1.0
      basis_dep_cutoff    1e-4
  #
      radial_base         34 5.0
      radial_multiplier   1
      angular_grids specified
        division   0.3326   50
        division   0.5710  110
        division   0.7727  194
        division   0.8772  302
  #      division   0.9334  434
  #      division   0.9625  590
  #      division   0.9924  770
  #      division   1.0230  974
  #      division   1.4589 1202
  #     outer_grid  974
       outer_grid 302
  ################################################################################
  #
  #  Definition of "minimal" basis
  #
  ################################################################################
  #     valence basis states
      valence      2  s   2.
      valence      2  p   2.
  #     ion occupancy
      ion_occ      2  s   1.
      ion_occ      2  p   1.
  ################################################################################
  #
  #  Suggested additional basis functions. For production calculations,
  #  uncomment them one after another (the most important basis functions are
  #  listed first).
  #
  #  Constructed for dimers: 1.0 A, 1.25 A, 1.5 A, 2.0 A, 3.0 A
  #
  ################################################################################
  #  "First tier" - improvements: -1214.57 meV to -155.61 meV
       hydro 2 p 1.7
       hydro 3 d 6
       hydro 2 s 4.9
  #  "Second tier" - improvements: -67.75 meV to -5.23 meV
  #     hydro 4 f 9.8
  #     hydro 3 p 5.2
  #     hydro 3 s 4.3
  #     hydro 5 g 14.4
  #     hydro 3 d 6.2
  #  "Third tier" - improvements: -2.43 meV to -0.60 meV
  #     hydro 2 p 5.6
  #     hydro 2 s 1.4
  #     hydro 3 d 4.9
  #     hydro 4 f 11.2
  #  "Fourth tier" - improvements: -0.39 meV to -0.18 meV
  #     hydro 2 p 2.1
  #     hydro 5 g 16.4
  #     hydro 4 d 13.2
  #     hydro 3 s 13.6
  #     hydro 4 f 17.6
  #  Further basis functions - improvements: -0.08 meV and below
  #     hydro 3 s 2
  #     hydro 3 p 6
  #     hydro 4 d 20
  
  -----------------------------------------------------------------------
  Completed first pass over input file control.in .
  -----------------------------------------------------------------------
  
  
  -----------------------------------------------------------------------
  Parsing geometry.in (first pass over file, find array dimensions only).
  The contents of geometry.in will be repeated verbatim below
  unless switched off by setting 'verbatim_writeout .false.' .
  in the first line of geometry.in .
  -----------------------------------------------------------------------
  
  #=======================================================
  # FHI-aims file: /ada/ptmp/mpsd/alewis/naphthalene/qmdata/data/geoms/493.in
  # Created using the Atomic Simulation Environment (ASE)
  # Thu Jan 19 15:19:17 2023
  #=======================================================
  lattice_vector 8.1020000000000003 0.0000000000000000 0.0000000000000000
  lattice_vector 0.0000000000000000 11.8800000000000008 0.0000000000000000
  lattice_vector -9.7850918486534706 0.0000000000000000 14.2571119625755713
  atom -0.9307680000000000 0.0057486000000000 2.3621799999999999 C
  atom 0.1573100000000000 2.8921899999999998 4.9110100000000001 C
  atom 4.2902300000000002 5.9088900000000004 4.9567399999999999 C
  atom 3.3093400000000002 2.8554200000000001 2.4319799999999998 C
  atom -0.2295100000000000 0.9556540000000000 1.6483200000000000 C
  atom -0.6434270000000000 3.7594799999999999 5.6100099999999999 C
  atom 3.5195300000000000 5.0269899999999996 5.7093499999999997 C
  atom 4.0284000000000004 1.9907500000000000 1.6572400000000000 C
  atom 0.2236120000000000 0.6348840000000000 0.3239340000000000 C
  atom -1.0016499999999999 3.5007299999999999 6.9568000000000003 C
  atom 3.1334000000000000 5.3733700000000004 7.0351999999999997 C
  atom 4.4184400000000004 2.3336399999999999 0.3173800000000000 C
  atom -3.8305300000000000 1.5337300000000000 6.6695700000000002 C
  atom 3.2126100000000002 4.4941899999999997 0.6587780000000000 C
  atom 7.1899800000000003 4.4582400000000000 0.5439070000000000 C
  atom 0.2099380000000000 1.3506700000000000 6.7634299999999996 C
  atom -3.5554000000000001 1.2417400000000001 5.3386300000000002 C
  atom 2.8761999999999999 4.0921099999999999 1.9494000000000000 C
  atom 6.7967100000000000 4.9105800000000004 1.8050299999999999 C
  atom 0.5536270000000000 1.6532800000000001 5.4598000000000004 C
  atom -1.2804300000000000 0.2036370000000000 3.3833299999999999 H
  atom 0.3486890000000000 3.1028500000000001 3.8552499999999998 H
  atom 4.6172199999999997 5.6255800000000002 3.9641999999999999 H
  atom 3.0281799999999999 2.4669500000000002 3.3839000000000001 H
  atom 0.0255488000000000 1.9322600000000001 2.0790000000000002 H
  atom -0.8878030000000000 4.7165999999999997 5.1408800000000001 H
  atom 3.1974100000000001 4.0932500000000003 5.2235600000000000 H
  atom 4.3075500000000000 0.9987020000000000 2.0258699999999998 H
  atom -3.5590999999999999 2.4807899999999998 7.0785600000000004 H
  atom 2.8512900000000001 5.4302299999999999 0.2197050000000000 H
  atom 6.9073900000000004 3.4739200000000001 0.1932700000000000 H
  atom 0.4833500000000000 0.3856980000000000 7.2004599999999996 H
  atom -3.0123099999999998 1.9688300000000001 4.7083300000000001 H
  atom 2.2886500000000001 4.7682900000000004 2.5676800000000002 H
  atom 6.1647499999999997 4.2389099999999997 2.4103100000000000 H
  atom 1.1861800000000000 0.9771060000000000 4.8717899999999998 H
  atom -5.5714300000000003 0.0313250000000000 9.6267700000000005 C
  atom -4.6977399999999996 3.1169300000000000 11.9314000000000000 C
  atom -0.6353710000000000 5.6921799999999996 11.9070000000000000 C
  atom -1.7842800000000001 2.8325700000000000 9.5985099999999992 C
  atom -4.8678200000000000 0.9258030000000000 8.8644099999999995 C
  atom -5.3881399999999999 4.0118600000000004 12.7385000000000002 C
  atom -1.4620100000000000 4.9186100000000001 12.6829999999999998 C
  atom -1.0271900000000000 1.9307399999999999 8.8358399999999993 C
  atom -4.4973500000000000 0.6061010000000000 7.5221200000000001 C
  atom -5.7836800000000004 3.6333299999999999 14.0625000000000000 C
  atom -1.8120600000000000 5.3098000000000001 14.0044000000000004 C
  atom -0.5709620000000000 2.2624499999999999 7.5350200000000003 C
  atom -8.7162699999999997 1.5262000000000000 13.8804999999999996 C
  atom -1.7654399999999999 4.4374399999999996 7.7512600000000003 C
  atom 2.4056299999999999 4.4779099999999996 7.8624700000000001 C
  atom -4.6882000000000001 1.4502800000000000 13.6940000000000008 C
  atom -8.2719400000000007 1.1950600000000000 12.6340000000000003 C
  atom -2.0965799999999999 4.1311600000000004 9.0338499999999993 C
  atom 1.9822700000000000 4.7661300000000004 9.1347199999999997 C
  atom -4.3447399999999998 1.8623700000000001 12.4430999999999994 C
  atom -5.8028500000000003 0.2721580000000000 10.6920000000000002 H
  atom -4.3574299999999999 3.4108700000000001 10.9436000000000000 H
  atom -0.4073510000000000 5.3013300000000001 10.9199999999999999 H
  atom -2.2078199999999999 2.5414500000000002 10.5449000000000002 H
  atom -4.5473400000000002 1.8945700000000001 9.2691800000000004 H
  atom -5.7148000000000003 4.9735500000000004 12.3398000000000003 H
  atom -1.8279000000000001 3.9378799999999998 12.3222000000000005 H
  atom -0.7926010000000000 0.9149300000000000 9.1913499999999999 H
  atom -8.4123900000000003 2.4061300000000001 14.4230999999999998 H
  atom -2.0646300000000002 5.4082900000000000 7.2987599999999997 H
  atom 2.1025900000000002 3.5110600000000001 7.4666699999999997 H
  atom -4.3171900000000001 0.4851350000000000 14.0667000000000009 H
  atom -7.5560700000000001 1.8400200000000000 12.0820000000000007 H
  atom -2.7200700000000002 4.7979000000000003 9.6231899999999992 H
  atom 1.4206700000000001 4.0724900000000002 9.7401700000000009 H
  atom -3.7121400000000002 1.2380899999999999 11.7891999999999992 H
  atom -0.8434090000000000 6.1488800000000001 2.3002500000000001 C
  atom 0.1540690000000000 8.9580000000000002 4.7004900000000003 C
  atom 4.0745800000000001 11.9115000000000002 4.7891300000000001 C
  atom 3.0686499999999999 8.8712800000000005 2.3558699999999999 C
  atom -0.0763512000000000 7.0134600000000002 1.5351900000000001 C
  atom -0.6029470000000000 9.8394100000000009 5.4692800000000004 C
  atom 3.4093100000000001 10.9639000000000006 5.5416900000000000 C
  atom 3.8938600000000001 7.9946799999999998 1.6360100000000000 C
  atom 0.3202700000000000 6.5843699999999998 0.2332250000000000 C
  atom -0.9473970000000000 9.5389300000000006 6.8131899999999996 C
  atom 3.1596700000000002 11.2517999999999994 6.9282899999999996 C
  atom 4.2747999999999999 8.2988700000000009 0.3182380000000000 C
  atom -3.7263700000000002 7.4719499999999996 6.8254900000000003 C
  atom 3.0269400000000002 10.4077000000000002 0.4974950000000000 C
  atom 7.2206599999999996 10.3183000000000007 0.5155100000000000 C
  atom 0.3012590000000000 7.4358500000000003 6.5681599999999998 C
  atom -3.3437500000000000 7.0974700000000004 5.5599900000000000 C
  atom 2.6469800000000001 10.0908999999999995 1.7936099999999999 C
  atom 6.8635799999999998 10.6358999999999995 1.8107400000000000 C
  atom 0.6065440000000000 7.7444800000000003 5.2601699999999996 C
  atom -1.1916400000000000 6.4438199999999997 3.2984200000000001 H
  atom 0.3990700000000000 9.2367000000000008 3.6642100000000002 H
  atom 4.2756999999999996 11.6562999999999999 3.7481000000000000 H
  atom 2.8199500000000000 8.5450900000000001 3.3535699999999999 H
  atom 0.2729740000000000 7.9940699999999998 1.8781099999999999 H
  atom -0.9999680000000000 10.7537000000000003 5.0023700000000000 H
  atom 2.9946500000000000 10.0452999999999992 5.1347399999999999 H
  atom 4.2165400000000002 7.0455899999999998 2.1060099999999999 H
  atom -3.3862600000000000 8.4207900000000002 7.2224000000000004 H
  atom 2.6894499999999999 11.3627000000000002 0.0969637000000000 H
  atom 6.9438399999999998 9.3414199999999994 0.1338860000000000 H
  atom 0.6302010000000000 6.5064399999999996 7.0163700000000002 H
  atom -2.6325599999999998 7.7366400000000004 5.0513399999999997 H
  atom 1.9501200000000001 10.7975999999999992 2.2827299999999999 H
  atom 6.3482700000000003 9.8780099999999997 2.3895000000000000 H
  atom 1.1455900000000001 7.0114299999999998 4.6620299999999997 H
  atom -5.6682100000000002 6.0126099999999996 9.7101299999999995 C
  atom -4.7170500000000004 9.0135000000000005 11.9039999999999999 C
  atom -0.5638380000000000 11.8719000000000001 12.0017999999999994 C
  atom -1.5504199999999999 8.9509000000000007 9.4226700000000001 C
  atom -4.9108700000000001 6.8982400000000004 8.9815299999999993 C
  atom -5.4957099999999999 9.8775200000000005 12.6723999999999997 C
  atom -1.4054500000000001 10.9878999999999998 12.6641999999999992 C
  atom -0.7405610000000000 8.0552100000000006 8.7267600000000005 C
  atom -4.5175700000000001 6.6207500000000001 7.6186100000000003 C
  atom -5.9268299999999998 9.5318199999999997 13.9831000000000003 C
  atom -1.8381300000000000 11.2377000000000002 13.9910999999999994 C
  atom -0.4717390000000000 8.3059200000000004 7.3682100000000004 C
  atom -8.6509800000000006 7.3987999999999996 13.6257000000000001 C
  atom -1.7031300000000000 10.4593000000000007 7.5668300000000004 C
  atom 2.3793500000000001 10.3834000000000000 7.7031299999999998 C
  atom -4.6990600000000002 7.4349499999999997 13.7645999999999997 C
  atom -8.3014500000000009 7.0018700000000003 12.3476999999999997 C
  atom -2.0059000000000000 10.1476000000000006 8.8885199999999998 C
  atom 2.1068199999999999 10.6997000000000000 9.0407700000000002 C
  atom -4.3920100000000000 7.7543499999999996 12.4806000000000008 C
  atom -5.9587800000000000 6.2580799999999996 10.7279000000000000 H
  atom -4.4045500000000004 9.3362999999999996 10.9322999999999997 H
  atom -0.2661670000000000 11.6743000000000006 10.9662000000000006 H
  atom -1.8312900000000001 8.6379500000000000 10.4271999999999991 H
  atom -4.5615600000000001 7.8299399999999997 9.4624699999999997 H
  atom -5.8311500000000001 10.8294999999999995 12.2890999999999995 H
  atom -1.6971000000000001 10.0449000000000002 12.1677000000000000 H
  atom -0.4122300000000000 7.1216600000000003 9.1803399999999993 H
  atom -8.3622099999999993 8.3801299999999994 13.9852000000000007 H
  atom -1.9897499999999999 11.3811000000000000 7.0627599999999999 H
  atom 1.9885999999999999 9.4689399999999999 7.2659300000000000 H
  atom -4.3860200000000003 6.4599700000000002 14.1341000000000001 H
  atom -7.7476000000000003 7.6538100000000000 11.6946999999999992 H
  atom -2.6053899999999999 10.8293999999999997 9.5395599999999998 H
  atom 1.5294000000000001 9.9650099999999995 9.5996100000000002 H
  atom -3.7365699999999999 7.0893699999999997 11.9212000000000007 H
  
  -----------------------------------------------------------------------
  Completed first pass over input file geometry.in .
  -----------------------------------------------------------------------
  

  Basic array size parameters:
  | Number of species                 :        2
  | Number of atoms                   :      144
  | Number of lattice vectors         :        3
  | Max. basis fn. angular momentum   :        2
  | Max. atomic/ionic basis occupied n:        2
  | Max. number of basis fn. types    :        2
  | Max. radial fns per species/type  :        3
  | Max. logarithmic grid size        :     1277
  | Max. radial integration grid size :       34
  | Max. angular integration grid size:      302
  | Max. angular grid division number :        8
  | Radial grid for Hartree potential :     1277
  | Number of spin channels           :        1

------------------------------------------------------------
          Reading file control.in.
------------------------------------------------------------
  XC: Using Perdew-Wang parametrisation of Ceperley-Alder LDA.
  Spin treatment: No spin polarisation.
  Non-relativistic treatment of kinetic energy.
  Charge =   0.000000E+00: Neutral system requested explicitly.
  Found k-point grid:         2         1         1
  DFPT calculation will begin after the DFT/HF calculation.
  Charge density mixing - mixing parameter:     0.7500
  Forces will not be computed.
 
  Reading configuration options for species H                   .
  | Found nuclear charge :   1.0000
  | Found atomic mass :    1.00794000000000      amu
  | Found l_max for Hartree potential  :   4
  | Found cutoff potl. onset [A], width [A], scale factor :    3.50000    1.50000    1.00000
  | Threshold for basis-dependent cutoff potential is   0.100000E-03
  | Found data for basic radial integration grid :    24 points, outermost radius =    5.000 A
  | Found multiplier for basic radial grid :   1
  | Found angular grid specification: user-specified.
  | Specified grid contains     5 separate shells.
  | Check grid settings after all constraints further below.
  | Found free-atom valence shell :  1 s   1.000
  | No ionic wave fns used. Skipping ion_occ.
  | Found hydrogenic basis function :  2 s   2.100
  | Found hydrogenic basis function :  2 p   3.500
  Species H                   : Missing cutoff potential type.
  Defaulting to exp(1/x)/(1-x)^2 type cutoff potential.
  Species H : No 'logarithmic' tag. Using default grid for free atom:
  | Default logarithmic grid data [bohr] : 0.1000E-03 0.1000E+03 0.1012E+01
  Species H : On-site basis accuracy parameter (for Gram-Schmidt orthonormalisation) not specified.
  Using default value basis_acc =  0.1000000E-03.
  Species H                   : Using default innermost maximum threshold i_radial=  2 for radial functions.
  Species H                   : Default cutoff onset for free atom density etc. : 0.35000000E+01 AA.
  Species H                   : Basic radial grid will be enhanced according to radial_multiplier =   1, to contain    24 grid points.
 
  Reading configuration options for species C                   .
  | Found nuclear charge :   6.0000
  | Found atomic mass :    12.0107000000000      amu
  | Found l_max for Hartree potential  :   4
  | Found cutoff potl. onset [A], width [A], scale factor :    3.50000    1.50000    1.00000
  | Threshold for basis-dependent cutoff potential is   0.100000E-03
  | Found data for basic radial integration grid :    34 points, outermost radius =    5.000 A
  | Found multiplier for basic radial grid :   1
  | Found angular grid specification: user-specified.
  | Specified grid contains     5 separate shells.
  | Check grid settings after all constraints further below.
  | Found free-atom valence shell :  2 s   2.000
  | Found free-atom valence shell :  2 p   2.000
  | No ionic wave fns used. Skipping ion_occ.
  | No ionic wave fns used. Skipping ion_occ.
  | Found hydrogenic basis function :  2 p   1.700
  | Found hydrogenic basis function :  3 d   6.000
  | Found hydrogenic basis function :  2 s   4.900
  Species C                   : Missing cutoff potential type.
  Defaulting to exp(1/x)/(1-x)^2 type cutoff potential.
  Species C : No 'logarithmic' tag. Using default grid for free atom:
  | Default logarithmic grid data [bohr] : 0.1000E-03 0.1000E+03 0.1012E+01
  Species C : On-site basis accuracy parameter (for Gram-Schmidt orthonormalisation) not specified.
  Using default value basis_acc =  0.1000000E-03.
  Species C                   : Using default innermost maximum threshold i_radial=  2 for radial functions.
  Species C                   : Default cutoff onset for free atom density etc. : 0.35000000E+01 AA.
  Species C                   : Basic radial grid will be enhanced according to radial_multiplier =   1, to contain    34 grid points.
 
  Finished reading input file 'control.in'.
 
------------------------------------------------------------


------------------------------------------------------------
          Reading geometry description geometry.in.
------------------------------------------------------------
  | The smallest distance between any two atoms is         1.06588535 AA.
  | The first atom of this pair is atom number                      4 .
  | The second atom of this pair is atom number                    24 .
  | Wigner-Seitz cell of the first atom image           0     0     0 .
  | (The Wigner-Seitz cell of the second atom is 0 0 0  by definition.)

  Symmetry information by spglib:
  | Precision set to  0.1E-04
  | Number of Operations  : 1
  | Space group           : 1
  | International         : P1  I
  | Schoenflies           : C1^1
  Input structure read successfully.
  The structure contains      144 atoms,  and a total of        544.000 electrons.

  Input geometry:
  | Unit cell:
  |        8.10200000        0.00000000        0.00000000
  |        0.00000000       11.88000000        0.00000000
  |       -9.78509185        0.00000000       14.25711196
  | Atomic structure:
  |       Atom                x [A]            y [A]            z [A]
  |    1: Species C            -0.93076800        0.00574860        2.36218000
  |    2: Species C             0.15731000        2.89219000        4.91101000
  |    3: Species C             4.29023000        5.90889000        4.95674000
  |    4: Species C             3.30934000        2.85542000        2.43198000
  |    5: Species C            -0.22951000        0.95565400        1.64832000
  |    6: Species C            -0.64342700        3.75948000        5.61001000
  |    7: Species C             3.51953000        5.02699000        5.70935000
  |    8: Species C             4.02840000        1.99075000        1.65724000
  |    9: Species C             0.22361200        0.63488400        0.32393400
  |   10: Species C            -1.00165000        3.50073000        6.95680000
  |   11: Species C             3.13340000        5.37337000        7.03520000
  |   12: Species C             4.41844000        2.33364000        0.31738000
  |   13: Species C            -3.83053000        1.53373000        6.66957000
  |   14: Species C             3.21261000        4.49419000        0.65877800
  |   15: Species C             7.18998000        4.45824000        0.54390700
  |   16: Species C             0.20993800        1.35067000        6.76343000
  |   17: Species C            -3.55540000        1.24174000        5.33863000
  |   18: Species C             2.87620000        4.09211000        1.94940000
  |   19: Species C             6.79671000        4.91058000        1.80503000
  |   20: Species C             0.55362700        1.65328000        5.45980000
  |   21: Species H            -1.28043000        0.20363700        3.38333000
  |   22: Species H             0.34868900        3.10285000        3.85525000
  |   23: Species H             4.61722000        5.62558000        3.96420000
  |   24: Species H             3.02818000        2.46695000        3.38390000
  |   25: Species H             0.02554880        1.93226000        2.07900000
  |   26: Species H            -0.88780300        4.71660000        5.14088000
  |   27: Species H             3.19741000        4.09325000        5.22356000
  |   28: Species H             4.30755000        0.99870200        2.02587000
  |   29: Species H            -3.55910000        2.48079000        7.07856000
  |   30: Species H             2.85129000        5.43023000        0.21970500
  |   31: Species H             6.90739000        3.47392000        0.19327000
  |   32: Species H             0.48335000        0.38569800        7.20046000
  |   33: Species H            -3.01231000        1.96883000        4.70833000
  |   34: Species H             2.28865000        4.76829000        2.56768000
  |   35: Species H             6.16475000        4.23891000        2.41031000
  |   36: Species H             1.18618000        0.97710600        4.87179000
  |   37: Species C            -5.57143000        0.03132500        9.62677000
  |   38: Species C            -4.69774000        3.11693000       11.93140000
  |   39: Species C            -0.63537100        5.69218000       11.90700000
  |   40: Species C            -1.78428000        2.83257000        9.59851000
  |   41: Species C            -4.86782000        0.92580300        8.86441000
  |   42: Species C            -5.38814000        4.01186000       12.73850000
  |   43: Species C            -1.46201000        4.91861000       12.68300000
  |   44: Species C            -1.02719000        1.93074000        8.83584000
  |   45: Species C            -4.49735000        0.60610100        7.52212000
  |   46: Species C            -5.78368000        3.63333000       14.06250000
  |   47: Species C            -1.81206000        5.30980000       14.00440000
  |   48: Species C            -0.57096200        2.26245000        7.53502000
  |   49: Species C            -8.71627000        1.52620000       13.88050000
  |   50: Species C            -1.76544000        4.43744000        7.75126000
  |   51: Species C             2.40563000        4.47791000        7.86247000
  |   52: Species C            -4.68820000        1.45028000       13.69400000
  |   53: Species C            -8.27194000        1.19506000       12.63400000
  |   54: Species C            -2.09658000        4.13116000        9.03385000
  |   55: Species C             1.98227000        4.76613000        9.13472000
  |   56: Species C            -4.34474000        1.86237000       12.44310000
  |   57: Species H            -5.80285000        0.27215800       10.69200000
  |   58: Species H            -4.35743000        3.41087000       10.94360000
  |   59: Species H            -0.40735100        5.30133000       10.92000000
  |   60: Species H            -2.20782000        2.54145000       10.54490000
  |   61: Species H            -4.54734000        1.89457000        9.26918000
  |   62: Species H            -5.71480000        4.97355000       12.33980000
  |   63: Species H            -1.82790000        3.93788000       12.32220000
  |   64: Species H            -0.79260100        0.91493000        9.19135000
  |   65: Species H            -8.41239000        2.40613000       14.42310000
  |   66: Species H            -2.06463000        5.40829000        7.29876000
  |   67: Species H             2.10259000        3.51106000        7.46667000
  |   68: Species H            -4.31719000        0.48513500       14.06670000
  |   69: Species H            -7.55607000        1.84002000       12.08200000
  |   70: Species H            -2.72007000        4.79790000        9.62319000
  |   71: Species H             1.42067000        4.07249000        9.74017000
  |   72: Species H            -3.71214000        1.23809000       11.78920000
  |   73: Species C            -0.84340900        6.14888000        2.30025000
  |   74: Species C             0.15406900        8.95800000        4.70049000
  |   75: Species C             4.07458000       11.91150000        4.78913000
  |   76: Species C             3.06865000        8.87128000        2.35587000
  |   77: Species C            -0.07635120        7.01346000        1.53519000
  |   78: Species C            -0.60294700        9.83941000        5.46928000
  |   79: Species C             3.40931000       10.96390000        5.54169000
  |   80: Species C             3.89386000        7.99468000        1.63601000
  |   81: Species C             0.32027000        6.58437000        0.23322500
  |   82: Species C            -0.94739700        9.53893000        6.81319000
  |   83: Species C             3.15967000       11.25180000        6.92829000
  |   84: Species C             4.27480000        8.29887000        0.31823800
  |   85: Species C            -3.72637000        7.47195000        6.82549000
  |   86: Species C             3.02694000       10.40770000        0.49749500
  |   87: Species C             7.22066000       10.31830000        0.51551000
  |   88: Species C             0.30125900        7.43585000        6.56816000
  |   89: Species C            -3.34375000        7.09747000        5.55999000
  |   90: Species C             2.64698000       10.09090000        1.79361000
  |   91: Species C             6.86358000       10.63590000        1.81074000
  |   92: Species C             0.60654400        7.74448000        5.26017000
  |   93: Species H            -1.19164000        6.44382000        3.29842000
  |   94: Species H             0.39907000        9.23670000        3.66421000
  |   95: Species H             4.27570000       11.65630000        3.74810000
  |   96: Species H             2.81995000        8.54509000        3.35357000
  |   97: Species H             0.27297400        7.99407000        1.87811000
  |   98: Species H            -0.99996800       10.75370000        5.00237000
  |   99: Species H             2.99465000       10.04530000        5.13474000
  |  100: Species H             4.21654000        7.04559000        2.10601000
  |  101: Species H            -3.38626000        8.42079000        7.22240000
  |  102: Species H             2.68945000       11.36270000        0.09696370
  |  103: Species H             6.94384000        9.34142000        0.13388600
  |  104: Species H             0.63020100        6.50644000        7.01637000
  |  105: Species H            -2.63256000        7.73664000        5.05134000
  |  106: Species H             1.95012000       10.79760000        2.28273000
  |  107: Species H             6.34827000        9.87801000        2.38950000
  |  108: Species H             1.14559000        7.01143000        4.66203000
  |  109: Species C            -5.66821000        6.01261000        9.71013000
  |  110: Species C            -4.71705000        9.01350000       11.90400000
  |  111: Species C            -0.56383800       11.87190000       12.00180000
  |  112: Species C            -1.55042000        8.95090000        9.42267000
  |  113: Species C            -4.91087000        6.89824000        8.98153000
  |  114: Species C            -5.49571000        9.87752000       12.67240000
  |  115: Species C            -1.40545000       10.98790000       12.66420000
  |  116: Species C            -0.74056100        8.05521000        8.72676000
  |  117: Species C            -4.51757000        6.62075000        7.61861000
  |  118: Species C            -5.92683000        9.53182000       13.98310000
  |  119: Species C            -1.83813000       11.23770000       13.99110000
  |  120: Species C            -0.47173900        8.30592000        7.36821000
  |  121: Species C            -8.65098000        7.39880000       13.62570000
  |  122: Species C            -1.70313000       10.45930000        7.56683000
  |  123: Species C             2.37935000       10.38340000        7.70313000
  |  124: Species C            -4.69906000        7.43495000       13.76460000
  |  125: Species C            -8.30145000        7.00187000       12.34770000
  |  126: Species C            -2.00590000       10.14760000        8.88852000
  |  127: Species C             2.10682000       10.69970000        9.04077000
  |  128: Species C            -4.39201000        7.75435000       12.48060000
  |  129: Species H            -5.95878000        6.25808000       10.72790000
  |  130: Species H            -4.40455000        9.33630000       10.93230000
  |  131: Species H            -0.26616700       11.67430000       10.96620000
  |  132: Species H            -1.83129000        8.63795000       10.42720000
  |  133: Species H            -4.56156000        7.82994000        9.46247000
  |  134: Species H            -5.83115000       10.82950000       12.28910000
  |  135: Species H            -1.69710000       10.04490000       12.16770000
  |  136: Species H            -0.41223000        7.12166000        9.18034000
  |  137: Species H            -8.36221000        8.38013000       13.98520000
  |  138: Species H            -1.98975000       11.38110000        7.06276000
  |  139: Species H             1.98860000        9.46894000        7.26593000
  |  140: Species H            -4.38602000        6.45997000       14.13410000
  |  141: Species H            -7.74760000        7.65381000       11.69470000
  |  142: Species H            -2.60539000       10.82940000        9.53956000
  |  143: Species H             1.52940000        9.96501000        9.59961000
  |  144: Species H            -3.73657000        7.08937000       11.92120000

  Lattice parameters for 3D lattice (in Angstroms) :     8.102000   11.880000   17.292000
  Angle(s) between unit vectors (in degrees)       :    90.000000  124.463000   90.000000


  Quantities derived from the lattice vectors (in Angstrom^-1):
  | Reciprocal lattice vector 1:  0.775510  0.000000  0.532257
  | Reciprocal lattice vector 2:  0.000000  0.528888  0.000000
  | Reciprocal lattice vector 3: -0.000000  0.000000  0.440705
  | Unit cell volume                               :   0.137227E+04  Angstrom^3

  Fractional coordinates:
                         L1                L2                L3
       atom_frac         0.08522196        0.00048389        0.16568433  C
       atom_frac         0.43543401        0.24345034        0.34446037  C
       atom_frac         0.94941894        0.49738131        0.34766789  C
       atom_frac         0.61447571        0.24035522        0.17058013  C
       atom_frac         0.11130368        0.08044226        0.11561388  C
       atom_frac         0.39581516        0.31645455        0.39348853  C
       atom_frac         0.91804881        0.42314731        0.40045628  C
       atom_frac         0.63759744        0.16757155        0.11623953  C
       atom_frac         0.05504046        0.05344141        0.02272087  C
       atom_frac         0.46568928        0.29467424        0.48795296  C
       atom_frac         0.98270462        0.45230387        0.49345197  C
       atom_frac         0.57223742        0.19643434        0.02226117  C
       atom_frac         0.09219943        0.12910185        0.46780652  C
       atom_frac         0.45232652        0.37829882        0.04620697  C
       atom_frac         0.93350778        0.37527273        0.03814987  C
       atom_frac         0.59885051        0.11369276        0.47438991  C
       atom_frac         0.01341212        0.10452357        0.37445382  C
       atom_frac         0.52013488        0.34445370        0.13673176  C
       atom_frac         0.99179922        0.41334848        0.12660558  C
       atom_frac         0.53083864        0.13916498        0.38295273  C
       atom_frac         0.12856737        0.01714116        0.23730823  H
       atom_frac         0.36962046        0.26118266        0.27040890  H
       atom_frac         0.90569880        0.47353367        0.27805070  H
       atom_frac         0.66041151        0.20765572        0.23734821  H
       atom_frac         0.17926809        0.16264815        0.14582196  H
       atom_frac         0.32591214        0.39702020        0.36058355  H
       atom_frac         0.83713885        0.34454966        0.36638276  H
       atom_frac         0.70327901        0.08406582        0.14209540  H
       atom_frac         0.16034709        0.20882071        0.49649326  H
       atom_frac         0.37053570        0.45709007        0.01541020  H
       atom_frac         0.86892583        0.29241751        0.01355604  H
       atom_frac         0.66961810        0.03246616        0.50504338  H
       atom_frac         0.02705021        0.16572643        0.33024430  H
       atom_frac         0.49999103        0.40137121        0.18009819  H
       atom_frac         0.96507275        0.35681061        0.16906019  H
       atom_frac         0.55910126        0.08224798        0.34170946  H
       atom_frac         0.12783468        0.00263678        0.67522581  C
       atom_frac         0.43089911        0.26236785        0.83687356  C
       atom_frac         0.93023539        0.47913973        0.83516213  C
       atom_frac         0.59287471        0.23843182        0.67324364  C
       atom_frac         0.15009820        0.07792955        0.62175355  C
       atom_frac         0.41405604        0.33769865        0.89348390  C
       atom_frac         0.89394232        0.41402441        0.88959111  C
       atom_frac         0.62171281        0.16252020        0.61974964  C
       atom_frac         0.08211688        0.05101860        0.52760475  C
       atom_frac         0.47739369        0.30583586        0.98634983  C
       atom_frac         0.96267439        0.44695286        0.98227467  C
       atom_frac         0.56782925        0.19044192        0.52850956  C
       atom_frac         0.10001747        0.12846801        0.97358427  C
       atom_frac         0.43871720        0.37352189        0.54367673  C
       atom_frac         0.96295773        0.37692845        0.55147705  C
       atom_frac         0.58138866        0.12207744        0.96050308  C
       atom_frac         0.04926691        0.10059428        0.88615422  C
       atom_frac         0.50649561        0.34774074        0.63363815  C
       atom_frac         1.01847786        0.40118939        0.64071321  C
       atom_frac         0.51781535        0.15676515        0.87276442  C
       atom_frac         0.18950833        0.02290892        0.74994150  H
       atom_frac         0.38922455        0.28711027        0.76758884  H
       atom_frac         0.87476905        0.44623990        0.76593352  H
       atom_frac         0.62076861        0.21392677        0.73962385  H
       atom_frac         0.22394244        0.15947559        0.65014429  H
       atom_frac         0.33996322        0.41864899        0.86551891  H
       atom_frac         0.81821805        0.33147138        0.86428444  H
       atom_frac         0.68078296        0.07701431        0.64468526  H
       atom_frac         0.18348858        0.20253620        1.01164247  H
       atom_frac         0.36345744        0.45524327        0.51193818  H
       atom_frac         0.89202591        0.29554377        0.52371546  H
       atom_frac         0.65875294        0.04083628        0.98664442  H
       atom_frac         0.09086349        0.15488384        0.84743671  H
       atom_frac         0.47946427        0.40386364        0.67497471  H
       atom_frac         1.00045007        0.34280219        0.68317974  H
       atom_frac         0.54050215        0.10421633        0.82689959  H
       atom_frac         0.09075820        0.51758249        0.16134053  C
       atom_frac         0.41720057        0.75404040        0.32969440  C
       atom_frac         0.90860360        1.00265152        0.33591165  C
       atom_frac         0.57832086        0.74674074        0.16524174  C
       atom_frac         0.12062412        0.59035859        0.10767889  C
       atom_frac         0.38889004        0.82823316        0.38361766  C
       atom_frac         0.89024207        0.92288721        0.38869653  C
       atom_frac         0.61919325        0.67295286        0.11475045  C
       atom_frac         0.05928653        0.55423990        0.01635850  C
       atom_frac         0.46022014        0.80294024        0.47788009  C
       atom_frac         0.97689055        0.94712121        0.48595326  C
       atom_frac         0.55458115        0.69855808        0.02232135  C
       atom_frac         0.11826370        0.62895202        0.47874282  C
       atom_frac         0.41574747        0.87606902        0.03489451  C
       atom_frac         0.93488895        0.86854377        0.03615809  C
       atom_frac         0.59358035        0.62591330        0.46069358  C
       atom_frac         0.05828698        0.59743013        0.38998010  C
       atom_frac         0.47864594        0.84940236        0.12580458  C
       atom_frac         1.00053644        0.89527778        0.12700609  C
       atom_frac         0.52045908        0.65189226        0.36895060  C
       atom_frac         0.13233356        0.54240909        0.23135261  H
       atom_frac         0.35965556        0.77750000        0.25700927  H
       atom_frac         0.84524014        0.98117003        0.26289336  H
       atom_frac         0.63214115        0.71928367        0.23522085  H
       atom_frac         0.19278923        0.67290152        0.13173145  H
       atom_frac         0.30033467        0.90519360        0.35086840  H
       atom_frac         0.80458887        0.84556397        0.36015288  H
       atom_frac         0.69883474        0.59306313        0.14771645  H
       atom_frac         0.19386496        0.70882071        0.50658226  H
       atom_frac         0.34016282        0.95645623        0.00680108  H
       atom_frac         0.86839423        0.78631481        0.00939082  H
       atom_frac         0.67214888        0.54768013        0.49213123  H
       atom_frac         0.10297816        0.65123232        0.35430317  H
       atom_frac         0.43406904        0.90888889        0.16011167  H
       atom_frac         0.98596111        0.83148232        0.16760056  H
       atom_frac         0.53632236        0.59018771        0.32699680  H
       atom_frac         0.12295101        0.50611195        0.68107272  C
       atom_frac         0.42619466        0.75871212        0.83495171  C
       atom_frac         0.94709507        0.99931818        0.84181144  C
       atom_frac         0.60684356        0.75344276        0.66091015  C
       atom_frac         0.15470608        0.58065993        0.62996840  C
       atom_frac         0.39517966        0.83144108        0.88884762  C
       atom_frac         0.89933074        0.92490741        0.88827247  C
       atom_frac         0.64785006        0.67804798        0.61209872  C
       atom_frac         0.08779499        0.55730219        0.53437260  C
       atom_frac         0.45299914        0.80234175        0.98078068  C
       atom_frac         0.95833001        0.94593434        0.98134181  C
       atom_frac         0.56594530        0.69915152        0.51680944  C
       atom_frac         0.08649155        0.62279461        0.95571249  C
       atom_frac         0.43078459        0.88041246        0.53074073  C
       atom_frac         0.94621620        0.87402357        0.54030087  C
       atom_frac         0.58602886        0.62583754        0.96545500  C
       atom_frac         0.02137176        0.58938300        0.86607302  C
       atom_frac         0.50537683        0.85417508        0.62344464  C
       atom_frac         1.02589199        0.90064815        0.63412352  C
       atom_frac         0.51515766        0.65272306        0.87539468  C
       atom_frac         0.17330360        0.52677441        0.75245955  H
       atom_frac         0.38245146        0.78588384        0.76679625  H
       atom_frac         0.89610853        0.98268519        0.76917401  H
       atom_frac         0.65727181        0.72710017        0.73136832  H
       atom_frac         0.23856115        0.65908586        0.66370174  H
       atom_frac         0.32130771        0.91157407        0.86196279  H
       atom_frac         0.82127432        0.84553030        0.85344774  H
       atom_frac         0.72679808        0.59946633        0.64391302  H
       atom_frac         0.15258706        0.70539815        0.98092798  H
       atom_frac         0.35270774        0.95800505        0.49538504  H
       atom_frac         0.86095161        0.79704882        0.50963547  H
       atom_frac         0.65596704        0.54376852        0.99137189  H
       atom_frac         0.03441498        0.64426010        0.82027132  H
       atom_frac         0.48653440        0.91156566        0.66910886  H
       atom_frac         1.00196320        0.83880556        0.67332080  H
       atom_frac         0.54866873        0.59674832        0.83615812  H

 
  Finished reading input file 'geometry.in'.
 

 
  Consistency checks for stacksize environment parameter are next.
 
  | Maximum stacksize for task 0: unlimited
  | Maximum stacksize for task 1: unlimited
  | Maximum stacksize for task 2: unlimited
  | Maximum stacksize for task 3: unlimited
  | Maximum stacksize for task 4: unlimited
  | Maximum stacksize for task 5: unlimited
  | Maximum stacksize for task 6: unlimited
  | Maximum stacksize for task 7: unlimited
  | Maximum stacksize for task 8: unlimited
  | Maximum stacksize for task 9: unlimited
  | Maximum stacksize for task 10: unlimited
  | Maximum stacksize for task 11: unlimited
  | Maximum stacksize for task 12: unlimited
  | Maximum stacksize for task 13: unlimited
  | Maximum stacksize for task 14: unlimited
  | Maximum stacksize for task 15: unlimited
  | Maximum stacksize for task 16: unlimited
  | Maximum stacksize for task 17: unlimited
  | Current stacksize for task 0: unlimited
  | Current stacksize for task 1: unlimited
  | Current stacksize for task 2: unlimited
  | Current stacksize for task 3: unlimited
  | Current stacksize for task 4: unlimited
  | Current stacksize for task 5: unlimited
  | Current stacksize for task 6: unlimited
  | Current stacksize for task 7: unlimited
  | Current stacksize for task 8: unlimited
  | Current stacksize for task 9: unlimited
  | Current stacksize for task 10: unlimited
  | Current stacksize for task 11: unlimited
  | Current stacksize for task 12: unlimited
  | Current stacksize for task 13: unlimited
  | Current stacksize for task 14: unlimited
  | Current stacksize for task 15: unlimited
  | Current stacksize for task 16: unlimited
  | Current stacksize for task 17: unlimited
 
  Consistency checks for the contents of control.in are next.
 
  MPI_IN_PLACE appears to work with this MPI implementation.
  | Keeping use_mpi_in_place .true. (see manual).
  Explicit treatment of the Coulomb operator is needed, but the RI method is not specified.
  Coulomb operator: Defaulting to 'LVL fast' resolution of identity - RI_type = LVL_fast
  Species H: Using default value for prodbas_acc =   1.000000E-06.
  Species H: Using default value max_l_prodbas =     6.
  Species C: Using default value for prodbas_acc =   1.000000E-06.
  Species C: Using default value max_l_prodbas =     6.
  Target number of points in a grid batch is not set.  Since GPU acceleration is enabled, defaulting to  200
  Method for grid partitioning is not set. Defaulting to parallel hash+maxmin partitioning.
  Batch size limit is not set. Defaulting to    200
  By default, will store active basis functions for each batch.
  If in need of memory, prune_basis_once .false. can be used to disable this option.
  communication_type for Hartree potential was not specified.
  Defaulting to calc_hartree .
  Defaulting to Pulay charge density mixer.
  Pulay mixer: Number of relevant iterations not set.
  Defaulting to    8 iterations.
  Pulay mixer: Number of initial linear mixing iterations not set.
  Defaulting to    0 iterations.
  Work space size for distributed Hartree potential not set.
  Defaulting to   0.200000E+03 MB.
  Algorithm-dependent basis array size parameters:
  | n_max_pulay                         :        8
  Maximum number of self-consistency iterations not provided.
  Presetting  1000 iterations.
  Presetting      1001 iterations before the initial mixing cycle
  is restarted anyway using the sc_init_iter criterion / keyword.
  Presetting a factor      1.000 between actual scf density residual
  and density convergence criterion sc_accuracy_rho below which sc_init_iter
  takes no effect.
 * No s.c.f. convergence criteria (sc_accuracy_*) were provided in control.in.
 * The run will proceed with a reasonable default guess, but please check whether.
 * the s.c.f. cycles seem to take too much or too little time.
  Geometry relaxation not requested: no relaxation will be performed.
 * Notice: The s.c.f. convergence criterion sc_accuracy_rho was not provided.
 * We used to stop in this case, and ask the user to provide reasonable
 * scf convergence criteria. However, this led some users to employ criteria
 * that led to extremely long run times, e.g., for simple relaxation.
 * We now preset a default value for sc_accuracy_rho if it is not set.
 * You may still wish to check if this setting is too tight or too loose for your needs.
 * Based on n_atoms and forces and force-correction status, FHI-aims chose sc_accuracy_rho =  0.391918E-04 .
  No accuracy limit for integral partition fn. given. Defaulting to  0.1000E-14.
  No threshold value for u(r) in integrations given. Defaulting to  0.1000E-05.
  No occupation type (smearing scheme) given. Defaulting to Gaussian broadening, width =  0.1000E-01 eV.
  The width will be adjusted in iteration number     2 of the first full s.c.f. cycle only.
  S.C.F. convergence parameters will be adjusted in iteration number     2 of the first full s.c.f. cycle only.
  No accuracy for occupation numbers given. Defaulting to  0.1000E-12.
  No threshold value for occupation numbers given. Defaulting to  0.0000E+00.
  No accuracy for fermi level given. Defaulting to  0.1000E-19.
  Maximum # of iterations to find E_F not set. Defaulting to  200.
  Preferred method for the eigenvalue solver ('KS_method') not specified in 'control.in'.
  Calling BLACS routine to test compilation state
  Since ScaLAPACK support is enabled, defaulting to ELPA (via ELSI).
  Will not use alltoall communication since running on < 1024 CPUs.
  Threshold for basis singularities not set.
  Default threshold for basis singularities:  0.1000E-04
  partition_type (choice of integration weights) for integrals was not specified.
  | Using a version of the partition function of Stratmann and coworkers ('stratmann_sparse').
  | At each grid point, the set of atoms used to build the partition table is smoothly restricted to
  | only those atoms whose free-atom density would be non-zero at that grid point.
  Partitioning for Hartree potential was not defined. Using partition_type for integrals.
  | Adjusted default value of keyword multip_moments_threshold to:       0.10000000E-11
  | This value may affect high angular momentum components of the Hartree potential in periodic systems.
  Angular momentum expansion for Kerker preconditioner not set explicitly.
  | Using default value of   0
  No explicit requirement for turning off preconditioner.
  | By default, it will be turned off when the charge convergence reaches
  | sc_accuracy_rho  =   0.391918E-04
  No special mixing parameter while Kerker preconditioner is on.
  Using default: charge_mix_param =     0.7500.
  Threshold for auxiliary basis singularities not set.
  Default threshold for auxiliary basis singularities:  0.1000E-04
  No q(lm)/r^(l+1) cutoff set for long-range Hartree potential.
  | Using default value of  0.100000E-09 .
  | Verify using the multipole_threshold keyword.
  Defaulting to new monopole extrapolation.
  Density update method: automatic selection selected.
  Using density matrix based charge density update.
  Using density matrix based charge density update.
  Using packed matrix style: index .
  Defaulting to use time-reversal symmetry for k-point grid.
  Charge integration errors on the 3D integration grid will be compensated
  by explicit normalization and distribution of residual charges.
  Use the "compensate_multipole_errors" flag to change this behaviour.
  Default to 1D ("use_logsbt") integrations for auxiliary 2-center integrals.
  Default onset of logarithmic r-grid for SBT is -38.000000000000
  Default onset of logarithmic k-grid for SBT is -25.000000000000
  Default range of logarithmic r- and k-grid for SBT is  45.000000000000
  Default number of logarithmic r- and k-grid for SBT is   4096
  Default of use_2d_corr is to use the efficient 2D distribution where possible
 
  Consistency checks for the contents of geometry.in are next.
 

  Range separation radius for Ewald summation (hartree_convergence_parameter):      2.91768261 bohr.
  Number of empty states per atom not set in control.in .
  | Since you are using a method that relies on the unoccupied spectrum
  | (MP2,GW,RPA et al.), will use the full Hamiltonian size (see below)
  | as the max. possible number of states (occupied plus empty).

  Structure-dependent array size parameters: 
  | Maximum number of distinct radial functions  :        9
  | Maximum number of basis functions            :     1440
  | Number of Kohn-Sham states (occupied + empty):     1440
------------------------------------------------------------
CUDA runtime version: 11060
CUDA driver version: 11060
  Initializing GPUs...

  Number of GPUs available to MPI task         0 :   1
  Number of GPUs available to MPI task         1 :   1
  Number of GPUs available to MPI task         2 :   1
  Number of GPUs available to MPI task         3 :   1
  Number of GPUs available to MPI task         4 :   1
  Number of GPUs available to MPI task         5 :   1
  Number of GPUs available to MPI task         6 :   1
  Number of GPUs available to MPI task         7 :   1
  Number of GPUs available to MPI task         8 :   1
  Number of GPUs available to MPI task         9 :   1
  Number of GPUs available to MPI task        10 :   1
  Number of GPUs available to MPI task        11 :   1
  Number of GPUs available to MPI task        12 :   1
  Number of GPUs available to MPI task        13 :   1
  Number of GPUs available to MPI task        14 :   1
  Number of GPUs available to MPI task        15 :   1
  Number of GPUs available to MPI task        16 :   1
  Number of GPUs available to MPI task        17 :   1

  | MPI task         0, GPU activated = T, Device Name = NVIDIA A100-SXM4-80GB
  | MPI task         1, GPU activated = T, Device Name = NVIDIA A100-SXM4-80GB
  | MPI task         2, GPU activated = T, Device Name = NVIDIA A100-SXM4-80GB
  | MPI task         3, GPU activated = T, Device Name = NVIDIA A100-SXM4-80GB
  | MPI task         4, GPU activated = T, Device Name = NVIDIA A100-SXM4-80GB
  | MPI task         5, GPU activated = T, Device Name = NVIDIA A100-SXM4-80GB
  | MPI task         6, GPU activated = T, Device Name = NVIDIA A100-SXM4-80GB
  | MPI task         7, GPU activated = T, Device Name = NVIDIA A100-SXM4-80GB
  | MPI task         8, GPU activated = T, Device Name = NVIDIA A100-SXM4-80GB
  | MPI task         9, GPU activated = T, Device Name = NVIDIA A100-SXM4-80GB
  | MPI task        10, GPU activated = T, Device Name = NVIDIA A100-SXM4-80GB
  | MPI task        11, GPU activated = T, Device Name = NVIDIA A100-SXM4-80GB
  | MPI task        12, GPU activated = T, Device Name = NVIDIA A100-SXM4-80GB
  | MPI task        13, GPU activated = T, Device Name = NVIDIA A100-SXM4-80GB
  | MPI task        14, GPU activated = T, Device Name = NVIDIA A100-SXM4-80GB
  | MPI task        15, GPU activated = T, Device Name = NVIDIA A100-SXM4-80GB
  | MPI task        16, GPU activated = T, Device Name = NVIDIA A100-SXM4-80GB
  | MPI task        17, GPU activated = T, Device Name = NVIDIA A100-SXM4-80GB

------------------------------------------------------------
          Preparing all fixed parts of the calculation.
------------------------------------------------------------
  Determining machine precision:
    2.225073858507201E-308
  Setting up grids for atomic and cluster calculations.

  Creating wave function, potential, and density for free atoms.
  Runtime choices for atomic solver:
  | atomic solver xc        : PW-LDA
  | compute density gradient: 0
  | compute kinetic density : F

  Species: H

  List of occupied orbitals and eigenvalues:
    n    l              occ      energy [Ha]    energy [eV]
    1    0           1.0000        -0.232375        -6.3233


  Species: C

  List of occupied orbitals and eigenvalues:
    n    l              occ      energy [Ha]    energy [eV]
    1    0           2.0000        -9.944615      -270.6068
    2    0           2.0000        -0.498807       -13.5732
    2    1           2.0000        -0.196968        -5.3598


  Adding cutoff potential to free-atom effective potential.
  Creating fixed part of basis set: Ionic, confined, hydrogenic.
 
  H                    hydrogenic:
 
  List of hydrogenic basis orbitals: 
    n    l      effective z      eigenvalue [eV]  inner max. [A]     outer max. [A]     outer radius [A]   
    2    0         2.100000       -14.9728           0.193243           1.317208           4.583499
    2    1         3.500000       -41.6669           0.602369           0.602369           3.723403
 
 
  C                    hydrogenic:
 
  List of hydrogenic basis orbitals: 
    n    l      effective z      eigenvalue [eV]  inner max. [A]     outer max. [A]     outer radius [A]   
    2    1         1.700000        -9.7616           1.230570           1.230570           4.607917
    3    2         6.000000       -54.4224           0.792453           0.792453           3.883070
    2    0         4.900000       -81.6679           0.082559           0.562749           3.078220
 
  Creating atomic-like basis functions for current effective potential.

  Species H                   :

  List of atomic basis orbitals and eigenvalues:
    n    l      energy [Ha]    energy [eV]    outer radius [A]
    1    0        -0.232375        -6.3233       4.527807


  Species C                   :

  List of atomic basis orbitals and eigenvalues:
    n    l      energy [Ha]    energy [eV]    outer radius [A]
    1    0        -9.944615      -270.6068       1.934409
    2    0        -0.498807       -13.5732       4.496620
    2    1        -0.196968        -5.3598       4.551928

  Assembling full basis from fixed parts.
  | Species H :   atomic orbital   1 s accepted.
  | Species H :    hydro orbital   2 s accepted.
  | Species H :    hydro orbital   2 p accepted.
  | Species C :   atomic orbital   1 s accepted.
  | Species C :    hydro orbital   2 s accepted.
  | Species C :   atomic orbital   2 s accepted.
  | Species C :   atomic orbital   2 p accepted.
  | Species C :    hydro orbital   2 p accepted.
  | Species C :    hydro orbital   3 d accepted.
 
  Basis size parameters after reduction:
  | Total number of radial functions:        9
  | Total number of basis functions :     1440
 
  Per-task memory consumption for arrays in subroutine allocate_ext:
  |           2.242384MB.
  Testing on-site integration grid accuracy.
  |  Species  Function  <phi|h_atom|phi> (log., in eV)  <phi|h_atom|phi> (rad., in eV)
           1        1                 -6.3245358373                 -6.3232436907
           1        2                 14.1326137532                 14.1384481100
           1        3                 25.3627025200                 25.3628451197
           2        4               -270.6067544938               -270.6067222788
           2        5                -10.5634280949                -10.5635685736
           2        6                 16.2089822398                 16.2052121796
           2        7                 -5.3613872565                 -5.3627872378
           2        8                  8.5292058327                  8.5051734780
           2        9                 27.4884461005                 27.4884542459

  Preparing densities etc. for the partition functions (integrals / Hartree potential).

  Preparations completed.
  max(cpu_time)          :      0.080 s.
  Wall clock time (cpu1) :      0.072 s.
------------------------------------------------------------

  Initializing index lists of integration centers etc. from given atomic structure:
  Mapping all atomic coordinates to central unit cell.

  Initializing the k-points
  Using symmetry for reducing the k-points
  | k-points reduced from:        2 to        2
  | Number of k-points                             :         2
  | Consuming          0 KiB for k_phase_exx.
  The eigenvectors in the calculations are REAL.
  | Number of basis functions in the Hamiltonian integrals :      7986
  | Number of basis functions in a single unit cell        :      1440
  | Number of centers in hartree potential         :      3332
  | Number of centers in hartree multipole         :      2559
  | Number of centers in electron density summation:      1987
  | Number of centers in basis integrals           :      2127
  | Number of centers in integrals                 :       969
  | Number of centers in hamiltonian               :      1991
  | Consuming          1 KiB for k_phase.
  | Number of super-cells (origin) [n_cells]                     :         175
  | Number of super-cells (after PM_index) [n_cells]             :          40
  | Number of super-cells in hamiltonian [n_cells_in_hamiltonian]:          40
  | Size of matrix packed + index [n_hamiltonian_matrix_size] :     1931829
  | Size of matrix packed + index (no_symmetry):     3860841

------------------------------------------------------------
          Begin self-consistency loop: Initialization.

          Date     :  20230120, Time     :  154504.107
------------------------------------------------------------
  | Estimated reciprocal-space cutoff momentum G_max:         3.24344278 bohr^-1 .
  | Reciprocal lattice points for long-range Hartree potential:    5310
  Using simple linear distribution as default method for k-point parallelism.
  * Using 18 tasks for Scalapack Eigenvalue solver.
  Detailed listing of tasks and assigned k-points:
   Task     0 k-point     1 on adag003
   Task     1 k-point     1 on adag003
   Task     2 k-point     1 on adag003
   Task     3 k-point     1 on adag003
   Task     4 k-point     1 on adag003
   Task     5 k-point     1 on adag003
   Task     6 k-point     1 on adag003
   Task     7 k-point     1 on adag003
   Task     8 k-point     1 on adag003
   Task     9 k-point     2 on adag003
   Task    10 k-point     2 on adag003
   Task    11 k-point     2 on adag003
   Task    12 k-point     2 on adag003
   Task    13 k-point     2 on adag003
   Task    14 k-point     2 on adag003
   Task    15 k-point     2 on adag003
   Task    16 k-point     2 on adag003
   Task    17 k-point     2 on adag003
  K-point:     1 Tasks:     9 split into      3 X      3 BLACS grid
  Calculating block size based on n_basis =         1440  max_nprow =            3  max_npcol =            3
  ScaLAPACK block size set to:           16
  Allocating        1.758 MB for ovlp
  Allocating        1.758 MB for ham
  Allocating        1.758 MB for eigenvec
  Required Scalapack workspace - INTEGER:            1  REAL:             1
  Partitioning the integration grid into batches with parallel hashing+maxmin method.
  | Number of batches:     5376
  | Maximal batch size:     198
  | Minimal batch size:     100
  | Average batch size:     142.083
  | Standard deviation of batch sizes:      32.332

  Integration load balanced across    18 MPI tasks.
  Work distribution over tasks is as follows:
  Task     0 has      42541 integration points.
  Task     1 has      42527 integration points.
  Task     2 has      42343 integration points.
  Task     3 has      42527 integration points.
  Task     4 has      42501 integration points.
  Task     5 has      42427 integration points.
  Task     6 has      42427 integration points.
  Task     7 has      42354 integration points.
  Task     8 has      42434 integration points.
  Task     9 has      42453 integration points.
  Task    10 has      42387 integration points.
  Task    11 has      42451 integration points.
  Task    12 has      42478 integration points.
  Task    13 has      42407 integration points.
  Task    14 has      42384 integration points.
  Task    15 has      42405 integration points.
  Task    16 has      42437 integration points.
  Task    17 has      42357 integration points.
  Initializing partition tables, free-atom densities, potentials, etc. across the integration grid (initialize_grid_storage).
  | initialize_grid_storage: Actual outermost partition radius vs. multipole_radius_free
  | (-- VB: in principle, multipole_radius_free should be larger, hence this output)
  | Species        1: Confinement radius =              4.999999999999999 AA, multipole_radius_free =              5.054417573612229 AA.
  | Species        1: outer_partition_radius set to              5.054417573612229 AA .
  | Species        2: Confinement radius =              4.999999999999999 AA, multipole_radius_free =              5.019602836301480 AA.
  | Species        2: outer_partition_radius set to              5.019602836301480 AA .
  | The sparse table of interatomic distances needs       7655.66 kbyte instead of     36193.03 kbyte of memory.
  | Net number of integration points:   763840
  | of which are non-zero points    :   605160
  | Numerical average free-atom electrostatic potential    :     -8.61464384 eV
  Renormalizing the initial density to the exact electron count on the 3D integration grid.
  | Initial density: Formal number of electrons (from input files) :     544.0000000000
  | Integrated number of electrons on 3D grid     :     543.9937926546
  | Charge integration error                      :      -0.0062073454
  | Normalization factor for density and gradient :       1.0000114107
  Renormalizing the free-atom superposition density to the exact electron count on the 3D integration grid.
  | Formal number of electrons (from input files) :     544.0000000000
  | Integrated number of electrons on 3D grid     :     543.9937926546
  | Charge integration error                      :      -0.0062073454
  | Normalization factor for density and gradient :       1.0000114107
  Obtaining max. number of non-zero basis functions in each batch (get_n_compute_maxes).
  | Maximal number of non-zero basis functions:      532 in task     0
  | Maximal number of non-zero basis functions:      528 in task     1
  | Maximal number of non-zero basis functions:      538 in task     2
  | Maximal number of non-zero basis functions:      540 in task     3
  | Maximal number of non-zero basis functions:      542 in task     4
  | Maximal number of non-zero basis functions:      549 in task     5
  | Maximal number of non-zero basis functions:      553 in task     6
  | Maximal number of non-zero basis functions:      525 in task     7
  | Maximal number of non-zero basis functions:      519 in task     8
  | Maximal number of non-zero basis functions:      536 in task     9
  | Maximal number of non-zero basis functions:      549 in task    10
  | Maximal number of non-zero basis functions:      541 in task    11
  | Maximal number of non-zero basis functions:      541 in task    12
  | Maximal number of non-zero basis functions:      536 in task    13
  | Maximal number of non-zero basis functions:      549 in task    14
  | Maximal number of non-zero basis functions:      540 in task    15
  | Maximal number of non-zero basis functions:      545 in task    16
  | Maximal number of non-zero basis functions:      550 in task    17
  Integrating Hamiltonian matrix: batch-based integration.
  GPU acceleration will be used when integrating the Hamiltonian matrix.
  Reporting GPU memory usage by myid 0.  Note that it is likely not the only MPI task binding to its GPU!
  Allocating        2.264 MB on GPU for hamiltonian_shell
  Allocating        0.843 MB on GPU for wave
  Allocating        0.002 MB on GPU for partition
  Allocating        0.843 MB on GPU for h_times_psi
  Time summed over all CPUs for integration: real work       25.801 s, elapsed       26.988 s
  Deallocating memory used on GPU for Hamiltonian integration.
  Integrating overlap matrix.
  Time summed over all CPUs for integration: real work       21.329 s, elapsed       21.854 s
  Deallocating overlap matrix.

  Updating Kohn-Sham eigenvalues and eigenvectors using ELSI and the ELPA eigensolver.
  Singularity check in k-point 1 (analysis for other k-points may follow below):
  Overlap matrix is not singular
  | Lowest and highest eigenvalues :  0.7962E-03,  0.8273E+01
  Finished singularity check of overlap matrix
  | Time :     0.109 s
  Starting ELPA eigensolver
  Finished Cholesky decomposition
  | Time :     0.018 s
  Finished transformation to standard eigenproblem
  | Time :     0.026 s
  Finished solving standard eigenproblem
  | Time :     0.232 s
  Finished back-transformation of eigenvectors
  | Time :     0.017 s

  Obtaining occupation numbers and electronic chemical potential using ELSI.
  | Note that, for insulating systems, the printed 'chemical potential' value is not uniquely defined.
  | It can be anywhere in the energy gap, as long as it correctly separates occupied and unoccupied states.
  | In systems with a gap, the physically relevant chemical potential is the VBM or HOMO.

  | Chemical potential (Fermi level):    -8.67845817 eV
  Writing Kohn-Sham eigenvalues.
  K-point:       1 at    0.000000    0.000000    0.000000 (in units of recip. lattice)

  State    Occupation    Eigenvalue [Ha]    Eigenvalue [eV]
      1       2.00000         -10.073177         -274.10510
      2       2.00000         -10.069107         -273.99434
      3       2.00000         -10.068670         -273.98244
      4       2.00000         -10.067933         -273.96240
      5       2.00000         -10.067825         -273.95944
      6       2.00000         -10.067817         -273.95923
      7       2.00000         -10.067086         -273.93936
      8       2.00000         -10.067053         -273.93846
      9       2.00000         -10.066523         -273.92404
     10       2.00000         -10.066274         -273.91725
     11       2.00000         -10.066266         -273.91702
     12       2.00000         -10.066237         -273.91626
     13       2.00000         -10.065916         -273.90751
     14       2.00000         -10.065773         -273.90361
     15       2.00000         -10.065765         -273.90341
     16       2.00000         -10.065758         -273.90321
     17       2.00000         -10.065613         -273.89925
     18       2.00000         -10.065394         -273.89331
     19       2.00000         -10.065145         -273.88653
     20       2.00000         -10.065100         -273.88531
     21       2.00000         -10.064904         -273.87998
     22       2.00000         -10.064771         -273.87635
     23       2.00000         -10.064725         -273.87510
     24       2.00000         -10.064137         -273.85910
     25       2.00000         -10.064087         -273.85774
     26       2.00000         -10.064041         -273.85650
     27       2.00000         -10.064027         -273.85612
     28       2.00000         -10.063924         -273.85330
     29       2.00000         -10.063916         -273.85308
     30       2.00000         -10.063910         -273.85293
     31       2.00000         -10.063708         -273.84744
     32       2.00000         -10.063678         -273.84660
     33       2.00000         -10.063677         -273.84657
     34       2.00000         -10.063627         -273.84524
     35       2.00000         -10.063387         -273.83869
     36       2.00000         -10.063140         -273.83197
     37       2.00000         -10.063127         -273.83162
     38       2.00000         -10.062928         -273.82621
     39       2.00000         -10.062905         -273.82557
     40       2.00000         -10.062663         -273.81899
     41       2.00000         -10.062376         -273.81118
     42       2.00000         -10.062202         -273.80646
     43       2.00000         -10.062174         -273.80568
     44       2.00000         -10.062156         -273.80520
     45       2.00000         -10.061887         -273.79789
     46       2.00000         -10.061851         -273.79688
     47       2.00000         -10.061791         -273.79527
     48       2.00000         -10.061741         -273.79389
     49       2.00000         -10.061691         -273.79255
     50       2.00000         -10.061345         -273.78312
     51       2.00000         -10.061160         -273.77809
     52       2.00000         -10.061049         -273.77508
     53       2.00000         -10.060944         -273.77222
     54       2.00000         -10.060878         -273.77042
     55       2.00000         -10.060823         -273.76892
     56       2.00000         -10.060791         -273.76806
     57       2.00000         -10.060729         -273.76637
     58       2.00000         -10.060561         -273.76178
     59       2.00000         -10.060377         -273.75679
     60       2.00000         -10.060299         -273.75468
     61       2.00000         -10.060046         -273.74777
     62       2.00000         -10.059337         -273.72849
     63       2.00000         -10.059136         -273.72301
     64       2.00000         -10.059116         -273.72247
     65       2.00000         -10.058833         -273.71478
     66       2.00000         -10.058141         -273.69594
     67       2.00000         -10.057672         -273.68319
     68       2.00000         -10.057496         -273.67840
     69       2.00000         -10.056749         -273.65806
     70       2.00000         -10.056547         -273.65256
     71       2.00000         -10.056057         -273.63923
     72       2.00000         -10.055614         -273.62717
[...]
  |    H      0     4.527807 A      4.583499 A        4.713786E-16 a.u.
  |    H      2     3.678162 A  1.011968E+04 A            0.556529 a.u.
  |    H      1     3.958095 A  1.721251E+06 A            0.841931 a.u.
  |    H      0     4.527807 A  3.866455E+12 A            0.581436 a.u.
  |    C      0     2.562483 A      2.562483 A        6.563029E-17 a.u.
  |    C      0     2.967371 A      2.967371 A        1.352164E-16 a.u.
  |    C      0     3.003870 A      3.003870 A        2.312640E-17 a.u.
  |    C      1     3.272245 A      3.272245 A       -3.835259E-17 a.u.
  |    C      0     3.312494 A      3.312494 A       -2.710381E-16 a.u.
  |    C      3     4.077671 A      4.077671 A       -1.683752E-15 a.u.
  |    C      3     4.077671 A      4.077671 A        1.412852E-15 a.u.
  |    C      1     4.496620 A      4.496620 A       -3.011059E-16 a.u.
  |    C      0     4.496620 A      4.551928 A        2.873903E-17 a.u.
  |    C      2     4.551928 A      4.551928 A       -4.610785E-16 a.u.
  |    C      2     4.551928 A      4.551928 A        7.440584E-16 a.u.
  |    C      2     4.551928 A      4.551928 A       -7.110458E-16 a.u.
  |    C      2     4.551928 A      4.551928 A       -1.935424E-16 a.u.
  |    C      0     4.551928 A      4.607917 A        2.067142E-16 a.u.
  |    C      0     4.551928 A      4.607917 A       -1.109786E-16 a.u.
  |    C      1     4.551928 A      4.607917 A       -9.951742E-17 a.u.
  |    C      1     4.551928 A      4.607917 A        1.937809E-16 a.u.
  |    C      1     4.607917 A      4.607917 A       -2.813308E-16 a.u.
  |    C      1     4.607917 A      4.607917 A       -7.330363E-17 a.u.
  |    C      2     4.607917 A      4.607917 A        1.318462E-15 a.u.
  |    C      2     4.607917 A      4.607917 A       -1.318397E-15 a.u.
  |    C      0     4.607917 A      4.664595 A        3.157826E-16 a.u.
  |    C      1     4.607917 A      4.664595 A        7.356967E-16 a.u.
  |    C      4     3.835889 A  2.962973E+02 A            4.379483 a.u.
  |    C      3     4.127827 A  1.725964E+03 A            9.005588 a.u.
  |    C      2     4.607917 A  2.608475E+04 A            9.531178 a.u.
  |    C      1     4.607917 A  2.736013E+06 A            2.127278 a.u.
  |    C      0     4.607917 A  4.399765E+12 A            0.661635 a.u.

  | Shrink_full_auxil_basis : there are       36  radial auxiliary wave functions
                            accepted and       7 rejected.
  | Shrink_full_auxil_basis : there are totally                8992 partial auxiliary wave functions.
 
  | Maximal number of product basis functions per thread :   512   512
 
  | Minimal total memory requirement for three-center overlap :      72.476 Gbs
  | Number of local auxiliary basis functions on task:      0   512
  | Number of local auxiliary basis functions on task:      1   512
  | Number of local auxiliary basis functions on task:      2   512
  | Number of local auxiliary basis functions on task:      3   512
  | Number of local auxiliary basis functions on task:      4   496
  | Number of local auxiliary basis functions on task:      5   496
  | Number of local auxiliary basis functions on task:      6   496
  | Number of local auxiliary basis functions on task:      7   496
  | Number of local auxiliary basis functions on task:      8   496
  | Number of local auxiliary basis functions on task:      9   496
  | Number of local auxiliary basis functions on task:     10   496
  | Number of local auxiliary basis functions on task:     11   496
  | Number of local auxiliary basis functions on task:     12   496
  | Number of local auxiliary basis functions on task:     13   496
  | Number of local auxiliary basis functions on task:     14   496
  | Number of local auxiliary basis functions on task:     15   496
  | Number of local auxiliary basis functions on task:     16   496
  | Number of local auxiliary basis functions on task:     17   496
  | 2D aux task distribution:      3 X      6
  | 2D block size (nb_aux_2d):     64
 
  Basis pair condensation :   1037520  -->     552822
 
 --------------------------------------------
  Constructing auxiliary basis (full product) ...
 
  Product basis:
  | charge radius: extent of product basis function
  | field radius: extent of its Coulomb potential
  | Species   l  charge radius    field radius  multipol momen
  |    H      1     3.910002 A      3.910002 A       -2.487223E-16 a.u.
  |    H      1     3.958095 A      3.958095 A       -2.441841E-16 a.u.
  |    H      0     4.527807 A      4.527807 A        1.268855E-16 a.u.
  |    H      0     4.527807 A      4.583499 A       -4.900954E-17 a.u.
  |    H      0     4.527807 A      4.583499 A        4.713786E-16 a.u.
  |    H      2     3.678162 A  1.011968E+04 A            0.556529 a.u.
  |    H      1     3.958095 A  1.721251E+06 A            0.841931 a.u.
  |    H      0     4.527807 A  3.866455E+12 A            0.581436 a.u.
  |    C      0     2.562483 A      2.562483 A        6.563029E-17 a.u.
  |    C      0     2.967371 A      2.967371 A        1.352164E-16 a.u.
  |    C      0     3.003870 A      3.003870 A        2.312640E-17 a.u.
  |    C      1     3.272245 A      3.272245 A       -3.835259E-17 a.u.
  |    C      0     3.312494 A      3.312494 A       -2.710381E-16 a.u.
  |    C      3     4.077671 A      4.077671 A       -1.683752E-15 a.u.
  |    C      3     4.077671 A      4.077671 A        1.412852E-15 a.u.
  |    C      1     4.496620 A      4.496620 A       -3.011059E-16 a.u.
  |    C      0     4.496620 A      4.551928 A        2.873903E-17 a.u.
  |    C      2     4.551928 A      4.551928 A       -4.610785E-16 a.u.
  |    C      2     4.551928 A      4.551928 A        7.440584E-16 a.u.
  |    C      2     4.551928 A      4.551928 A       -7.110458E-16 a.u.
  |    C      2     4.551928 A      4.551928 A       -1.935424E-16 a.u.
  |    C      0     4.551928 A      4.607917 A        2.067142E-16 a.u.
  |    C      0     4.551928 A      4.607917 A       -1.109786E-16 a.u.
  |    C      1     4.551928 A      4.607917 A       -9.951742E-17 a.u.
  |    C      1     4.551928 A      4.607917 A        1.937809E-16 a.u.
  |    C      1     4.607917 A      4.607917 A       -2.813308E-16 a.u.
  |    C      1     4.607917 A      4.607917 A       -7.330363E-17 a.u.
  |    C      2     4.607917 A      4.607917 A        1.318462E-15 a.u.
  |    C      2     4.607917 A      4.607917 A       -1.318397E-15 a.u.
  |    C      0     4.607917 A      4.664595 A        3.157826E-16 a.u.
  |    C      1     4.607917 A      4.664595 A        7.356967E-16 a.u.
  |    C      4     3.835889 A  2.962973E+02 A            4.379483 a.u.
  |    C      3     4.127827 A  1.725964E+03 A            9.005588 a.u.
  |    C      2     4.607917 A  2.608475E+04 A            9.531178 a.u.
  |    C      1     4.607917 A  2.736013E+06 A            2.127278 a.u.
  |    C      0     4.607917 A  4.399765E+12 A            0.661635 a.u.

  | Shrink_full_auxil_basis : there are       36  radial auxiliary wave functions
                            accepted and       7 rejected.
  | Shrink_full_auxil_basis : there are totally                8992 partial auxiliary wave functions.
 
  | Maximal number of product basis functions per thread :   512   512
 
  | Minimal total memory requirement for three-center overlap :      72.476 Gbs
  | Number of local auxiliary basis functions on task:      0   512
  | Number of local auxiliary basis functions on task:      1   512
  | Number of local auxiliary basis functions on task:      2   512
  | Number of local auxiliary basis functions on task:      3   512
  | Number of local auxiliary basis functions on task:      4   496
  | Number of local auxiliary basis functions on task:      5   496
  | Number of local auxiliary basis functions on task:      6   496
  | Number of local auxiliary basis functions on task:      7   496
  | Number of local auxiliary basis functions on task:      8   496
  | Number of local auxiliary basis functions on task:      9   496
  | Number of local auxiliary basis functions on task:     10   496
  | Number of local auxiliary basis functions on task:     11   496
  | Number of local auxiliary basis functions on task:     12   496
  | Number of local auxiliary basis functions on task:     13   496
  | Number of local auxiliary basis functions on task:     14   496
  | Number of local auxiliary basis functions on task:     15   496
  | Number of local auxiliary basis functions on task:     16   496
  | Number of local auxiliary basis functions on task:     17   496
  | 2D aux task distribution:      3 X      6
  | 2D block size (nb_aux_2d):     64
 
  Basis pair condensation :   1037520  -->     552822
  Allocating        0.069 MB for t_coeff
  Allocating        0.034 MB for basbas_idx
  Allocating        0.069 MB for wave
  Allocating        0.069 MB for total_wave
  Allocating        0.206 MB for wave_gradient
  Allocating        0.206 MB for total_wave_grad
 HERE1
 HERE2
  Deallocating        0.069 MB for t_coeff
  Deallocating        0.034 MB for basbas_idx
  Deallocating        0.069 MB for wave
  Deallocating        0.206 MB for wave_gradient
  Deallocating        0.206 MB for total_wave_grad
dP_dE (Bohr^3) at every cycle:--->
 (990.714094793620,0.000000000000000E+000) (-2.16637599873196,0.000000000000000E+000) (-446.103009966970,0.000000000000000E+000)
 (-2.15772092558979,0.000000000000000E+000) (1362.85101191434,0.000000000000000E+000) (3.69497452122104,0.000000000000000E+000)
 (-446.304706413391,0.000000000000000E+000) (3.68693442060271,0.000000000000000E+000) (1696.80621577475,0.000000000000000E+000)
DFPT polarizability (Bohr^3)        xx        yy        zz        xy        xz        yz
  | Polarizability:--->                       990.714094794                 1362.851011914                 1696.806215775                   -2.166375999                 -446.103009967                    3.694974521

DFPT for dielectric_constant:--->  # PARSE DFPT_dielectric_tensor
               2.344377894273718            -0.002939726020540            -0.605352268954541
              -0.002927981270902             2.849359752964732             0.005014001609888
              -0.605625966730062             0.005003091364848             3.302529841194008

                                               :  max(cpu_time)    wall_clock(cpu1)
  | Time for  dielectric calculation            :        0.000 s           0.000 s
===========================================================================

------------------------------------------------------------------------------
  Final output of selected total energy values:

  The following output summarizes some interesting total energy values
  at the end of a run (AFTER all relaxation, molecular dynamics, etc.).

  | Total energy of the DFT / Hartree-Fock s.c.f. calculation      :         -83267.484991840 eV
  | Final zero-broadening corrected energy (caution - metals only) :         -83267.484991840 eV
  | For reference only, the value of 1 Hartree used in FHI-aims is :             27.211384500 eV
  | For reference only, the overall average (free atom contribution
  | + realspace contribution) of the electrostatic potential after
  | s.c.f. convergence is                                          :             -7.700056212 eV

  Before relying on these values, please be sure to understand exactly which
  total energy value is referred to by a given number. Different objects may
  all carry the same name 'total energy'. Definitions:

  Total energy of the DFT / Hartree-Fock s.c.f. calculation:
  | Note that this energy does not include ANY quantities calculated after the
  | s.c.f. cycle, in particular not ANY RPA, MP2, etc. many-body perturbation terms.

  Final zero-broadening corrected energy:
  | For metallic systems only, a broadening of the occupation numbers at the Fermi
  | level can be extrapolated back to zero broadening by an electron-gas inspired
  | formula. For all systems that are not real metals, this value can be
  | meaningless and should be avoided.

------------------------------------------------------------------------------
  Methods described in the following list of references were used in this FHI-aims run.
  If you publish the results, please make sure to cite these reference if they apply.
  FHI-aims is an academic code, and for our developers (often, Ph.D. students
  and postdocs), scientific credit in the community is essential.
  Thank you for helping us!

  For any use of FHI-aims, please cite:

    Volker Blum, Ralf Gehrke, Felix Hanke, Paula Havu, Ville Havu,
    Xinguo Ren, Karsten Reuter, and Matthias Scheffler
    'Ab initio molecular simulations with numeric atom-centered orbitals'
    Computer Physics Communications 180, 2175-2196 (2009)
    http://doi.org/10.1016/j.cpc.2009.06.022


  For Hartree-Fock, hybrid functionals, or many-body perturbation theory used in your run, please cite:

    Xinguo Ren, Patrick Rinke, Volker Blum, Juergen Wieferink, Alex Tkatchenko,
    Andrea Sanfilippo, Karsten Reuter, and Matthias Scheffler,
    'Resolution-of-identity approach to Hartree-Fock, hybrid density functionals,
    RPA, MP2, and GW with numeric atom-centered orbital basis functions'
    New Journal of Physics 14, 053020 (2012).
    http://doi.org/10.1088/1367-2630/14/5/053020


  The provided symmetry information was generated with SPGlib:

    Atsushi Togo, Yusuke Seto, Dimitar Pashov
    SPGlib 1.7.3 obtained from http://spglib.sourceforge.net
    Copyright (C) 2008 Atsushi Togo


  The DFPT (perturbation by an electric field) part of the code was used.
  Here is the corresponding reference:

    Honghui Shang, Nathaniel Raimbault, Mariana Rossi,
    Christian Carbogno, Patrick Rinke and Matthias Scheffler,
    'All-Electron, Real-Space Perturbation Theory for Homogeneous
    Electric Fields: Theory, Implementation, and Application within dft'
    New Journal of Physics, 20(7):073040, 2018


  The ELSI infrastructure was used in your run to solve the Kohn-Sham electronic structure.
  Please check out http://elsi-interchange.org to learn more.
  If scalability is important for your project, please acknowledge ELSI by citing:

    V. W-z. Yu, F. Corsetti, A. Garcia, W. P. Huhn, M. Jacquelin, W. Jia,
    B. Lange, L. Lin, J. Lu, W. Mi, A. Seifitokaldani, A. Vazquez-Mayagoitia,
    C. Yang, H. Yang, and V. Blum
    'ELSI: A unified software interface for Kohn-Sham electronic structure solvers'
    Computer Physics Communications 222, 267-285 (2018).
    http://doi.org/10.1016/j.cpc.2017.09.007


  For the real-space grid partitioning and parallelization used in this calculation, please cite:

    Ville Havu, Volker Blum, Paula Havu, and Matthias Scheffler,
    'Efficient O(N) integration for all-electron electronic structure calculation'
    'using numerically tabulated basis functions'
    Journal of Computational Physics 228, 8367-8379 (2009).
    http://doi.org/10.1016/j.jcp.2009.08.008


  The high-level electronic structure method used in your calculation
  employed our efficient localized resolution of identity for the Coulomb operator.
  Some calculations, especially large-scale hybrid density functional theory,
  are only possible thanks to this development. For this feature, please cite:

    Arvid Ihrig, Juergen Wieferink, Igor Ying Zhang, Matti Ropo, Xinguo Ren,
    Patrick Rinke, Matthias Scheffler, and Volker Blum,
    'Accurate localized resolution of identity approach for linear-scaling
    hybrid density functionals and for many-body perturbation theory'
    New Journal of Physics 117, 093020 (2015).
    http://doi.org/10.1088/1367-2630/17/9/093020

  Of course, there are many other important community references, e.g., those cited in the
  above references. Our list is limited to references that describe implementations in the
  FHI-aims code. The reason is purely practical (length of this list) - please credit others as well.

------------------------------------------------------------
          Leaving FHI-aims.
          Date     :  20230120, Time     :  160838.802

          Computational steps:
          | Number of self-consistency cycles          :           46
          | Number of SCF (re)initializations          :            1
          | Number of coupled perturbed self-consistency cycles          :            0
          | Number of CPSCF (re)initializations          :            0

          Detailed time accounting                     :  max(cpu_time)    wall_clock(cpu1)
          | Total time                                  :     1417.267 s        1428.572 s
          | GPU initialization                          :        2.189 s          12.675 s
          | Preparation time                            :        0.080 s           0.072 s
          | Boundary condition initalization            :        1.043 s           1.043 s
          | Grid partitioning                           :        1.270 s           1.270 s
          | Preloading free-atom quantities on grid     :        4.035 s           4.036 s
          | Free-atom superposition energy              :        0.550 s           0.550 s
          | Total time for integrations                 :       19.626 s          19.742 s
          | Product basis setup: Total time             :        0.000 s           0.000 s
          | Product basis: | 2-center integrations     :(       0.000 s)  (       0.000 s)
          | Product basis: | LVL 3-center & coefficient:(       0.000 s)  (       0.000 s)
          | Total time for solution of K.-S. equations  :        3.572 s           3.575 s
          | Total time for density update               :       13.867 s          14.025 s
          | Total time for mixing & preconditioning     :       30.236 s          30.244 s
          | Total time for Hartree multipole update     :        0.089 s           0.089 s
          | Total time for Hartree multipole sum        :       44.037 s          44.047 s
          | Total time for total energy evaluation      :        0.007 s           0.003 s
          | Total time first_order_DM                   :        1.875 s           1.875 s
          | Total time first_order_density              :      299.956 s         300.004 s
          | Total time first_order_potential            :      118.932 s         118.962 s
          | Total time first_order_H                    :      567.932 s         568.086 s
          | Total time solving of Sternheimer equations :        1.821 s           1.824 s
          | Total time for dielectric constant          :        0.000 s           0.000 s
          | Total time momentum matrix                  :        0.000 s           0.000 s

          GPU acceleration has been used for charge density update.
          GPU acceleration has been used for real-space Hamiltonian integration.
          Due to GPU usage, wall_clock(cpu1) will give a more reliable estimate for timings.

          Partial memory accounting:
          | Residual value for overall tracked memory usage across tasks:     1.234863 MB (should be 0.000000 MB)
          |
          | Largest tracked array allocation:
          |   Minimum:      103.171 MB (DFPT_pulay_mixing::initialize_pulay_mixing::X_in_diffs on task  0)
          |   Maximum:      103.171 MB (DFPT_pulay_mixing::initialize_pulay_mixing::X_in_diffs on task  0)
          |   Average:      103.171 MB
          |
          | Because the residual tracked memory usage was not zero, the peak value for overall
          | tracked memory usage was not output, as it is probably incorrect.  This is likely due
          | to a missing aims_deallocate statement in the source code, which should be otherwise
          | harmless.
          |
          Note:  These values currently only include a subset of arrays which are explicitly tracked.
          The "true" memory usage will be greater.

          Have a nice day.
------------------------------------------------------------
