------------------------------------------------------------
          Invoking FHI-aims ...

          When using FHI-aims, please cite the following reference:

            Volker Blum, Ralf Gehrke, Felix Hanke, Paula Havu,
            Ville Havu, Xinguo Ren, Karsten Reuter, and Matthias Scheffler,
            'Ab Initio Molecular Simulations with Numeric Atom-Centered Orbitals',
            Computer Physics Communications 180, 2175-2196 (2009)

          In addition, many other developments in FHI-aims are likely important for
          your particular application. A partial list of references is given at the end of
          this file. Thank you for giving credit to the authors of these developments.

          For any questions about FHI-aims, please visit our slack channel at

            https://fhi-aims.slack.com

          and our main development and support site at

            https://aims-git.rz-berlin.mpg.de .

          The latter site, in particular, has a wiki to collect information, as well
          as an issue tracker to log discussions, suggest improvements, and report issues
          or bugs. https://aims-git.rz-berlin.mpg.de is also the main development site
          of the project and all new and updated code versions can be obtained there.
          Please send an email to aims-coordinators@fhi-berlin.mpg.de and we will add
          you to these sites. They are for you and everyone is welcome there.

------------------------------------------------------------



  Date     :  20230119, Time     :  173235.975
  Time zero on CPU 1             :   0.379294000000000E+00  s.
  Internal wall clock time zero  :           443381555.975  s.

  FHI-aims created a unique identifier for this run for later identification
  aims_uuid : ADF1881D-0ABD-445A-A3AD-0A52FF1556BF

  Build configuration of the current instance of FHI-aims
  -------------------------------------------------------
  FHI-aims version      : 220829
  Commit number         : 9895fc21d
  CMake host system     : Linux-5.3.18-150300.59.68-default
  CMake version         : 3.17.0
  Fortran compiler      : /mpcdf/soft/SLE_15/packages/x86_64/intel_oneapi/2021.3/mpi/2021.3.0/bin/mpiifort (Intel) version 20.2.3.20210609
  Fortran compiler flags: -O3 -ip -fp-model precise
  C compiler            : /mpcdf/soft/SLE_15/packages/x86_64/intel/2021.3.0/bin/icc (Intel) version 20.2.3.20210609
  C compiler flags      : -O3 -ip -fp-model precise -std=gnu99
  CUDA compiler         : /mpcdf/soft/SLE_15/packages/x86_64/cuda/11.6.2/bin/nvcc
  CUDA compiler flags   : -O3 -DAdd_ -lcublas
  ELPA2 kernel          : AVX512
  Using MPI
  Using ScaLAPACK
  Using LibXC
  Using CUDA
  Using i-PI
  Using RLSY
  Linking against: /mpcdf/soft/SLE_15/packages/x86_64/cuda/11.6.2/lib64/libcublas.so
                   /mpcdf/soft/SLE_15/packages/x86_64/cuda/11.6.2/lib64/libcudart.so
                   /mpcdf/soft/SLE_15/packages/x86_64/intel_oneapi/2021.3/mkl/latest/lib/intel64/libmkl_intel_lp64.so
                   /mpcdf/soft/SLE_15/packages/x86_64/intel_oneapi/2021.3/mkl/latest/lib/intel64/libmkl_sequential.so
                   /mpcdf/soft/SLE_15/packages/x86_64/intel_oneapi/2021.3/mkl/latest/lib/intel64/libmkl_core.so
                   /mpcdf/soft/SLE_15/packages/x86_64/intel_oneapi/2021.3/mkl/latest/lib/intel64/libmkl_blacs_intelmpi_lp64.so
                   /mpcdf/soft/SLE_15/packages/x86_64/intel_oneapi/2021.3/mkl/latest/lib/intel64/libmkl_scalapack_lp64.so

  Using       18 parallel tasks.
  Task        0 on host adag003 reporting.
  Task        1 on host adag003 reporting.
  Task        2 on host adag003 reporting.
  Task        3 on host adag003 reporting.
  Task        4 on host adag003 reporting.
  Task        5 on host adag003 reporting.
  Task        6 on host adag003 reporting.
  Task        7 on host adag003 reporting.
  Task        8 on host adag003 reporting.
  Task        9 on host adag003 reporting.
  Task       10 on host adag003 reporting.
  Task       11 on host adag003 reporting.
  Task       12 on host adag003 reporting.
  Task       13 on host adag003 reporting.
  Task       14 on host adag003 reporting.
  Task       15 on host adag003 reporting.
  Task       16 on host adag003 reporting.
  Task       17 on host adag003 reporting.

  Performing system and environment tests:
  | Environment variable OMP_NUM_THREADS correctly set to 1.
  | Checking for ScaLAPACK...
  | Testing pdtran()...
  | All pdtran() tests passed.

  Obtaining array dimensions for all initial allocations:
  
  -----------------------------------------------------------------------
  Parsing control.in (first pass over file, find array dimensions only).
  The contents of control.in will be repeated verbatim below
  unless switched off by setting 'verbatim_writeout .false.' .
  in the first line of control.in .
  -----------------------------------------------------------------------
  
  #
  # Input for polarizability replays on generic oligoacene molecular crystals (light settings,  LDA+MBD).
  #
  #########################################################################################
  #
  #  Physical model
  #
    xc                 pw-lda
    spin               none
    relativistic       none
    charge             0.0
    k_grid 	     2 1 1
    DFPT dielectric
  #
  #  GPU acceleration
  #
  # Turns on GPU acceleration everywhere
    use_gpu
  
  # Turns OFF GPU acceleration of ELPA - may be necessary if GPU ELPA is slow
    elsi_elpa_gpu 0
  #
  #  Relaxation
  #
  #  relax_geometry trm 1E-3
  #  relax_unit_cell fixed_angles
  #
  #  SCF convergence        #
    charge_mix_param   0.75
    #sc_accuracy_rho 1E-4
  #
  # i-PI communication
  #
  compute_forces .false.
  # use_pimd_wrapper 130.183.223.27 26118
  #communicate_pimd_wrapper polarizability
  #output_level MD_light
  #
  # Output SALTED info
    ri_density_restart write
    ri_rho1 write
    ri_full_output .true.
  #  sc_accuracy_rho    1d-6
    default_prodbas_acc 1e-6
    default_max_l_prodbas 6
  #
  #
  ################################################################################
  #
  #  FHI-aims code project
  #  VB, Fritz-Haber Institut, 2009
  #
  #  Suggested "light" defaults for H atom (to be pasted into control.in file)
  #  Be sure to double-check any results obtained with these settings for post-processing,
  #  e.g., with the "tight" defaults and larger basis sets.
  #
  ################################################################################
    species        H
  #     global species definitions
      nucleus             1
      mass                1.00794
  #
      l_hartree           4
  #
      cut_pot             3.5  1.5  1.0
      basis_dep_cutoff    1e-4
  #
      radial_base         24 5.0
      radial_multiplier   1
      angular_grids       specified
        division   0.2421   50
        division   0.3822  110
        division   0.4799  194
        division   0.5341  302
  #      division   0.5626  434
  #      division   0.5922  590
  #      division   0.6542  770
  #      division   0.6868 1202
  #      outer_grid  770
        outer_grid  302
  ################################################################################
  #
  #  Definition of "minimal" basis
  #
  ################################################################################
  #     valence basis states
      valence      1  s   1.
  #     ion occupancy
      ion_occ      1  s   0.5
  ################################################################################
  #
  #  Suggested additional basis functions. For production calculations,
  #  uncomment them one after another (the most important basis functions are
  #  listed first).
  #
  #  Basis constructed for dimers: 0.5 A, 0.7 A, 1.0 A, 1.5 A, 2.5 A
  #
  ################################################################################
  #  "First tier" - improvements: -1014.90 meV to -62.69 meV
       hydro 2 s 2.1
       hydro 2 p 3.5
  #  "Second tier" - improvements: -12.89 meV to -1.83 meV
  #     hydro 1 s 0.85
  #     hydro 2 p 3.7
  #     hydro 2 s 1.2
  #     hydro 3 d 7
  #  "Third tier" - improvements: -0.25 meV to -0.12 meV
  #     hydro 4 f 11.2
  #     hydro 3 p 4.8
  #     hydro 4 d 9
  #     hydro 3 s 3.2
  ################################################################################
  ################################################################################
  #
  #  FHI-aims code project
  #  VB, Fritz-Haber Institut, 2009
  #
  #  Suggested "light" defaults for C atom (to be pasted into control.in file)
  #  Be sure to double-check any results obtained with these settings for post-processing,
  #  e.g., with the "tight" defaults and larger basis sets.
  #
  ################################################################################
    species        C
  #     global species definitions
      nucleus             6
      mass                12.0107
  #
      l_hartree           4
  #
      cut_pot             3.5  1.5  1.0
      basis_dep_cutoff    1e-4
  #
      radial_base         34 5.0
      radial_multiplier   1
      angular_grids specified
        division   0.3326   50
        division   0.5710  110
        division   0.7727  194
        division   0.8772  302
  #      division   0.9334  434
  #      division   0.9625  590
  #      division   0.9924  770
  #      division   1.0230  974
  #      division   1.4589 1202
  #     outer_grid  974
       outer_grid 302
  ################################################################################
  #
  #  Definition of "minimal" basis
  #
  ################################################################################
  #     valence basis states
      valence      2  s   2.
      valence      2  p   2.
  #     ion occupancy
      ion_occ      2  s   1.
      ion_occ      2  p   1.
  ################################################################################
  #
  #  Suggested additional basis functions. For production calculations,
  #  uncomment them one after another (the most important basis functions are
  #  listed first).
  #
  #  Constructed for dimers: 1.0 A, 1.25 A, 1.5 A, 2.0 A, 3.0 A
  #
  ################################################################################
  #  "First tier" - improvements: -1214.57 meV to -155.61 meV
       hydro 2 p 1.7
       hydro 3 d 6
       hydro 2 s 4.9
  #  "Second tier" - improvements: -67.75 meV to -5.23 meV
  #     hydro 4 f 9.8
  #     hydro 3 p 5.2
  #     hydro 3 s 4.3
  #     hydro 5 g 14.4
  #     hydro 3 d 6.2
  #  "Third tier" - improvements: -2.43 meV to -0.60 meV
  #     hydro 2 p 5.6
  #     hydro 2 s 1.4
  #     hydro 3 d 4.9
  #     hydro 4 f 11.2
  #  "Fourth tier" - improvements: -0.39 meV to -0.18 meV
  #     hydro 2 p 2.1
  #     hydro 5 g 16.4
  #     hydro 4 d 13.2
  #     hydro 3 s 13.6
  #     hydro 4 f 17.6
  #  Further basis functions - improvements: -0.08 meV and below
  #     hydro 3 s 2
  #     hydro 3 p 6
  #     hydro 4 d 20
  
  -----------------------------------------------------------------------
  Completed first pass over input file control.in .
  -----------------------------------------------------------------------
  
  
  -----------------------------------------------------------------------
  Parsing geometry.in (first pass over file, find array dimensions only).
  The contents of geometry.in will be repeated verbatim below
  unless switched off by setting 'verbatim_writeout .false.' .
  in the first line of geometry.in .
  -----------------------------------------------------------------------
  
  #=======================================================
  # FHI-aims file: /ada/ptmp/mpsd/alewis/naphthalene/qmdata/data/geoms/60.in
  # Created using the Atomic Simulation Environment (ASE)
  # Thu Jan 19 15:19:16 2023
  #=======================================================
  lattice_vector 8.1020000000000003 0.0000000000000000 0.0000000000000000
  lattice_vector 0.0000000000000000 11.8800000000000008 0.0000000000000000
  lattice_vector -9.7850918486534706 0.0000000000000000 14.2571119625755713
  atom -0.7909990000000000 0.0644919000000000 2.5155300000000000 C
  atom 0.2459610000000000 3.1115599999999999 4.8231299999999999 C
  atom 4.2816700000000001 6.0695699999999997 4.9044499999999998 C
  atom 3.2188099999999999 2.7113700000000001 2.2985799999999998 C
  atom 0.0136787000000000 0.9060490000000000 1.7684100000000000 C
  atom -0.5750760000000000 3.9363999999999999 5.5404099999999996 C
  atom 3.4488900000000000 5.1879999999999997 5.5517500000000002 C
  atom 4.0394199999999998 1.9092199999999999 1.5026400000000000 C
  atom 0.3379500000000000 0.6139980000000000 0.4225940000000000 C
  atom -0.9654450000000000 3.5590799999999998 6.8594400000000002 C
  atom 3.0691500000000000 5.3827699999999998 6.8793600000000001 C
  atom 4.3901199999999996 2.4003100000000002 0.1960350000000000 C
  atom -3.8200799999999999 1.4507699999999999 6.4999700000000002 C
  atom 3.1150400000000000 4.4783299999999997 0.6228140000000000 C
  atom 7.0687699999999998 4.4650400000000001 0.7582820000000000 C
  atom 0.2214350000000000 1.4510000000000001 6.6065800000000001 C
  atom -3.4735200000000002 0.9976330000000000 5.2438700000000003 C
  atom 2.7704499999999999 3.9676999999999998 1.8512400000000000 C
  atom 6.7510000000000003 4.8604599999999998 2.0450200000000001 C
  atom 0.5989260000000000 1.8465300000000000 5.3379300000000001 C
  atom -1.0176799999999999 0.3807230000000000 3.5278800000000001 H
  atom 0.5532260000000000 3.3835199999999999 3.8194599999999999 H
  atom 4.5599299999999996 5.8984199999999998 3.8921800000000002 H
  atom 2.9258299999999999 2.3767499999999999 3.2976000000000001 H
  atom 0.3882480000000000 1.8438800000000000 2.2033999999999998 H
  atom -0.8450310000000000 4.9053100000000001 5.1614399999999998 H
  atom 3.2096800000000001 4.2073799999999997 5.0987499999999999 H
  atom 4.4807499999999996 0.9367620000000000 1.7812200000000000 H
  atom -3.4786299999999999 2.4119999999999999 6.8819400000000002 H
  atom 2.7894000000000001 5.4541500000000003 0.3011470000000000 H
  atom 6.6233399999999998 3.5909900000000001 0.3368090000000000 H
  atom 0.5769150000000000 0.4773960000000000 6.9728000000000003 H
  atom -2.8731499999999999 1.6488799999999999 4.6054300000000001 H
  atom 2.2220200000000001 4.5650700000000004 2.5764700000000000 H
  atom 6.1499499999999996 4.1578200000000001 2.6255299999999999 H
  atom 1.2288600000000001 1.1621600000000001 4.7719300000000002 H
  atom -5.7219100000000003 0.2167320000000000 9.4515300000000000 C
  atom -4.8263299999999996 3.3022100000000001 11.8916000000000004 C
  atom -0.6409360000000000 5.6559400000000002 12.0851000000000006 C
  atom -1.6501500000000000 2.9025099999999999 9.5236999999999998 C
  atom -5.0104499999999996 1.0573200000000000 8.6514299999999995 C
  atom -5.6369300000000004 4.0851899999999999 12.6739999999999995 C
  atom -1.4859300000000000 4.8491099999999996 12.8594000000000008 C
  atom -0.8849830000000000 2.0189800000000000 8.7710699999999999 C
  atom -4.5788700000000002 0.6207020000000000 7.3693700000000000 C
  atom -5.9024400000000004 3.6650100000000001 13.9963999999999995 C
  atom -1.8780100000000000 5.2475600000000000 14.1795000000000009 C
  atom -0.5205180000000000 2.3256600000000001 7.4283700000000001 C
  atom -8.6389300000000002 1.4538899999999999 13.8848000000000003 C
  atom -1.7448900000000001 4.4238700000000000 7.6733099999999999 C
  atom 2.2737300000000000 4.4705899999999996 7.6141199999999998 C
  atom -4.5956999999999999 1.6061700000000001 13.5845000000000002 C
  atom -8.2903800000000007 1.1303000000000001 12.5838000000000001 C
  atom -2.1362199999999998 4.1189200000000001 8.9587699999999995 C
  atom 1.8198900000000000 4.7949500000000000 8.8827700000000007 C
  atom -4.2539199999999999 2.0630999999999999 12.3422000000000001 C
  atom -6.1941800000000002 0.5694750000000000 10.3813999999999993 H
  atom -4.4877500000000001 3.6594600000000002 10.9185999999999996 H
  atom -0.3856750000000000 5.3271199999999999 11.0854999999999997 H
  atom -1.9296100000000000 2.6055899999999999 10.5153999999999996 H
  atom -4.7639899999999997 2.0758500000000000 8.9077999999999999 H
  atom -6.0091700000000001 5.0719200000000004 12.3712000000000000 H
  atom -1.7535400000000001 3.8472200000000001 12.5149000000000008 H
  atom -0.5946930000000000 1.1007899999999999 9.2750599999999999 H
  atom -8.2820199999999993 2.4312299999999998 14.2497000000000007 H
  atom -1.9688000000000001 5.3950500000000003 7.2546799999999996 H
  atom 1.9845400000000000 3.5508500000000001 7.0970500000000003 H
  atom -4.2716099999999999 0.6162710000000000 13.9240999999999993 H
  atom -7.7550999999999997 1.8374299999999999 11.9616000000000007 H
  atom -2.8294199999999998 4.7727800000000000 9.5127799999999993 H
  atom 1.1528900000000000 4.1517999999999997 9.4208499999999997 H
  atom -3.6121300000000001 1.4981599999999999 11.6615000000000002 H
  atom -0.9014420000000000 6.1136699999999999 2.4776799999999999 C
  atom 0.1838000000000000 9.0683299999999996 4.8626199999999997 C
  atom 4.2358799999999999 11.6090999999999998 4.8035100000000002 C
  atom 3.2208800000000002 8.6677999999999997 2.2816700000000001 C
  atom -0.0647689000000000 6.8724900000000000 1.7094199999999999 C
  atom -0.5632800000000000 9.9302200000000003 5.6268099999999999 C
  atom 3.4695600000000000 10.7974999999999994 5.6074200000000003 C
  atom 4.0367800000000003 7.8571299999999997 1.5101899999999999 C
  atom 0.3029100000000000 6.5091799999999997 0.4000220000000000 C
  atom -0.8996680000000000 9.5879200000000004 6.9595200000000004 C
  atom 3.1461999999999999 11.1832999999999991 6.9316100000000000 C
  atom 4.3448599999999997 8.2357999999999993 0.1844840000000000 C
  atom -3.7272200000000000 7.4796600000000000 6.8318800000000000 C
  atom 3.0906899999999999 10.3214000000000006 0.4969310000000000 C
  atom 7.1252599999999999 10.4199999999999999 0.6598180000000000 C
  atom 0.2501580000000000 7.4614599999999998 6.6383999999999999 C
  atom -3.3887200000000002 7.2503399999999996 5.5350799999999998 C
  atom 2.7717299999999998 9.9388600000000000 1.7609300000000001 C
  atom 6.8289000000000000 10.7426999999999992 1.9818199999999999 C
  atom 0.5983440000000000 7.8343299999999996 5.3646000000000003 C
  atom -1.1547099999999999 6.4876800000000001 3.4743900000000001 H
  atom 0.4663410000000000 9.3613900000000001 3.8398200000000000 H
  atom 4.4282599999999999 11.2566000000000006 3.7644700000000002 H
  atom 3.0291199999999998 8.4513400000000001 3.3129700000000000 H
  atom 0.3057090000000000 7.8437700000000001 2.0586000000000002 H
  atom -1.0244700000000000 10.8393999999999995 5.2291400000000001 H
  atom 3.1166800000000001 9.8267900000000008 5.3063700000000003 H
  atom 4.4639800000000003 6.8857200000000001 1.8640200000000000 H
  atom -3.3435600000000001 8.3539999999999992 7.3623000000000003 H
  atom 2.7969300000000001 11.2796000000000003 0.0713460000000000 H
  atom 6.7154499999999997 9.5720200000000002 0.1465620000000000 H
  atom 0.5927260000000000 6.5016400000000001 7.0372300000000001 H
  atom -2.7830900000000001 7.9445800000000002 4.9572399999999996 H
  atom 2.1848999999999998 10.5993999999999993 2.4295100000000001 H
  atom 6.1146200000000004 10.1222999999999992 2.5506700000000002 H
  atom 1.1240600000000001 7.1847399999999997 4.6929100000000004 H
  atom -5.8218899999999998 5.9970900000000000 9.4911200000000004 C
  atom -4.8197900000000002 8.9904600000000006 11.8153000000000006 C
  atom -0.6748350000000000 11.8104999999999993 12.0208999999999993 C
  atom -1.4853799999999999 8.8455600000000008 9.6897699999999993 C
  atom -4.9585299999999997 6.8722099999999999 8.8461599999999994 C
  atom -5.5930200000000001 9.8180200000000006 12.6033000000000008 C
  atom -1.4685699999999999 10.9606999999999992 12.7759999999999998 C
  atom -0.7818640000000000 7.9946999999999999 8.8694400000000009 C
  atom -4.5495299999999999 6.5799399999999997 7.5374499999999998 C
  atom -5.8879000000000001 9.5087899999999994 13.9245999999999999 C
  atom -1.8279500000000000 11.2687000000000008 14.1109000000000009 C
  atom -0.4681220000000000 8.3232499999999998 7.5018300000000000 C
  atom -8.6634700000000002 7.3117900000000002 13.8522999999999996 C
  atom -1.5740900000000000 10.4641000000000002 7.8612099999999998 C
  atom 2.4279199999999999 10.3292999999999999 7.8003299999999998 C
  atom -4.6646099999999997 7.4029999999999996 13.6318999999999999 C
  atom -8.2493099999999995 6.8877699999999997 12.6211000000000002 C
  atom -1.9012899999999999 10.0675000000000008 9.1290999999999993 C
  atom 2.0679300000000000 10.7582000000000004 9.0576600000000003 C
  atom -4.3319599999999996 7.7627600000000001 12.3401999999999994 C
  atom -6.1252300000000002 6.2280400000000000 10.5137000000000000 H
  atom -4.5352699999999997 9.2745700000000006 10.8066999999999993 H
  atom -0.3834480000000000 11.6226000000000003 10.9796999999999993 H
  atom -1.7252600000000000 8.5645299999999995 10.7396999999999991 H
  atom -4.5687300000000004 7.7495099999999999 9.3273399999999995 H
  atom -5.8880800000000004 10.7718000000000007 12.2256999999999998 H
  atom -1.7897099999999999 10.0470000000000006 12.3561999999999994 H
  atom -0.4749670000000000 7.0085499999999996 9.2408000000000001 H
  atom -8.3208800000000007 8.2551900000000007 14.2621000000000002 H
  atom -1.8519600000000001 11.4595000000000002 7.5385700000000000 H
  atom 2.1607799999999999 9.3230299999999993 7.4489799999999997 H
  atom -4.3079099999999997 6.4580599999999997 14.0791000000000004 H
  atom -7.6223500000000000 7.5408999999999997 12.0610999999999997 H
  atom -2.4236599999999999 10.7944999999999993 9.7388899999999996 H
  atom 1.4683400000000000 10.1364000000000001 9.7108000000000008 H
  atom -3.6976399999999998 7.1098999999999997 11.7117000000000004 H
  
  -----------------------------------------------------------------------
  Completed first pass over input file geometry.in .
  -----------------------------------------------------------------------
  

  Basic array size parameters:
  | Number of species                 :        2
  | Number of atoms                   :      144
  | Number of lattice vectors         :        3
  | Max. basis fn. angular momentum   :        2
  | Max. atomic/ionic basis occupied n:        2
  | Max. number of basis fn. types    :        2
  | Max. radial fns per species/type  :        3
  | Max. logarithmic grid size        :     1277
  | Max. radial integration grid size :       34
  | Max. angular integration grid size:      302
  | Max. angular grid division number :        8
  | Radial grid for Hartree potential :     1277
  | Number of spin channels           :        1

------------------------------------------------------------
          Reading file control.in.
------------------------------------------------------------
  XC: Using Perdew-Wang parametrisation of Ceperley-Alder LDA.
  Spin treatment: No spin polarisation.
  Non-relativistic treatment of kinetic energy.
  Charge =   0.000000E+00: Neutral system requested explicitly.
  Found k-point grid:         2         1         1
  DFPT calculation will begin after the DFT/HF calculation.
  Charge density mixing - mixing parameter:     0.7500
  Forces will not be computed.
 
  Reading configuration options for species H                   .
  | Found nuclear charge :   1.0000
  | Found atomic mass :    1.00794000000000      amu
  | Found l_max for Hartree potential  :   4
  | Found cutoff potl. onset [A], width [A], scale factor :    3.50000    1.50000    1.00000
  | Threshold for basis-dependent cutoff potential is   0.100000E-03
  | Found data for basic radial integration grid :    24 points, outermost radius =    5.000 A
  | Found multiplier for basic radial grid :   1
  | Found angular grid specification: user-specified.
  | Specified grid contains     5 separate shells.
  | Check grid settings after all constraints further below.
  | Found free-atom valence shell :  1 s   1.000
  | No ionic wave fns used. Skipping ion_occ.
  | Found hydrogenic basis function :  2 s   2.100
  | Found hydrogenic basis function :  2 p   3.500
  Species H                   : Missing cutoff potential type.
  Defaulting to exp(1/x)/(1-x)^2 type cutoff potential.
  Species H : No 'logarithmic' tag. Using default grid for free atom:
  | Default logarithmic grid data [bohr] : 0.1000E-03 0.1000E+03 0.1012E+01
  Species H : On-site basis accuracy parameter (for Gram-Schmidt orthonormalisation) not specified.
  Using default value basis_acc =  0.1000000E-03.
  Species H                   : Using default innermost maximum threshold i_radial=  2 for radial functions.
  Species H                   : Default cutoff onset for free atom density etc. : 0.35000000E+01 AA.
  Species H                   : Basic radial grid will be enhanced according to radial_multiplier =   1, to contain    24 grid points.
 
  Reading configuration options for species C                   .
  | Found nuclear charge :   6.0000
  | Found atomic mass :    12.0107000000000      amu
  | Found l_max for Hartree potential  :   4
  | Found cutoff potl. onset [A], width [A], scale factor :    3.50000    1.50000    1.00000
  | Threshold for basis-dependent cutoff potential is   0.100000E-03
  | Found data for basic radial integration grid :    34 points, outermost radius =    5.000 A
  | Found multiplier for basic radial grid :   1
  | Found angular grid specification: user-specified.
  | Specified grid contains     5 separate shells.
  | Check grid settings after all constraints further below.
  | Found free-atom valence shell :  2 s   2.000
  | Found free-atom valence shell :  2 p   2.000
  | No ionic wave fns used. Skipping ion_occ.
  | No ionic wave fns used. Skipping ion_occ.
  | Found hydrogenic basis function :  2 p   1.700
  | Found hydrogenic basis function :  3 d   6.000
  | Found hydrogenic basis function :  2 s   4.900
  Species C                   : Missing cutoff potential type.
  Defaulting to exp(1/x)/(1-x)^2 type cutoff potential.
  Species C : No 'logarithmic' tag. Using default grid for free atom:
  | Default logarithmic grid data [bohr] : 0.1000E-03 0.1000E+03 0.1012E+01
  Species C : On-site basis accuracy parameter (for Gram-Schmidt orthonormalisation) not specified.
  Using default value basis_acc =  0.1000000E-03.
  Species C                   : Using default innermost maximum threshold i_radial=  2 for radial functions.
  Species C                   : Default cutoff onset for free atom density etc. : 0.35000000E+01 AA.
  Species C                   : Basic radial grid will be enhanced according to radial_multiplier =   1, to contain    34 grid points.
 
  Finished reading input file 'control.in'.
 
------------------------------------------------------------


------------------------------------------------------------
          Reading geometry description geometry.in.
------------------------------------------------------------
  | The smallest distance between any two atoms is         1.05556176 AA.
  | The first atom of this pair is atom number                    115 .
  | The second atom of this pair is atom number                   135 .
  | Wigner-Seitz cell of the first atom image           0     0     0 .
  | (The Wigner-Seitz cell of the second atom is 0 0 0  by definition.)

  Symmetry information by spglib:
  | Precision set to  0.1E-04
  | Number of Operations  : 1
  | Space group           : 1
  | International         : P1
  | Schoenflies           : C1^1
  Input structure read successfully.
  The structure contains      144 atoms,  and a total of        544.000 electrons.

  Input geometry:
  | Unit cell:
  |        8.10200000        0.00000000        0.00000000
  |        0.00000000       11.88000000        0.00000000
  |       -9.78509185        0.00000000       14.25711196
  | Atomic structure:
  |       Atom                x [A]            y [A]            z [A]
  |    1: Species C            -0.79099900        0.06449190        2.51553000
  |    2: Species C             0.24596100        3.11156000        4.82313000
  |    3: Species C             4.28167000        6.06957000        4.90445000
  |    4: Species C             3.21881000        2.71137000        2.29858000
  |    5: Species C             0.01367870        0.90604900        1.76841000
  |    6: Species C            -0.57507600        3.93640000        5.54041000
  |    7: Species C             3.44889000        5.18800000        5.55175000
  |    8: Species C             4.03942000        1.90922000        1.50264000
  |    9: Species C             0.33795000        0.61399800        0.42259400
  |   10: Species C            -0.96544500        3.55908000        6.85944000
  |   11: Species C             3.06915000        5.38277000        6.87936000
  |   12: Species C             4.39012000        2.40031000        0.19603500
  |   13: Species C            -3.82008000        1.45077000        6.49997000
  |   14: Species C             3.11504000        4.47833000        0.62281400
  |   15: Species C             7.06877000        4.46504000        0.75828200
  |   16: Species C             0.22143500        1.45100000        6.60658000
  |   17: Species C            -3.47352000        0.99763300        5.24387000
  |   18: Species C             2.77045000        3.96770000        1.85124000
  |   19: Species C             6.75100000        4.86046000        2.04502000
  |   20: Species C             0.59892600        1.84653000        5.33793000
  |   21: Species H            -1.01768000        0.38072300        3.52788000
  |   22: Species H             0.55322600        3.38352000        3.81946000
  |   23: Species H             4.55993000        5.89842000        3.89218000
  |   24: Species H             2.92583000        2.37675000        3.29760000
  |   25: Species H             0.38824800        1.84388000        2.20340000
  |   26: Species H            -0.84503100        4.90531000        5.16144000
  |   27: Species H             3.20968000        4.20738000        5.09875000
  |   28: Species H             4.48075000        0.93676200        1.78122000
  |   29: Species H            -3.47863000        2.41200000        6.88194000
  |   30: Species H             2.78940000        5.45415000        0.30114700
  |   31: Species H             6.62334000        3.59099000        0.33680900
  |   32: Species H             0.57691500        0.47739600        6.97280000
  |   33: Species H            -2.87315000        1.64888000        4.60543000
  |   34: Species H             2.22202000        4.56507000        2.57647000
  |   35: Species H             6.14995000        4.15782000        2.62553000
  |   36: Species H             1.22886000        1.16216000        4.77193000
  |   37: Species C            -5.72191000        0.21673200        9.45153000
  |   38: Species C            -4.82633000        3.30221000       11.89160000
  |   39: Species C            -0.64093600        5.65594000       12.08510000
  |   40: Species C            -1.65015000        2.90251000        9.52370000
  |   41: Species C            -5.01045000        1.05732000        8.65143000
  |   42: Species C            -5.63693000        4.08519000       12.67400000
  |   43: Species C            -1.48593000        4.84911000       12.85940000
  |   44: Species C            -0.88498300        2.01898000        8.77107000
  |   45: Species C            -4.57887000        0.62070200        7.36937000
  |   46: Species C            -5.90244000        3.66501000       13.99640000
  |   47: Species C            -1.87801000        5.24756000       14.17950000
  |   48: Species C            -0.52051800        2.32566000        7.42837000
  |   49: Species C            -8.63893000        1.45389000       13.88480000
  |   50: Species C            -1.74489000        4.42387000        7.67331000
  |   51: Species C             2.27373000        4.47059000        7.61412000
  |   52: Species C            -4.59570000        1.60617000       13.58450000
  |   53: Species C            -8.29038000        1.13030000       12.58380000
  |   54: Species C            -2.13622000        4.11892000        8.95877000
  |   55: Species C             1.81989000        4.79495000        8.88277000
  |   56: Species C            -4.25392000        2.06310000       12.34220000
  |   57: Species H            -6.19418000        0.56947500       10.38140000
  |   58: Species H            -4.48775000        3.65946000       10.91860000
  |   59: Species H            -0.38567500        5.32712000       11.08550000
  |   60: Species H            -1.92961000        2.60559000       10.51540000
  |   61: Species H            -4.76399000        2.07585000        8.90780000
  |   62: Species H            -6.00917000        5.07192000       12.37120000
  |   63: Species H            -1.75354000        3.84722000       12.51490000
  |   64: Species H            -0.59469300        1.10079000        9.27506000
  |   65: Species H            -8.28202000        2.43123000       14.24970000
  |   66: Species H            -1.96880000        5.39505000        7.25468000
  |   67: Species H             1.98454000        3.55085000        7.09705000
  |   68: Species H            -4.27161000        0.61627100       13.92410000
  |   69: Species H            -7.75510000        1.83743000       11.96160000
  |   70: Species H            -2.82942000        4.77278000        9.51278000
  |   71: Species H             1.15289000        4.15180000        9.42085000
  |   72: Species H            -3.61213000        1.49816000       11.66150000
  |   73: Species C            -0.90144200        6.11367000        2.47768000
  |   74: Species C             0.18380000        9.06833000        4.86262000
  |   75: Species C             4.23588000       11.60910000        4.80351000
  |   76: Species C             3.22088000        8.66780000        2.28167000
  |   77: Species C            -0.06476890        6.87249000        1.70942000
  |   78: Species C            -0.56328000        9.93022000        5.62681000
  |   79: Species C             3.46956000       10.79750000        5.60742000
  |   80: Species C             4.03678000        7.85713000        1.51019000
  |   81: Species C             0.30291000        6.50918000        0.40002200
  |   82: Species C            -0.89966800        9.58792000        6.95952000
  |   83: Species C             3.14620000       11.18330000        6.93161000
  |   84: Species C             4.34486000        8.23580000        0.18448400
  |   85: Species C            -3.72722000        7.47966000        6.83188000
  |   86: Species C             3.09069000       10.32140000        0.49693100
  |   87: Species C             7.12526000       10.42000000        0.65981800
  |   88: Species C             0.25015800        7.46146000        6.63840000
  |   89: Species C            -3.38872000        7.25034000        5.53508000
  |   90: Species C             2.77173000        9.93886000        1.76093000
  |   91: Species C             6.82890000       10.74270000        1.98182000
  |   92: Species C             0.59834400        7.83433000        5.36460000
  |   93: Species H            -1.15471000        6.48768000        3.47439000
  |   94: Species H             0.46634100        9.36139000        3.83982000
  |   95: Species H             4.42826000       11.25660000        3.76447000
  |   96: Species H             3.02912000        8.45134000        3.31297000
  |   97: Species H             0.30570900        7.84377000        2.05860000
  |   98: Species H            -1.02447000       10.83940000        5.22914000
  |   99: Species H             3.11668000        9.82679000        5.30637000
  |  100: Species H             4.46398000        6.88572000        1.86402000
  |  101: Species H            -3.34356000        8.35400000        7.36230000
  |  102: Species H             2.79693000       11.27960000        0.07134600
  |  103: Species H             6.71545000        9.57202000        0.14656200
  |  104: Species H             0.59272600        6.50164000        7.03723000
  |  105: Species H            -2.78309000        7.94458000        4.95724000
  |  106: Species H             2.18490000       10.59940000        2.42951000
  |  107: Species H             6.11462000       10.12230000        2.55067000
  |  108: Species H             1.12406000        7.18474000        4.69291000
  |  109: Species C            -5.82189000        5.99709000        9.49112000
  |  110: Species C            -4.81979000        8.99046000       11.81530000
  |  111: Species C            -0.67483500       11.81050000       12.02090000
  |  112: Species C            -1.48538000        8.84556000        9.68977000
  |  113: Species C            -4.95853000        6.87221000        8.84616000
  |  114: Species C            -5.59302000        9.81802000       12.60330000
  |  115: Species C            -1.46857000       10.96070000       12.77600000
  |  116: Species C            -0.78186400        7.99470000        8.86944000
  |  117: Species C            -4.54953000        6.57994000        7.53745000
  |  118: Species C            -5.88790000        9.50879000       13.92460000
  |  119: Species C            -1.82795000       11.26870000       14.11090000
  |  120: Species C            -0.46812200        8.32325000        7.50183000
  |  121: Species C            -8.66347000        7.31179000       13.85230000
  |  122: Species C            -1.57409000       10.46410000        7.86121000
  |  123: Species C             2.42792000       10.32930000        7.80033000
  |  124: Species C            -4.66461000        7.40300000       13.63190000
  |  125: Species C            -8.24931000        6.88777000       12.62110000
  |  126: Species C            -1.90129000       10.06750000        9.12910000
  |  127: Species C             2.06793000       10.75820000        9.05766000
  |  128: Species C            -4.33196000        7.76276000       12.34020000
  |  129: Species H            -6.12523000        6.22804000       10.51370000
  |  130: Species H            -4.53527000        9.27457000       10.80670000
  |  131: Species H            -0.38344800       11.62260000       10.97970000
  |  132: Species H            -1.72526000        8.56453000       10.73970000
  |  133: Species H            -4.56873000        7.74951000        9.32734000
  |  134: Species H            -5.88808000       10.77180000       12.22570000
  |  135: Species H            -1.78971000       10.04700000       12.35620000
  |  136: Species H            -0.47496700        7.00855000        9.24080000
  |  137: Species H            -8.32088000        8.25519000       14.26210000
  |  138: Species H            -1.85196000       11.45950000        7.53857000
  |  139: Species H             2.16078000        9.32303000        7.44898000
  |  140: Species H            -4.30791000        6.45806000       14.07910000
  |  141: Species H            -7.62235000        7.54090000       12.06110000
  |  142: Species H            -2.42366000       10.79450000        9.73889000
  |  143: Species H             1.46834000       10.13640000        9.71080000
  |  144: Species H            -3.69764000        7.10990000       11.71170000

  Lattice parameters for 3D lattice (in Angstroms) :     8.102000   11.880000   17.292000
  Angle(s) between unit vectors (in degrees)       :    90.000000  124.463000   90.000000


  Quantities derived from the lattice vectors (in Angstrom^-1):
  | Reciprocal lattice vector 1:  0.775510  0.000000  0.532257
  | Reciprocal lattice vector 2:  0.000000  0.528888  0.000000
  | Reciprocal lattice vector 3: -0.000000  0.000000  0.440705
  | Unit cell volume                               :   0.137227E+04  Angstrom^3

  Fractional coordinates:
                         L1                L2                L3
       atom_frac         0.11546361        0.00542861        0.17644036  C
       atom_frac         0.43893145        0.26191582        0.33829642  C
       atom_frac         0.94393285        0.51090657        0.34400024  C
       atom_frac         0.59200145        0.22822980        0.16122340  C
       atom_frac         0.15149254        0.07626675        0.12403704  C
       atom_frac         0.39835556        0.33134680        0.38860675  C
       atom_frac         0.89597948        0.43670034        0.38940215  C
       atom_frac         0.62586124        0.16070875        0.10539582  C
       atom_frac         0.07751039        0.05168333        0.02964093  C
       atom_frac         0.46191044        0.29958586        0.48112409  C
       atom_frac         0.96157308        0.45309512        0.48252129  C
       atom_frac         0.55846270        0.20204630        0.01374998  C
       atom_frac         0.07912221        0.12211869        0.45591071  C
       atom_frac         0.43723726        0.37696380        0.04368444  C
       atom_frac         0.93670725        0.37584512        0.05318623  C
       atom_frac         0.58698258        0.12213805        0.46338838  C
       atom_frac         0.01549103        0.08397584        0.36780731  C
       atom_frac         0.49876729        0.33398148        0.12984677  C
       atom_frac         1.00648726        0.40912963        0.14343859  C
       atom_frac         0.52610597        0.15543182        0.37440472  C
       atom_frac         0.17324264        0.03204739        0.24744703  H
       atom_frac         0.39183389        0.28480808        0.26789858  H
       atom_frac         0.89252680        0.49650000        0.27299919  H
       atom_frac         0.64046824        0.20006313        0.23129509  H
       atom_frac         0.23457280        0.15520875        0.15454743  H
       atom_frac         0.33293299        0.41290488        0.36202563  H
       atom_frac         0.82808048        0.35415657        0.35762853  H
       atom_frac         0.70393184        0.07885202        0.12493554  H
       atom_frac         0.15362328        0.20303030        0.48270225  H
       atom_frac         0.36979590        0.45910354        0.02112258  H
       atom_frac         0.84602596        0.30227189        0.02362393  H
       atom_frac         0.66188112        0.04018485        0.48907521  H
       atom_frac         0.03550943        0.13879461        0.32302685  H
       atom_frac         0.49251174        0.38426515        0.18071472  H
       atom_frac         0.98147760        0.34998485        0.18415581  H
       atom_frac         0.55590983        0.09782492        0.33470523  H
       atom_frac         0.09441669        0.01824343        0.66293440  C
       atom_frac         0.41165622        0.27796380        0.83408197  C
       atom_frac         0.94463560        0.47608923        0.84765414  C
       atom_frac         0.60309263        0.24431902        0.66799644  C
       atom_frac         0.11445210        0.08900000        0.60681504  C
       atom_frac         0.37788493        0.34387121        0.88895984  C
       atom_frac         0.90593303        0.40817424        0.90196388  C
       atom_frac         0.63377814        0.16994781        0.61520664  C
       atom_frac         0.05911552        0.05224764        0.51689080  C
       atom_frac         0.45713617        0.30850253        0.98171355  C
       atom_frac         0.96936736        0.44171380        0.99455626  C
       atom_frac         0.56502091        0.19576263        0.52102908  C
       atom_frac         0.10992752        0.12238131        0.97388588  C
       atom_frac         0.43465037        0.37237963        0.53820928  C
       atom_frac         0.92563976        0.37631229        0.53405767  C
       atom_frac         0.58352971        0.13519949        0.95282271  C
       atom_frac         0.04273842        0.09514310        0.88263318  C
       atom_frac         0.49524287        0.34671044        0.62837200  C
       atom_frac         0.97709290        0.40361532        0.62304133  C
       atom_frac         0.52047756        0.17366162        0.86568725  C
       atom_frac         0.11489660        0.04793561        0.72815589  H
       atom_frac         0.37102185        0.30803535        0.76583533  H
       atom_frac         0.89146416        0.44841077        0.77754177  H
       atom_frac         0.65260806        0.21932576        0.73755470  H
       atom_frac         0.16658917        0.17473485        0.62479695  H
       atom_frac         0.30629015        0.42692929        0.86772132  H
       atom_frac         0.84371989        0.32384007        0.87780050  H
       atom_frac         0.71230119        0.09265909        0.65055672  H
       atom_frac         0.18489074        0.20464899        0.99948012  H
       atom_frac         0.37155131        0.45412879        0.50884639  H
       atom_frac         0.84614446        0.29889310        0.49779016  H
       atom_frac         0.65229888        0.05187466        0.97664240  H
       atom_frac         0.05609872        0.15466582        0.83899180  H
       atom_frac         0.45661463        0.40174916        0.66723050  H
       atom_frac         0.94034898        0.34947811        0.66078249  H
       atom_frac         0.54202839        0.12610774        0.81794265  H
       atom_frac         0.09862571        0.51461869        0.17378555  C
       atom_frac         0.43460439        0.76332744        0.34106627  C
       atom_frac         0.92973041        0.97719697        0.33692027  C
       atom_frac         0.59082447        0.72961279        0.16003732  C
       atom_frac         0.13681292        0.57849242        0.11989946  C
       atom_frac         0.40713055        0.83587710        0.39466689  C
       atom_frac         0.90324658        0.90888047        0.39330686  C
       atom_frac         0.62617497        0.66137458        0.10592538  C
       atom_frac         0.07127343        0.54791077        0.02805772  C
       atom_frac         0.47850696        0.80706397        0.48814374  C
       atom_frac         0.97550924        0.94135522        0.48618612  C
       atom_frac         0.55189793        0.69324916        0.01293979  C
       atom_frac         0.11870009        0.62960101        0.47919102  C
       atom_frac         0.42356812        0.86880471        0.03485496  C
       atom_frac         0.93533859        0.87710438        0.04627992  C
       atom_frac         0.59322326        0.62806902        0.46562025  C
       atom_frac         0.05062634        0.61029798        0.38823291  C
       atom_frac         0.49127501        0.83660438        0.12351239  C
       atom_frac         1.01074842        0.90426768        0.13900571  C
       atom_frac         0.52829338        0.65945539        0.37627536  C
       atom_frac         0.15179833        0.54610101        0.24369522  H
       atom_frac         0.38283472        0.78799579        0.26932664  H
       atom_frac         0.86545678        0.94752525        0.26404155  H
       atom_frac         0.65451896        0.71139226        0.23237315  H
       atom_frac         0.21211912        0.66025000        0.14439109  H
       atom_frac         0.31652045        0.91240741        0.36677414  H
       atom_frac         0.83418958        0.82717088        0.37219109  H
       atom_frac         0.70887607        0.57960606        0.13074317  H
       atom_frac         0.21098637        0.70319865        0.51639491  H
       atom_frac         0.35125857        0.94946128        0.00500424  H
       atom_frac         0.84127869        0.80572559        0.01027992  H
       atom_frac         0.66929056        0.54727609        0.49359436  H
       atom_frac         0.07642747        0.66873569        0.34770296  H
       atom_frac         0.47548099        0.89220539        0.17040688  H
       atom_frac         0.97077546        0.85204545        0.17890510  H
       atom_frac         0.53628087        0.60477609        0.32916274  H
       atom_frac         0.08543025        0.50480556        0.66571126  C
       atom_frac         0.40599996        0.75677273        0.82873025  C
       atom_frac         0.93501311        0.99414983        0.84315113  C
       atom_frac         0.63749758        0.74457576        0.67964466  C
       atom_frac         0.13735622        0.57846886        0.62047349  C
       atom_frac         0.37731549        0.82643266        0.88400091  C
       atom_frac         0.90101079        0.92261785        0.89611417  C
       atom_frac         0.65483879        0.67295455        0.62210636  C
       atom_frac         0.07697512        0.55386700        0.52868000  C
       atom_frac         0.45284852        0.80040320        0.97667747  C
       atom_frac         0.96973489        0.94854377        0.98974463  C
       atom_frac         0.57771085        0.70061027        0.52618160  C
       atom_frac         0.10414552        0.61547054        0.97160631  C
       atom_frac         0.47164882        0.88081650        0.55138867  C
       atom_frac         0.96044495        0.86946970        0.54711852  C
       atom_frac         0.57903971        0.62314815        0.95614736  C
       atom_frac         0.05096727        0.57977862        0.88524941  C
       atom_frac         0.53866829        0.84743266        0.64031902  C
       atom_frac         1.02252271        0.90557239        0.63530819  C
       atom_frac         0.51067595        0.65343098        0.86554697  C
       atom_frac         0.13461414        0.52424579        0.73743547  H
       atom_frac         0.35567744        0.78068771        0.75798661  H
       atom_frac         0.88277658        0.97833333        0.77012091  H
       atom_frac         0.69683096        0.72092003        0.75328720  H
       atom_frac         0.22622916        0.65231566        0.65422366  H
       atom_frac         0.30891036        0.90671717        0.85751589  H
       atom_frac         0.82581188        0.84570707        0.86666921  H
       atom_frac         0.72417632        0.58994529        0.64815371  H
       atom_frac         0.18114482        0.69488131        1.00034986  H
       atom_frac         0.41002112        0.96460438        0.52875856  H
       atom_frac         0.89770954        0.78476684        0.52247468  H
       atom_frac         0.66094875        0.54360774        0.98751416  H
       atom_frac         0.08091233        0.63475589        0.84597077  H
       atom_frac         0.52585016        0.90862795        0.68308996  H
       atom_frac         1.00384583        0.85323232        0.68111971  H
       atom_frac         0.53572671        0.59847643        0.82146370  H

 
  Finished reading input file 'geometry.in'.
 

 
  Consistency checks for stacksize environment parameter are next.
 
  | Maximum stacksize for task 0: unlimited
  | Maximum stacksize for task 1: unlimited
  | Maximum stacksize for task 2: unlimited
  | Maximum stacksize for task 3: unlimited
  | Maximum stacksize for task 4: unlimited
  | Maximum stacksize for task 5: unlimited
  | Maximum stacksize for task 6: unlimited
  | Maximum stacksize for task 7: unlimited
  | Maximum stacksize for task 8: unlimited
  | Maximum stacksize for task 9: unlimited
  | Maximum stacksize for task 10: unlimited
  | Maximum stacksize for task 11: unlimited
  | Maximum stacksize for task 12: unlimited
  | Maximum stacksize for task 13: unlimited
  | Maximum stacksize for task 14: unlimited
  | Maximum stacksize for task 15: unlimited
  | Maximum stacksize for task 16: unlimited
  | Maximum stacksize for task 17: unlimited
  | Current stacksize for task 0: unlimited
  | Current stacksize for task 1: unlimited
  | Current stacksize for task 2: unlimited
  | Current stacksize for task 3: unlimited
  | Current stacksize for task 4: unlimited
  | Current stacksize for task 5: unlimited
  | Current stacksize for task 6: unlimited
  | Current stacksize for task 7: unlimited
  | Current stacksize for task 8: unlimited
  | Current stacksize for task 9: unlimited
  | Current stacksize for task 10: unlimited
  | Current stacksize for task 11: unlimited
  | Current stacksize for task 12: unlimited
  | Current stacksize for task 13: unlimited
  | Current stacksize for task 14: unlimited
  | Current stacksize for task 15: unlimited
  | Current stacksize for task 16: unlimited
  | Current stacksize for task 17: unlimited
 
  Consistency checks for the contents of control.in are next.
 
  MPI_IN_PLACE appears to work with this MPI implementation.
  | Keeping use_mpi_in_place .true. (see manual).
  Explicit treatment of the Coulomb operator is needed, but the RI method is not specified.
  Coulomb operator: Defaulting to 'LVL fast' resolution of identity - RI_type = LVL_fast
  Species H: Using default value for prodbas_acc =   1.000000E-06.
  Species H: Using default value max_l_prodbas =     6.
  Species C: Using default value for prodbas_acc =   1.000000E-06.
  Species C: Using default value max_l_prodbas =     6.
  Target number of points in a grid batch is not set.  Since GPU acceleration is enabled, defaulting to  200
  Method for grid partitioning is not set. Defaulting to parallel hash+maxmin partitioning.
  Batch size limit is not set. Defaulting to    200
  By default, will store active basis functions for each batch.
  If in need of memory, prune_basis_once .false. can be used to disable this option.
  communication_type for Hartree potential was not specified.
  Defaulting to calc_hartree .
  Defaulting to Pulay charge density mixer.
  Pulay mixer: Number of relevant iterations not set.
  Defaulting to    8 iterations.
  Pulay mixer: Number of initial linear mixing iterations not set.
  Defaulting to    0 iterations.
  Work space size for distributed Hartree potential not set.
  Defaulting to   0.200000E+03 MB.
  Algorithm-dependent basis array size parameters:
  | n_max_pulay                         :        8
  Maximum number of self-consistency iterations not provided.
  Presetting  1000 iterations.
  Presetting      1001 iterations before the initial mixing cycle
  is restarted anyway using the sc_init_iter criterion / keyword.
  Presetting a factor      1.000 between actual scf density residual
  and density convergence criterion sc_accuracy_rho below which sc_init_iter
  takes no effect.
 * No s.c.f. convergence criteria (sc_accuracy_*) were provided in control.in.
 * The run will proceed with a reasonable default guess, but please check whether.
 * the s.c.f. cycles seem to take too much or too little time.
  Geometry relaxation not requested: no relaxation will be performed.
 * Notice: The s.c.f. convergence criterion sc_accuracy_rho was not provided.
 * We used to stop in this case, and ask the user to provide reasonable
 * scf convergence criteria. However, this led some users to employ criteria
 * that led to extremely long run times, e.g., for simple relaxation.
 * We now preset a default value for sc_accuracy_rho if it is not set.
 * You may still wish to check if this setting is too tight or too loose for your needs.
 * Based on n_atoms and forces and force-correction status, FHI-aims chose sc_accuracy_rho =  0.391918E-04 .
  No accuracy limit for integral partition fn. given. Defaulting to  0.1000E-14.
  No threshold value for u(r) in integrations given. Defaulting to  0.1000E-05.
  No occupation type (smearing scheme) given. Defaulting to Gaussian broadening, width =  0.1000E-01 eV.
  The width will be adjusted in iteration number     2 of the first full s.c.f. cycle only.
  S.C.F. convergence parameters will be adjusted in iteration number     2 of the first full s.c.f. cycle only.
  No accuracy for occupation numbers given. Defaulting to  0.1000E-12.
  No threshold value for occupation numbers given. Defaulting to  0.0000E+00.
  No accuracy for fermi level given. Defaulting to  0.1000E-19.
  Maximum # of iterations to find E_F not set. Defaulting to  200.
  Preferred method for the eigenvalue solver ('KS_method') not specified in 'control.in'.
  Calling BLACS routine to test compilation state
  Since ScaLAPACK support is enabled, defaulting to ELPA (via ELSI).
  Will not use alltoall communication since running on < 1024 CPUs.
  Threshold for basis singularities not set.
  Default threshold for basis singularities:  0.1000E-04
  partition_type (choice of integration weights) for integrals was not specified.
  | Using a version of the partition function of Stratmann and coworkers ('stratmann_sparse').
  | At each grid point, the set of atoms used to build the partition table is smoothly restricted to
  | only those atoms whose free-atom density would be non-zero at that grid point.
  Partitioning for Hartree potential was not defined. Using partition_type for integrals.
  | Adjusted default value of keyword multip_moments_threshold to:       0.10000000E-11
  | This value may affect high angular momentum components of the Hartree potential in periodic systems.
  Angular momentum expansion for Kerker preconditioner not set explicitly.
  | Using default value of   0
  No explicit requirement for turning off preconditioner.
  | By default, it will be turned off when the charge convergence reaches
  | sc_accuracy_rho  =   0.391918E-04
  No special mixing parameter while Kerker preconditioner is on.
  Using default: charge_mix_param =     0.7500.
  Threshold for auxiliary basis singularities not set.
  Default threshold for auxiliary basis singularities:  0.1000E-04
  No q(lm)/r^(l+1) cutoff set for long-range Hartree potential.
  | Using default value of  0.100000E-09 .
  | Verify using the multipole_threshold keyword.
  Defaulting to new monopole extrapolation.
  Density update method: automatic selection selected.
  Using density matrix based charge density update.
  Using density matrix based charge density update.
  Using packed matrix style: index .
  Defaulting to use time-reversal symmetry for k-point grid.
  Charge integration errors on the 3D integration grid will be compensated
  by explicit normalization and distribution of residual charges.
  Use the "compensate_multipole_errors" flag to change this behaviour.
  Default to 1D ("use_logsbt") integrations for auxiliary 2-center integrals.
  Default onset of logarithmic r-grid for SBT is -38.000000000000
  Default onset of logarithmic k-grid for SBT is -25.000000000000
  Default range of logarithmic r- and k-grid for SBT is  45.000000000000
  Default number of logarithmic r- and k-grid for SBT is   4096
  Default of use_2d_corr is to use the efficient 2D distribution where possible
 
  Consistency checks for the contents of geometry.in are next.
 

  Range separation radius for Ewald summation (hartree_convergence_parameter):      2.91768261 bohr.
  Number of empty states per atom not set in control.in .
  | Since you are using a method that relies on the unoccupied spectrum
  | (MP2,GW,RPA et al.), will use the full Hamiltonian size (see below)
  | as the max. possible number of states (occupied plus empty).

  Structure-dependent array size parameters: 
  | Maximum number of distinct radial functions  :        9
  | Maximum number of basis functions            :     1440
  | Number of Kohn-Sham states (occupied + empty):     1440
------------------------------------------------------------
CUDA runtime version: 11060
CUDA driver version: 11060
  Initializing GPUs...

  Number of GPUs available to MPI task         0 :   1
  Number of GPUs available to MPI task         1 :   1
  Number of GPUs available to MPI task         2 :   1
  Number of GPUs available to MPI task         3 :   1
  Number of GPUs available to MPI task         4 :   1
  Number of GPUs available to MPI task         5 :   1
  Number of GPUs available to MPI task         6 :   1
  Number of GPUs available to MPI task         7 :   1
  Number of GPUs available to MPI task         8 :   1
  Number of GPUs available to MPI task         9 :   1
  Number of GPUs available to MPI task        10 :   1
  Number of GPUs available to MPI task        11 :   1
  Number of GPUs available to MPI task        12 :   1
  Number of GPUs available to MPI task        13 :   1
  Number of GPUs available to MPI task        14 :   1
  Number of GPUs available to MPI task        15 :   1
  Number of GPUs available to MPI task        16 :   1
  Number of GPUs available to MPI task        17 :   1

  | MPI task         0, GPU activated = T, Device Name = NVIDIA A100-SXM4-80GB
  | MPI task         1, GPU activated = T, Device Name = NVIDIA A100-SXM4-80GB
  | MPI task         2, GPU activated = T, Device Name = NVIDIA A100-SXM4-80GB
  | MPI task         3, GPU activated = T, Device Name = NVIDIA A100-SXM4-80GB
  | MPI task         4, GPU activated = T, Device Name = NVIDIA A100-SXM4-80GB
  | MPI task         5, GPU activated = T, Device Name = NVIDIA A100-SXM4-80GB
  | MPI task         6, GPU activated = T, Device Name = NVIDIA A100-SXM4-80GB
  | MPI task         7, GPU activated = T, Device Name = NVIDIA A100-SXM4-80GB
  | MPI task         8, GPU activated = T, Device Name = NVIDIA A100-SXM4-80GB
  | MPI task         9, GPU activated = T, Device Name = NVIDIA A100-SXM4-80GB
  | MPI task        10, GPU activated = T, Device Name = NVIDIA A100-SXM4-80GB
  | MPI task        11, GPU activated = T, Device Name = NVIDIA A100-SXM4-80GB
  | MPI task        12, GPU activated = T, Device Name = NVIDIA A100-SXM4-80GB
  | MPI task        13, GPU activated = T, Device Name = NVIDIA A100-SXM4-80GB
  | MPI task        14, GPU activated = T, Device Name = NVIDIA A100-SXM4-80GB
  | MPI task        15, GPU activated = T, Device Name = NVIDIA A100-SXM4-80GB
  | MPI task        16, GPU activated = T, Device Name = NVIDIA A100-SXM4-80GB
  | MPI task        17, GPU activated = T, Device Name = NVIDIA A100-SXM4-80GB

------------------------------------------------------------
          Preparing all fixed parts of the calculation.
------------------------------------------------------------
  Determining machine precision:
    2.225073858507201E-308
  Setting up grids for atomic and cluster calculations.

  Creating wave function, potential, and density for free atoms.
  Runtime choices for atomic solver:
  | atomic solver xc        : PW-LDA
  | compute density gradient: 0
  | compute kinetic density : F

  Species: H

  List of occupied orbitals and eigenvalues:
    n    l              occ      energy [Ha]    energy [eV]
    1    0           1.0000        -0.232375        -6.3233


  Species: C

  List of occupied orbitals and eigenvalues:
    n    l              occ      energy [Ha]    energy [eV]
    1    0           2.0000        -9.944615      -270.6068
    2    0           2.0000        -0.498807       -13.5732
    2    1           2.0000        -0.196968        -5.3598


  Adding cutoff potential to free-atom effective potential.
  Creating fixed part of basis set: Ionic, confined, hydrogenic.
 
  H                    hydrogenic:
 
  List of hydrogenic basis orbitals: 
    n    l      effective z      eigenvalue [eV]  inner max. [A]     outer max. [A]     outer radius [A]   
    2    0         2.100000       -14.9728           0.193243           1.317208           4.583499
    2    1         3.500000       -41.6669           0.602369           0.602369           3.723403
 
 
  C                    hydrogenic:
 
  List of hydrogenic basis orbitals: 
    n    l      effective z      eigenvalue [eV]  inner max. [A]     outer max. [A]     outer radius [A]   
    2    1         1.700000        -9.7616           1.230570           1.230570           4.607917
    3    2         6.000000       -54.4224           0.792453           0.792453           3.883070
    2    0         4.900000       -81.6679           0.082559           0.562749           3.078220
 
  Creating atomic-like basis functions for current effective potential.

  Species H                   :

  List of atomic basis orbitals and eigenvalues:
    n    l      energy [Ha]    energy [eV]    outer radius [A]
    1    0        -0.232375        -6.3233       4.527807


  Species C                   :

  List of atomic basis orbitals and eigenvalues:
    n    l      energy [Ha]    energy [eV]    outer radius [A]
    1    0        -9.944615      -270.6068       1.934409
    2    0        -0.498807       -13.5732       4.496620
    2    1        -0.196968        -5.3598       4.551928

  Assembling full basis from fixed parts.
  | Species H :   atomic orbital   1 s accepted.
  | Species H :    hydro orbital   2 s accepted.
  | Species H :    hydro orbital   2 p accepted.
  | Species C :   atomic orbital   1 s accepted.
  | Species C :    hydro orbital   2 s accepted.
  | Species C :   atomic orbital   2 s accepted.
  | Species C :   atomic orbital   2 p accepted.
  | Species C :    hydro orbital   2 p accepted.
  | Species C :    hydro orbital   3 d accepted.
 
  Basis size parameters after reduction:
  | Total number of radial functions:        9
  | Total number of basis functions :     1440
 
  Per-task memory consumption for arrays in subroutine allocate_ext:
  |           2.242384MB.
  Testing on-site integration grid accuracy.
  |  Species  Function  <phi|h_atom|phi> (log., in eV)  <phi|h_atom|phi> (rad., in eV)
           1        1                 -6.3245358373                 -6.3232436907
           1        2                 14.1326137532                 14.1384481100
           1        3                 25.3627025200                 25.3628451197
           2        4               -270.6067544938               -270.6067222788
           2        5                -10.5634280949                -10.5635685736
           2        6                 16.2089822398                 16.2052121796
           2        7                 -5.3613872565                 -5.3627872378
           2        8                  8.5292058327                  8.5051734780
           2        9                 27.4884461005                 27.4884542459

  Preparing densities etc. for the partition functions (integrals / Hartree potential).

  Preparations completed.
  max(cpu_time)          :      0.073 s.
  Wall clock time (cpu1) :      0.068 s.
------------------------------------------------------------

  Initializing index lists of integration centers etc. from given atomic structure:
  Mapping all atomic coordinates to central unit cell.

  Initializing the k-points
  Using symmetry for reducing the k-points
  | k-points reduced from:        2 to        2
  | Number of k-points                             :         2
  | Consuming          0 KiB for k_phase_exx.
  The eigenvectors in the calculations are REAL.
  | Number of basis functions in the Hamiltonian integrals :      8044
  | Number of basis functions in a single unit cell        :      1440
  | Number of centers in hartree potential         :      3324
  | Number of centers in hartree multipole         :      2547
  | Number of centers in electron density summation:      1988
  | Number of centers in basis integrals           :      2115
  | Number of centers in integrals                 :       960
  | Number of centers in hamiltonian               :      1997
  | Consuming          1 KiB for k_phase.
  | Number of super-cells (origin) [n_cells]                     :         175
  | Number of super-cells (after PM_index) [n_cells]             :          36
  | Number of super-cells in hamiltonian [n_cells_in_hamiltonian]:          36
  | Size of matrix packed + index [n_hamiltonian_matrix_size] :     1930602
  | Size of matrix packed + index (no_symmetry):     3858387

------------------------------------------------------------
          Begin self-consistency loop: Initialization.

          Date     :  20230119, Time     :  173254.882
------------------------------------------------------------
  | Estimated reciprocal-space cutoff momentum G_max:         3.24344278 bohr^-1 .
  | Reciprocal lattice points for long-range Hartree potential:    5310
  Using simple linear distribution as default method for k-point parallelism.
  * Using 18 tasks for Scalapack Eigenvalue solver.
  Detailed listing of tasks and assigned k-points:
   Task     0 k-point     1 on adag003
   Task     1 k-point     1 on adag003
   Task     2 k-point     1 on adag003
   Task     3 k-point     1 on adag003
   Task     4 k-point     1 on adag003
   Task     5 k-point     1 on adag003
   Task     6 k-point     1 on adag003
   Task     7 k-point     1 on adag003
   Task     8 k-point     1 on adag003
   Task     9 k-point     2 on adag003
   Task    10 k-point     2 on adag003
   Task    11 k-point     2 on adag003
   Task    12 k-point     2 on adag003
   Task    13 k-point     2 on adag003
   Task    14 k-point     2 on adag003
   Task    15 k-point     2 on adag003
   Task    16 k-point     2 on adag003
   Task    17 k-point     2 on adag003
  K-point:     1 Tasks:     9 split into      3 X      3 BLACS grid
  Calculating block size based on n_basis =         1440  max_nprow =            3  max_npcol =            3
  ScaLAPACK block size set to:           16
  Allocating        1.758 MB for ovlp
  Allocating        1.758 MB for ham
  Allocating        1.758 MB for eigenvec
  Required Scalapack workspace - INTEGER:            1  REAL:             1
  Partitioning the integration grid into batches with parallel hashing+maxmin method.
  | Number of batches:     5632
  | Maximal batch size:     189
  | Minimal batch size:     102
  | Average batch size:     135.625
  | Standard deviation of batch sizes:      29.874

  Integration load balanced across    18 MPI tasks.
  Work distribution over tasks is as follows:
  Task     0 has      42382 integration points.
  Task     1 has      42439 integration points.
  Task     2 has      42425 integration points.
  Task     3 has      42428 integration points.
  Task     4 has      42446 integration points.
  Task     5 has      42407 integration points.
  Task     6 has      42447 integration points.
  Task     7 has      42421 integration points.
  Task     8 has      42441 integration points.
  Task     9 has      42451 integration points.
  Task    10 has      42460 integration points.
  Task    11 has      42403 integration points.
  Task    12 has      42450 integration points.
  Task    13 has      42487 integration points.
  Task    14 has      42461 integration points.
  Task    15 has      42427 integration points.
  Task    16 has      42432 integration points.
  Task    17 has      42433 integration points.
  Initializing partition tables, free-atom densities, potentials, etc. across the integration grid (initialize_grid_storage).
  | initialize_grid_storage: Actual outermost partition radius vs. multipole_radius_free
  | (-- VB: in principle, multipole_radius_free should be larger, hence this output)
  | Species        1: Confinement radius =              4.999999999999999 AA, multipole_radius_free =              5.054417573612229 AA.
  | Species        1: outer_partition_radius set to              5.054417573612229 AA .
  | Species        2: Confinement radius =              4.999999999999999 AA, multipole_radius_free =              5.019602836301480 AA.
  | Species        2: outer_partition_radius set to              5.019602836301480 AA .
  | The sparse table of interatomic distances needs       7606.70 kbyte instead of     35785.80 kbyte of memory.
  | Net number of integration points:   763840
  | of which are non-zero points    :   605272
  | Numerical average free-atom electrostatic potential    :     -8.61476707 eV
  Renormalizing the initial density to the exact electron count on the 3D integration grid.
  | Initial density: Formal number of electrons (from input files) :     544.0000000000
  | Integrated number of electrons on 3D grid     :     544.0025387756
  | Charge integration error                      :       0.0025387756
  | Normalization factor for density and gradient :       0.9999953332
  Renormalizing the free-atom superposition density to the exact electron count on the 3D integration grid.
  | Formal number of electrons (from input files) :     544.0000000000
  | Integrated number of electrons on 3D grid     :     544.0025387756
  | Charge integration error                      :       0.0025387756
  | Normalization factor for density and gradient :       0.9999953332
  Obtaining max. number of non-zero basis functions in each batch (get_n_compute_maxes).
  | Maximal number of non-zero basis functions:      549 in task     0
  | Maximal number of non-zero basis functions:      540 in task     1
  | Maximal number of non-zero basis functions:      553 in task     2
  | Maximal number of non-zero basis functions:      544 in task     3
  | Maximal number of non-zero basis functions:      544 in task     4
  | Maximal number of non-zero basis functions:      549 in task     5
  | Maximal number of non-zero basis functions:      534 in task     6
  | Maximal number of non-zero basis functions:      560 in task     7
  | Maximal number of non-zero basis functions:      537 in task     8
  | Maximal number of non-zero basis functions:      549 in task     9
  | Maximal number of non-zero basis functions:      570 in task    10
  | Maximal number of non-zero basis functions:      548 in task    11
  | Maximal number of non-zero basis functions:      544 in task    12
  | Maximal number of non-zero basis functions:      544 in task    13
  | Maximal number of non-zero basis functions:      555 in task    14
  | Maximal number of non-zero basis functions:      540 in task    15
  | Maximal number of non-zero basis functions:      553 in task    16
  | Maximal number of non-zero basis functions:      560 in task    17
  Integrating Hamiltonian matrix: batch-based integration.
  GPU acceleration will be used when integrating the Hamiltonian matrix.
  Reporting GPU memory usage by myid 0.  Note that it is likely not the only MPI task binding to its GPU!
  Allocating        2.411 MB on GPU for hamiltonian_shell
  Allocating        0.830 MB on GPU for wave
  Allocating        0.002 MB on GPU for partition
  Allocating        0.830 MB on GPU for h_times_psi
  Time summed over all CPUs for integration: real work       19.655 s, elapsed       20.277 s
  Deallocating memory used on GPU for Hamiltonian integration.
  Integrating overlap matrix.
  Time summed over all CPUs for integration: real work       17.317 s, elapsed       17.802 s
  Deallocating overlap matrix.

  Updating Kohn-Sham eigenvalues and eigenvectors using ELSI and the ELPA eigensolver.
  Singularity check in k-point 1 (analysis for other k-points may follow below):
  Overlap matrix is not singular
  | Lowest and highest eigenvalues :  0.7766E-03,  0.8243E+01
  Finished singularity check of overlap matrix
  | Time :     0.098 s
  Starting ELPA eigensolver
  Finished Cholesky decomposition
  | Time :     0.016 s
  Finished transformation to standard eigenproblem
  | Time :     0.022 s
  Finished solving standard eigenproblem
  | Time :     0.198 s
  Finished back-transformation of eigenvectors
  | Time :     0.014 s

  Obtaining occupation numbers and electronic chemical potential using ELSI.
  | Note that, for insulating systems, the printed 'chemical potential' value is not uniquely defined.
  | It can be anywhere in the energy gap, as long as it correctly separates occupied and unoccupied states.
  | In systems with a gap, the physically relevant chemical potential is the VBM or HOMO.

  | Chemical potential (Fermi level):    -7.92427944 eV
  Writing Kohn-Sham eigenvalues.
  K-point:       1 at    0.000000    0.000000    0.000000 (in units of recip. lattice)

  State    Occupation    Eigenvalue [Ha]    Eigenvalue [eV]
      1       2.00000         -10.071845         -274.06885
      2       2.00000         -10.071472         -274.05871
      3       2.00000         -10.070819         -274.04094
      4       2.00000         -10.070137         -274.02236
      5       2.00000         -10.069957         -274.01747
      6       2.00000         -10.068993         -273.99124
      7       2.00000         -10.068914         -273.98909
      8       2.00000         -10.068746         -273.98451
      9       2.00000         -10.068625         -273.98122
     10       2.00000         -10.068412         -273.97543
     11       2.00000         -10.068334         -273.97329
     12       2.00000         -10.068277         -273.97175
     13       2.00000         -10.068196         -273.96954
     14       2.00000         -10.067591         -273.95309
     15       2.00000         -10.067510         -273.95090
     16       2.00000         -10.067395         -273.94776
     17       2.00000         -10.067285         -273.94476
     18       2.00000         -10.067275         -273.94450
     19       2.00000         -10.067221         -273.94301
     20       2.00000         -10.067015         -273.93742
     21       2.00000         -10.066998         -273.93695
     22       2.00000         -10.066822         -273.93217
     23       2.00000         -10.066545         -273.92464
     24       2.00000         -10.066171         -273.91446
     25       2.00000         -10.066107         -273.91270
     26       2.00000         -10.065814         -273.90473
     27       2.00000         -10.065623         -273.89954
     28       2.00000         -10.065594         -273.89875
     29       2.00000         -10.065528         -273.89695
     30       2.00000         -10.065390         -273.89319
     31       2.00000         -10.065340         -273.89185
     32       2.00000         -10.065228         -273.88878
     33       2.00000         -10.065073         -273.88456
     34       2.00000         -10.065015         -273.88299
     35       2.00000         -10.064939         -273.88092
     36       2.00000         -10.064618         -273.87219
     37       2.00000         -10.064617         -273.87217
     38       2.00000         -10.064611         -273.87199
     39       2.00000         -10.064371         -273.86547
     40       2.00000         -10.064123         -273.85872
     41       2.00000         -10.063998         -273.85531
     42       2.00000         -10.063956         -273.85416
     43       2.00000         -10.063868         -273.85178
     44       2.00000         -10.063435         -273.84000
     45       2.00000         -10.063430         -273.83985
     46       2.00000         -10.063333         -273.83723
     47       2.00000         -10.063111         -273.83118
     48       2.00000         -10.062974         -273.82745
     49       2.00000         -10.062962         -273.82711
     50       2.00000         -10.062926         -273.82615
     51       2.00000         -10.062829         -273.82351
     52       2.00000         -10.062756         -273.82152
     53       2.00000         -10.062433         -273.81275
     54       2.00000         -10.062209         -273.80664
     55       2.00000         -10.062121         -273.80425
     56       2.00000         -10.062106         -273.80384
     57       2.00000         -10.061983         -273.80049
     58       2.00000         -10.061641         -273.79119
     59       2.00000         -10.061618         -273.79057
     60       2.00000         -10.061460         -273.78625
     61       2.00000         -10.061445         -273.78584
     62       2.00000         -10.060837         -273.76930
     63       2.00000         -10.060709         -273.76581
     64       2.00000         -10.060347         -273.75597
     65       2.00000         -10.060050         -273.74789
     66       2.00000         -10.059966         -273.74561
     67       2.00000         -10.059641         -273.73676
     68       2.00000         -10.058925         -273.71727
     69       2.00000         -10.058292         -273.70004
     70       2.00000         -10.058177         -273.69693
     71       2.00000         -10.058081         -273.69431
     72       2.00000         -10.057303         -273.67315
     73       2.00000         -10.057066         -273.66670
[...]
  |    H      0     4.527807 A      4.583499 A        4.713786E-16 a.u.
  |    H      2     3.678162 A  1.011968E+04 A            0.556529 a.u.
  |    H      1     3.958095 A  1.721251E+06 A            0.841931 a.u.
  |    H      0     4.527807 A  3.866455E+12 A            0.581436 a.u.
  |    C      0     2.562483 A      2.562483 A        6.563029E-17 a.u.
  |    C      0     2.967371 A      2.967371 A        1.352164E-16 a.u.
  |    C      0     3.003870 A      3.003870 A        2.312640E-17 a.u.
  |    C      1     3.272245 A      3.272245 A       -3.835259E-17 a.u.
  |    C      0     3.312494 A      3.312494 A       -2.710381E-16 a.u.
  |    C      3     4.077671 A      4.077671 A       -1.683752E-15 a.u.
  |    C      3     4.077671 A      4.077671 A        1.412852E-15 a.u.
  |    C      1     4.496620 A      4.496620 A       -3.011059E-16 a.u.
  |    C      0     4.496620 A      4.551928 A        2.873903E-17 a.u.
  |    C      2     4.551928 A      4.551928 A       -4.610785E-16 a.u.
  |    C      2     4.551928 A      4.551928 A        7.440584E-16 a.u.
  |    C      2     4.551928 A      4.551928 A       -7.110458E-16 a.u.
  |    C      2     4.551928 A      4.551928 A       -1.935424E-16 a.u.
  |    C      0     4.551928 A      4.607917 A        2.067142E-16 a.u.
  |    C      0     4.551928 A      4.607917 A       -1.109786E-16 a.u.
  |    C      1     4.551928 A      4.607917 A       -9.951742E-17 a.u.
  |    C      1     4.551928 A      4.607917 A        1.937809E-16 a.u.
  |    C      1     4.607917 A      4.607917 A       -2.813308E-16 a.u.
  |    C      1     4.607917 A      4.607917 A       -7.330363E-17 a.u.
  |    C      2     4.607917 A      4.607917 A        1.318462E-15 a.u.
  |    C      2     4.607917 A      4.607917 A       -1.318397E-15 a.u.
  |    C      0     4.607917 A      4.664595 A        3.157826E-16 a.u.
  |    C      1     4.607917 A      4.664595 A        7.356967E-16 a.u.
  |    C      4     3.835889 A  2.962973E+02 A            4.379483 a.u.
  |    C      3     4.127827 A  1.725964E+03 A            9.005588 a.u.
  |    C      2     4.607917 A  2.608475E+04 A            9.531178 a.u.
  |    C      1     4.607917 A  2.736013E+06 A            2.127278 a.u.
  |    C      0     4.607917 A  4.399765E+12 A            0.661635 a.u.

  | Shrink_full_auxil_basis : there are       36  radial auxiliary wave functions
                            accepted and       7 rejected.
  | Shrink_full_auxil_basis : there are totally                8992 partial auxiliary wave functions.
 
  | Maximal number of product basis functions per thread :   512   512
 
  | Minimal total memory requirement for three-center overlap :      72.476 Gbs
  | Number of local auxiliary basis functions on task:      0   512
  | Number of local auxiliary basis functions on task:      1   512
  | Number of local auxiliary basis functions on task:      2   512
  | Number of local auxiliary basis functions on task:      3   512
  | Number of local auxiliary basis functions on task:      4   496
  | Number of local auxiliary basis functions on task:      5   496
  | Number of local auxiliary basis functions on task:      6   496
  | Number of local auxiliary basis functions on task:      7   496
  | Number of local auxiliary basis functions on task:      8   496
  | Number of local auxiliary basis functions on task:      9   496
  | Number of local auxiliary basis functions on task:     10   496
  | Number of local auxiliary basis functions on task:     11   496
  | Number of local auxiliary basis functions on task:     12   496
  | Number of local auxiliary basis functions on task:     13   496
  | Number of local auxiliary basis functions on task:     14   496
  | Number of local auxiliary basis functions on task:     15   496
  | Number of local auxiliary basis functions on task:     16   496
  | Number of local auxiliary basis functions on task:     17   496
  | 2D aux task distribution:      3 X      6
  | 2D block size (nb_aux_2d):     64
 
  Basis pair condensation :   1037520  -->     548071
 
 --------------------------------------------
  Constructing auxiliary basis (full product) ...
 
  Product basis:
  | charge radius: extent of product basis function
  | field radius: extent of its Coulomb potential
  | Species   l  charge radius    field radius  multipol momen
  |    H      1     3.910002 A      3.910002 A       -2.487223E-16 a.u.
  |    H      1     3.958095 A      3.958095 A       -2.441841E-16 a.u.
  |    H      0     4.527807 A      4.527807 A        1.268855E-16 a.u.
  |    H      0     4.527807 A      4.583499 A       -4.900954E-17 a.u.
  |    H      0     4.527807 A      4.583499 A        4.713786E-16 a.u.
  |    H      2     3.678162 A  1.011968E+04 A            0.556529 a.u.
  |    H      1     3.958095 A  1.721251E+06 A            0.841931 a.u.
  |    H      0     4.527807 A  3.866455E+12 A            0.581436 a.u.
  |    C      0     2.562483 A      2.562483 A        6.563029E-17 a.u.
  |    C      0     2.967371 A      2.967371 A        1.352164E-16 a.u.
  |    C      0     3.003870 A      3.003870 A        2.312640E-17 a.u.
  |    C      1     3.272245 A      3.272245 A       -3.835259E-17 a.u.
  |    C      0     3.312494 A      3.312494 A       -2.710381E-16 a.u.
  |    C      3     4.077671 A      4.077671 A       -1.683752E-15 a.u.
  |    C      3     4.077671 A      4.077671 A        1.412852E-15 a.u.
  |    C      1     4.496620 A      4.496620 A       -3.011059E-16 a.u.
  |    C      0     4.496620 A      4.551928 A        2.873903E-17 a.u.
  |    C      2     4.551928 A      4.551928 A       -4.610785E-16 a.u.
  |    C      2     4.551928 A      4.551928 A        7.440584E-16 a.u.
  |    C      2     4.551928 A      4.551928 A       -7.110458E-16 a.u.
  |    C      2     4.551928 A      4.551928 A       -1.935424E-16 a.u.
  |    C      0     4.551928 A      4.607917 A        2.067142E-16 a.u.
  |    C      0     4.551928 A      4.607917 A       -1.109786E-16 a.u.
  |    C      1     4.551928 A      4.607917 A       -9.951742E-17 a.u.
  |    C      1     4.551928 A      4.607917 A        1.937809E-16 a.u.
  |    C      1     4.607917 A      4.607917 A       -2.813308E-16 a.u.
  |    C      1     4.607917 A      4.607917 A       -7.330363E-17 a.u.
  |    C      2     4.607917 A      4.607917 A        1.318462E-15 a.u.
  |    C      2     4.607917 A      4.607917 A       -1.318397E-15 a.u.
  |    C      0     4.607917 A      4.664595 A        3.157826E-16 a.u.
  |    C      1     4.607917 A      4.664595 A        7.356967E-16 a.u.
  |    C      4     3.835889 A  2.962973E+02 A            4.379483 a.u.
  |    C      3     4.127827 A  1.725964E+03 A            9.005588 a.u.
  |    C      2     4.607917 A  2.608475E+04 A            9.531178 a.u.
  |    C      1     4.607917 A  2.736013E+06 A            2.127278 a.u.
  |    C      0     4.607917 A  4.399765E+12 A            0.661635 a.u.

  | Shrink_full_auxil_basis : there are       36  radial auxiliary wave functions
                            accepted and       7 rejected.
  | Shrink_full_auxil_basis : there are totally                8992 partial auxiliary wave functions.
 
  | Maximal number of product basis functions per thread :   512   512
 
  | Minimal total memory requirement for three-center overlap :      72.476 Gbs
  | Number of local auxiliary basis functions on task:      0   512
  | Number of local auxiliary basis functions on task:      1   512
  | Number of local auxiliary basis functions on task:      2   512
  | Number of local auxiliary basis functions on task:      3   512
  | Number of local auxiliary basis functions on task:      4   496
  | Number of local auxiliary basis functions on task:      5   496
  | Number of local auxiliary basis functions on task:      6   496
  | Number of local auxiliary basis functions on task:      7   496
  | Number of local auxiliary basis functions on task:      8   496
  | Number of local auxiliary basis functions on task:      9   496
  | Number of local auxiliary basis functions on task:     10   496
  | Number of local auxiliary basis functions on task:     11   496
  | Number of local auxiliary basis functions on task:     12   496
  | Number of local auxiliary basis functions on task:     13   496
  | Number of local auxiliary basis functions on task:     14   496
  | Number of local auxiliary basis functions on task:     15   496
  | Number of local auxiliary basis functions on task:     16   496
  | Number of local auxiliary basis functions on task:     17   496
  | 2D aux task distribution:      3 X      6
  | 2D block size (nb_aux_2d):     64
 
  Basis pair condensation :   1037520  -->     548071
  Allocating        0.069 MB for t_coeff
  Allocating        0.034 MB for basbas_idx
  Allocating        0.069 MB for wave
  Allocating        0.069 MB for total_wave
  Allocating        0.206 MB for wave_gradient
  Allocating        0.206 MB for total_wave_grad
 HERE1
 HERE2
  Deallocating        0.069 MB for t_coeff
  Deallocating        0.034 MB for basbas_idx
  Deallocating        0.069 MB for wave
  Deallocating        0.206 MB for wave_gradient
  Deallocating        0.206 MB for total_wave_grad
dP_dE (Bohr^3) at every cycle:--->
 (1010.14669944519,0.000000000000000E+000) (7.88927224327079,0.000000000000000E+000) (-456.950523342756,0.000000000000000E+000)
 (7.91262327912228,0.000000000000000E+000) (1333.33388410999,0.000000000000000E+000) (-1.08235689459727,0.000000000000000E+000)
 (-457.111965019241,0.000000000000000E+000) (-1.05954022934166,0.000000000000000E+000) (1682.23413289042,0.000000000000000E+000)
DFPT polarizability (Bohr^3)        xx        yy        zz        xy        xz        yz
  | Polarizability:--->                      1010.146699445                 1333.333884110                 1682.234132890                    7.889272243                 -456.950523343                   -1.082356895

DFPT for dielectric_constant:--->  # PARSE DFPT_dielectric_tensor
               2.370747524280009             0.010705574152521            -0.620072113223318
               0.010737261010083             2.809305640147362            -0.001468735218827
              -0.620291186134687            -0.001437773490764             3.282755835548819

                                               :  max(cpu_time)    wall_clock(cpu1)
  | Time for  dielectric calculation            :        0.000 s           0.000 s
===========================================================================

------------------------------------------------------------------------------
  Final output of selected total energy values:

  The following output summarizes some interesting total energy values
  at the end of a run (AFTER all relaxation, molecular dynamics, etc.).

  | Total energy of the DFT / Hartree-Fock s.c.f. calculation      :         -83267.519281522 eV
  | Final zero-broadening corrected energy (caution - metals only) :         -83267.519281522 eV
  | For reference only, the value of 1 Hartree used in FHI-aims is :             27.211384500 eV
  | For reference only, the overall average (free atom contribution
  | + realspace contribution) of the electrostatic potential after
  | s.c.f. convergence is                                          :             -7.698374661 eV

  Before relying on these values, please be sure to understand exactly which
  total energy value is referred to by a given number. Different objects may
  all carry the same name 'total energy'. Definitions:

  Total energy of the DFT / Hartree-Fock s.c.f. calculation:
  | Note that this energy does not include ANY quantities calculated after the
  | s.c.f. cycle, in particular not ANY RPA, MP2, etc. many-body perturbation terms.

  Final zero-broadening corrected energy:
  | For metallic systems only, a broadening of the occupation numbers at the Fermi
  | level can be extrapolated back to zero broadening by an electron-gas inspired
  | formula. For all systems that are not real metals, this value can be
  | meaningless and should be avoided.

------------------------------------------------------------------------------
  Methods described in the following list of references were used in this FHI-aims run.
  If you publish the results, please make sure to cite these reference if they apply.
  FHI-aims is an academic code, and for our developers (often, Ph.D. students
  and postdocs), scientific credit in the community is essential.
  Thank you for helping us!

  For any use of FHI-aims, please cite:

    Volker Blum, Ralf Gehrke, Felix Hanke, Paula Havu, Ville Havu,
    Xinguo Ren, Karsten Reuter, and Matthias Scheffler
    'Ab initio molecular simulations with numeric atom-centered orbitals'
    Computer Physics Communications 180, 2175-2196 (2009)
    http://doi.org/10.1016/j.cpc.2009.06.022


  For Hartree-Fock, hybrid functionals, or many-body perturbation theory used in your run, please cite:

    Xinguo Ren, Patrick Rinke, Volker Blum, Juergen Wieferink, Alex Tkatchenko,
    Andrea Sanfilippo, Karsten Reuter, and Matthias Scheffler,
    'Resolution-of-identity approach to Hartree-Fock, hybrid density functionals,
    RPA, MP2, and GW with numeric atom-centered orbital basis functions'
    New Journal of Physics 14, 053020 (2012).
    http://doi.org/10.1088/1367-2630/14/5/053020


  The provided symmetry information was generated with SPGlib:

    Atsushi Togo, Yusuke Seto, Dimitar Pashov
    SPGlib 1.7.3 obtained from http://spglib.sourceforge.net
    Copyright (C) 2008 Atsushi Togo


  The DFPT (perturbation by an electric field) part of the code was used.
  Here is the corresponding reference:

    Honghui Shang, Nathaniel Raimbault, Mariana Rossi,
    Christian Carbogno, Patrick Rinke and Matthias Scheffler,
    'All-Electron, Real-Space Perturbation Theory for Homogeneous
    Electric Fields: Theory, Implementation, and Application within dft'
    New Journal of Physics, 20(7):073040, 2018


  The ELSI infrastructure was used in your run to solve the Kohn-Sham electronic structure.
  Please check out http://elsi-interchange.org to learn more.
  If scalability is important for your project, please acknowledge ELSI by citing:

    V. W-z. Yu, F. Corsetti, A. Garcia, W. P. Huhn, M. Jacquelin, W. Jia,
    B. Lange, L. Lin, J. Lu, W. Mi, A. Seifitokaldani, A. Vazquez-Mayagoitia,
    C. Yang, H. Yang, and V. Blum
    'ELSI: A unified software interface for Kohn-Sham electronic structure solvers'
    Computer Physics Communications 222, 267-285 (2018).
    http://doi.org/10.1016/j.cpc.2017.09.007


  For the real-space grid partitioning and parallelization used in this calculation, please cite:

    Ville Havu, Volker Blum, Paula Havu, and Matthias Scheffler,
    'Efficient O(N) integration for all-electron electronic structure calculation'
    'using numerically tabulated basis functions'
    Journal of Computational Physics 228, 8367-8379 (2009).
    http://doi.org/10.1016/j.jcp.2009.08.008


  The high-level electronic structure method used in your calculation
  employed our efficient localized resolution of identity for the Coulomb operator.
  Some calculations, especially large-scale hybrid density functional theory,
  are only possible thanks to this development. For this feature, please cite:

    Arvid Ihrig, Juergen Wieferink, Igor Ying Zhang, Matti Ropo, Xinguo Ren,
    Patrick Rinke, Matthias Scheffler, and Volker Blum,
    'Accurate localized resolution of identity approach for linear-scaling
    hybrid density functionals and for many-body perturbation theory'
    New Journal of Physics 117, 093020 (2015).
    http://doi.org/10.1088/1367-2630/17/9/093020

  Of course, there are many other important community references, e.g., those cited in the
  above references. Our list is limited to references that describe implementations in the
  FHI-aims code. The reason is purely practical (length of this list) - please credit others as well.

------------------------------------------------------------
          Leaving FHI-aims.
          Date     :  20230119, Time     :  175850.887

          Computational steps:
          | Number of self-consistency cycles          :           47
          | Number of SCF (re)initializations          :            1
          | Number of coupled perturbed self-consistency cycles          :            0
          | Number of CPSCF (re)initializations          :            0

          Detailed time accounting                     :  max(cpu_time)    wall_clock(cpu1)
          | Total time                                  :     1558.026 s        1574.912 s
          | GPU initialization                          :        2.530 s          17.802 s
          | Preparation time                            :        0.073 s           0.068 s
          | Boundary condition initalization            :        0.957 s           0.958 s
          | Grid partitioning                           :        1.250 s           1.250 s
          | Preloading free-atom quantities on grid     :        3.465 s           3.465 s
          | Free-atom superposition energy              :        0.422 s           0.422 s
          | Total time for integrations                 :       17.839 s          18.382 s
          | Product basis setup: Total time             :        0.000 s           0.000 s
          | Product basis: | 2-center integrations     :(       0.000 s)  (       0.000 s)
          | Product basis: | LVL 3-center & coefficient:(       0.000 s)  (       0.000 s)
          | Total time for solution of K.-S. equations  :        3.444 s           3.447 s
          | Total time for density update               :       12.752 s          13.743 s
          | Total time for mixing & preconditioning     :       11.994 s          11.998 s
          | Total time for Hartree multipole update     :        0.087 s           0.085 s
          | Total time for Hartree multipole sum        :       44.470 s          44.485 s
          | Total time for total energy evaluation      :        0.007 s           0.002 s
          | Total time first_order_DM                   :        1.947 s           1.940 s
          | Total time first_order_density              :      305.486 s         305.508 s
          | Total time first_order_potential            :      119.088 s         119.123 s
          | Total time first_order_H                    :      590.773 s         590.938 s
          | Total time solving of Sternheimer equations :        1.936 s           1.939 s
          | Total time for dielectric constant          :        0.000 s           0.000 s
          | Total time momentum matrix                  :        0.000 s           0.000 s

          GPU acceleration has been used for charge density update.
          GPU acceleration has been used for real-space Hamiltonian integration.
          Due to GPU usage, wall_clock(cpu1) will give a more reliable estimate for timings.

          Partial memory accounting:
          | Residual value for overall tracked memory usage across tasks:     1.234863 MB (should be 0.000000 MB)
          |
          | Largest tracked array allocation:
          |   Minimum:      103.105 MB (DFPT_pulay_mixing::initialize_pulay_mixing::X_in_diffs on task  0)
          |   Maximum:      103.105 MB (DFPT_pulay_mixing::initialize_pulay_mixing::X_in_diffs on task  0)
          |   Average:      103.105 MB
          |
          | Because the residual tracked memory usage was not zero, the peak value for overall
          | tracked memory usage was not output, as it is probably incorrect.  This is likely due
          | to a missing aims_deallocate statement in the source code, which should be otherwise
          | harmless.
          |
          Note:  These values currently only include a subset of arrays which are explicitly tracked.
          The "true" memory usage will be greater.

          Have a nice day.
------------------------------------------------------------
