------------------------------------------------------------
          Invoking FHI-aims ...

          When using FHI-aims, please cite the following reference:

            Volker Blum, Ralf Gehrke, Felix Hanke, Paula Havu,
            Ville Havu, Xinguo Ren, Karsten Reuter, and Matthias Scheffler,
            'Ab Initio Molecular Simulations with Numeric Atom-Centered Orbitals',
            Computer Physics Communications 180, 2175-2196 (2009)

          In addition, many other developments in FHI-aims are likely important for
          your particular application. A partial list of references is given at the end of
          this file. Thank you for giving credit to the authors of these developments.

          For any questions about FHI-aims, please visit our slack channel at

            https://fhi-aims.slack.com

          and our main development and support site at

            https://aims-git.rz-berlin.mpg.de .

          The latter site, in particular, has a wiki to collect information, as well
          as an issue tracker to log discussions, suggest improvements, and report issues
          or bugs. https://aims-git.rz-berlin.mpg.de is also the main development site
          of the project and all new and updated code versions can be obtained there.
          Please send an email to aims-coordinators@fhi-berlin.mpg.de and we will add
          you to these sites. They are for you and everyone is welcome there.

------------------------------------------------------------



  Date     :  20230119, Time     :  214804.396
  Time zero on CPU 1             :   0.427607000000000E+00  s.
  Internal wall clock time zero  :           443396884.396  s.

  FHI-aims created a unique identifier for this run for later identification
  aims_uuid : 7C827AE4-391D-4022-AF7E-99E0A92F3152

  Build configuration of the current instance of FHI-aims
  -------------------------------------------------------
  FHI-aims version      : 220829
  Commit number         : 9895fc21d
  CMake host system     : Linux-5.3.18-150300.59.68-default
  CMake version         : 3.17.0
  Fortran compiler      : /mpcdf/soft/SLE_15/packages/x86_64/intel_oneapi/2021.3/mpi/2021.3.0/bin/mpiifort (Intel) version 20.2.3.20210609
  Fortran compiler flags: -O3 -ip -fp-model precise
  C compiler            : /mpcdf/soft/SLE_15/packages/x86_64/intel/2021.3.0/bin/icc (Intel) version 20.2.3.20210609
  C compiler flags      : -O3 -ip -fp-model precise -std=gnu99
  CUDA compiler         : /mpcdf/soft/SLE_15/packages/x86_64/cuda/11.6.2/bin/nvcc
  CUDA compiler flags   : -O3 -DAdd_ -lcublas
  ELPA2 kernel          : AVX512
  Using MPI
  Using ScaLAPACK
  Using LibXC
  Using CUDA
  Using i-PI
  Using RLSY
  Linking against: /mpcdf/soft/SLE_15/packages/x86_64/cuda/11.6.2/lib64/libcublas.so
                   /mpcdf/soft/SLE_15/packages/x86_64/cuda/11.6.2/lib64/libcudart.so
                   /mpcdf/soft/SLE_15/packages/x86_64/intel_oneapi/2021.3/mkl/latest/lib/intel64/libmkl_intel_lp64.so
                   /mpcdf/soft/SLE_15/packages/x86_64/intel_oneapi/2021.3/mkl/latest/lib/intel64/libmkl_sequential.so
                   /mpcdf/soft/SLE_15/packages/x86_64/intel_oneapi/2021.3/mkl/latest/lib/intel64/libmkl_core.so
                   /mpcdf/soft/SLE_15/packages/x86_64/intel_oneapi/2021.3/mkl/latest/lib/intel64/libmkl_blacs_intelmpi_lp64.so
                   /mpcdf/soft/SLE_15/packages/x86_64/intel_oneapi/2021.3/mkl/latest/lib/intel64/libmkl_scalapack_lp64.so

  Using       18 parallel tasks.
  Task        0 on host adag015 reporting.
  Task        1 on host adag015 reporting.
  Task        2 on host adag015 reporting.
  Task        3 on host adag015 reporting.
  Task        4 on host adag015 reporting.
  Task        5 on host adag015 reporting.
  Task        6 on host adag015 reporting.
  Task        7 on host adag015 reporting.
  Task        8 on host adag015 reporting.
  Task        9 on host adag015 reporting.
  Task       10 on host adag015 reporting.
  Task       11 on host adag015 reporting.
  Task       12 on host adag015 reporting.
  Task       13 on host adag015 reporting.
  Task       14 on host adag015 reporting.
  Task       15 on host adag015 reporting.
  Task       16 on host adag015 reporting.
  Task       17 on host adag015 reporting.

  Performing system and environment tests:
  | Environment variable OMP_NUM_THREADS correctly set to 1.
  | Checking for ScaLAPACK...
  | Testing pdtran()...
  | All pdtran() tests passed.

  Obtaining array dimensions for all initial allocations:
  
  -----------------------------------------------------------------------
  Parsing control.in (first pass over file, find array dimensions only).
  The contents of control.in will be repeated verbatim below
  unless switched off by setting 'verbatim_writeout .false.' .
  in the first line of control.in .
  -----------------------------------------------------------------------
  
  #
  # Input for polarizability replays on generic oligoacene molecular crystals (light settings,  LDA+MBD).
  #
  #########################################################################################
  #
  #  Physical model
  #
    xc                 pw-lda
    spin               none
    relativistic       none
    charge             0.0
    k_grid 	     2 1 1
    DFPT dielectric
  #
  #  GPU acceleration
  #
  # Turns on GPU acceleration everywhere
    use_gpu
  
  # Turns OFF GPU acceleration of ELPA - may be necessary if GPU ELPA is slow
    elsi_elpa_gpu 0
  #
  #  Relaxation
  #
  #  relax_geometry trm 1E-3
  #  relax_unit_cell fixed_angles
  #
  #  SCF convergence        #
    charge_mix_param   0.75
    #sc_accuracy_rho 1E-4
  #
  # i-PI communication
  #
  compute_forces .false.
  # use_pimd_wrapper 130.183.223.27 26118
  #communicate_pimd_wrapper polarizability
  #output_level MD_light
  #
  # Output SALTED info
    ri_density_restart write
    ri_rho1 write
    ri_full_output .true.
  #  sc_accuracy_rho    1d-6
    default_prodbas_acc 1e-6
    default_max_l_prodbas 6
  #
  #
  ################################################################################
  #
  #  FHI-aims code project
  #  VB, Fritz-Haber Institut, 2009
  #
  #  Suggested "light" defaults for H atom (to be pasted into control.in file)
  #  Be sure to double-check any results obtained with these settings for post-processing,
  #  e.g., with the "tight" defaults and larger basis sets.
  #
  ################################################################################
    species        H
  #     global species definitions
      nucleus             1
      mass                1.00794
  #
      l_hartree           4
  #
      cut_pot             3.5  1.5  1.0
      basis_dep_cutoff    1e-4
  #
      radial_base         24 5.0
      radial_multiplier   1
      angular_grids       specified
        division   0.2421   50
        division   0.3822  110
        division   0.4799  194
        division   0.5341  302
  #      division   0.5626  434
  #      division   0.5922  590
  #      division   0.6542  770
  #      division   0.6868 1202
  #      outer_grid  770
        outer_grid  302
  ################################################################################
  #
  #  Definition of "minimal" basis
  #
  ################################################################################
  #     valence basis states
      valence      1  s   1.
  #     ion occupancy
      ion_occ      1  s   0.5
  ################################################################################
  #
  #  Suggested additional basis functions. For production calculations,
  #  uncomment them one after another (the most important basis functions are
  #  listed first).
  #
  #  Basis constructed for dimers: 0.5 A, 0.7 A, 1.0 A, 1.5 A, 2.5 A
  #
  ################################################################################
  #  "First tier" - improvements: -1014.90 meV to -62.69 meV
       hydro 2 s 2.1
       hydro 2 p 3.5
  #  "Second tier" - improvements: -12.89 meV to -1.83 meV
  #     hydro 1 s 0.85
  #     hydro 2 p 3.7
  #     hydro 2 s 1.2
  #     hydro 3 d 7
  #  "Third tier" - improvements: -0.25 meV to -0.12 meV
  #     hydro 4 f 11.2
  #     hydro 3 p 4.8
  #     hydro 4 d 9
  #     hydro 3 s 3.2
  ################################################################################
  ################################################################################
  #
  #  FHI-aims code project
  #  VB, Fritz-Haber Institut, 2009
  #
  #  Suggested "light" defaults for C atom (to be pasted into control.in file)
  #  Be sure to double-check any results obtained with these settings for post-processing,
  #  e.g., with the "tight" defaults and larger basis sets.
  #
  ################################################################################
    species        C
  #     global species definitions
      nucleus             6
      mass                12.0107
  #
      l_hartree           4
  #
      cut_pot             3.5  1.5  1.0
      basis_dep_cutoff    1e-4
  #
      radial_base         34 5.0
      radial_multiplier   1
      angular_grids specified
        division   0.3326   50
        division   0.5710  110
        division   0.7727  194
        division   0.8772  302
  #      division   0.9334  434
  #      division   0.9625  590
  #      division   0.9924  770
  #      division   1.0230  974
  #      division   1.4589 1202
  #     outer_grid  974
       outer_grid 302
  ################################################################################
  #
  #  Definition of "minimal" basis
  #
  ################################################################################
  #     valence basis states
      valence      2  s   2.
      valence      2  p   2.
  #     ion occupancy
      ion_occ      2  s   1.
      ion_occ      2  p   1.
  ################################################################################
  #
  #  Suggested additional basis functions. For production calculations,
  #  uncomment them one after another (the most important basis functions are
  #  listed first).
  #
  #  Constructed for dimers: 1.0 A, 1.25 A, 1.5 A, 2.0 A, 3.0 A
  #
  ################################################################################
  #  "First tier" - improvements: -1214.57 meV to -155.61 meV
       hydro 2 p 1.7
       hydro 3 d 6
       hydro 2 s 4.9
  #  "Second tier" - improvements: -67.75 meV to -5.23 meV
  #     hydro 4 f 9.8
  #     hydro 3 p 5.2
  #     hydro 3 s 4.3
  #     hydro 5 g 14.4
  #     hydro 3 d 6.2
  #  "Third tier" - improvements: -2.43 meV to -0.60 meV
  #     hydro 2 p 5.6
  #     hydro 2 s 1.4
  #     hydro 3 d 4.9
  #     hydro 4 f 11.2
  #  "Fourth tier" - improvements: -0.39 meV to -0.18 meV
  #     hydro 2 p 2.1
  #     hydro 5 g 16.4
  #     hydro 4 d 13.2
  #     hydro 3 s 13.6
  #     hydro 4 f 17.6
  #  Further basis functions - improvements: -0.08 meV and below
  #     hydro 3 s 2
  #     hydro 3 p 6
  #     hydro 4 d 20
  
  -----------------------------------------------------------------------
  Completed first pass over input file control.in .
  -----------------------------------------------------------------------
  
  
  -----------------------------------------------------------------------
  Parsing geometry.in (first pass over file, find array dimensions only).
  The contents of geometry.in will be repeated verbatim below
  unless switched off by setting 'verbatim_writeout .false.' .
  in the first line of geometry.in .
  -----------------------------------------------------------------------
  
  #=======================================================
  # FHI-aims file: /ada/ptmp/mpsd/alewis/naphthalene/qmdata/data/geoms/79.in
  # Created using the Atomic Simulation Environment (ASE)
  # Thu Jan 19 15:19:16 2023
  #=======================================================
  lattice_vector 8.1020000000000003 0.0000000000000000 0.0000000000000000
  lattice_vector 0.0000000000000000 11.8800000000000008 0.0000000000000000
  lattice_vector -9.7850918486534706 0.0000000000000000 14.2571119625755713
  atom -0.8774060000000000 -0.0567579000000000 2.3587300000000000 C
  atom 0.0482831000000000 3.2342100000000000 4.7059300000000004 C
  atom 4.1927099999999999 5.8357500000000000 4.9200799999999996 C
  atom 3.3131800000000000 2.8765000000000001 2.5148700000000002 C
  atom -0.0524558000000000 0.8549720000000000 1.6807900000000000 C
  atom -0.6424000000000000 4.0767300000000004 5.5029399999999997 C
  atom 3.4047299999999998 4.9782299999999999 5.6238200000000003 C
  atom 4.1302700000000003 2.0432100000000002 1.7763899999999999 C
  atom 0.3981300000000000 0.5619740000000000 0.3598850000000000 C
  atom -0.9823580000000000 3.6942800000000000 6.8530600000000002 C
  atom 3.0382300000000000 5.2423599999999997 6.9847900000000003 C
  atom 4.4627200000000000 2.3501400000000001 0.4310920000000000 C
  atom -3.9232499999999999 1.5286700000000000 6.7558900000000000 C
  atom 3.1614100000000001 4.5058800000000003 0.6703220000000000 C
  atom 7.2117199999999997 4.5379500000000004 0.5773160000000001 C
  atom 0.1902120000000000 1.5347700000000000 6.4873500000000002 C
  atom -3.5188899999999999 1.1580699999999999 5.4902899999999999 C
  atom 2.8445299999999998 4.0993899999999996 1.9506500000000000 C
  atom 6.7954100000000004 4.9526800000000000 1.8186000000000000 C
  atom 0.5085580000000000 1.9887300000000001 5.2107900000000003 C
  atom -1.1754500000000001 0.1606410000000000 3.3946999999999998 H
  atom 0.4134460000000000 3.5547800000000001 3.7216000000000000 H
  atom 4.4235400000000000 5.5838200000000002 3.8581900000000000 H
  atom 3.0518800000000001 2.6084200000000002 3.5316999999999998 H
  atom 0.2871590000000000 1.7911200000000000 2.1592300000000000 H
  atom -1.0170699999999999 5.0222499999999997 5.1435399999999998 H
  atom 3.0569600000000001 4.0211600000000001 5.1535599999999997 H
  atom 4.4858000000000002 1.1037500000000000 2.2322000000000002 H
  atom -3.6120199999999998 2.4744999999999999 7.1669900000000002 H
  atom 2.8233000000000001 5.4566800000000004 0.2526690000000000 H
  atom 6.9973999999999998 3.5370100000000000 0.2235660000000000 H
  atom 0.5780970000000000 0.5594590000000000 6.8442800000000004 H
  atom -2.8927399999999999 1.8331800000000000 4.8903400000000001 H
  atom 2.2030900000000000 4.7503599999999997 2.5429300000000001 H
  atom 6.2004599999999996 4.2793299999999999 2.4243399999999999 H
  atom 1.0972100000000000 1.3912300000000000 4.5134900000000000 H
  atom -5.8677099999999998 0.1571160000000000 9.5945000000000000 C
  atom -4.7307699999999997 3.0472700000000001 12.0702999999999996 C
  atom -0.5047270000000000 5.7550900000000000 11.9376999999999995 C
  atom -1.7662899999999999 2.7905500000000001 9.4279899999999994 C
  atom -5.1216699999999999 1.0376900000000000 8.8148099999999996 C
  atom -5.4605600000000001 3.9370799999999999 12.8102000000000000 C
  atom -1.3533599999999999 4.9541500000000003 12.6928000000000001 C
  atom -0.9888340000000000 1.9714400000000001 8.6000099999999993 C
  atom -4.7320700000000002 0.6828340000000001 7.5235799999999999 C
  atom -5.8048200000000003 3.6126700000000000 14.1437000000000008 C
  atom -1.7690200000000000 5.3710800000000001 13.9991000000000003 C
  atom -0.5969920000000000 2.3989799999999999 7.3111400000000000 C
  atom -8.5892800000000005 1.4519100000000000 13.8721999999999994 C
  atom -1.6824200000000000 4.5521500000000001 7.7651100000000000 C
  atom 2.2215300000000000 4.3719999999999999 7.6950599999999998 C
  atom -4.5359299999999996 1.4729900000000000 13.8721999999999994 C
  atom -8.3033500000000000 1.2112900000000000 12.5203000000000007 C
  atom -2.0619600000000000 4.1336700000000004 9.0248799999999996 C
  atom 1.8287500000000001 4.7446900000000003 8.9822199999999999 C
  atom -4.2217900000000004 1.8472999999999999 12.5980000000000008 C
  atom -6.1556100000000002 0.4824370000000000 10.6020000000000003 H
  atom -4.4958700000000000 3.2342900000000001 11.0259000000000000 H
  atom -0.1758370000000000 5.3786399999999999 10.9482999999999997 H
  atom -2.1171199999999999 2.4082900000000000 10.4034999999999993 H
  atom -4.7850900000000003 1.9599599999999999 9.2798099999999994 H
  atom -5.8200700000000003 4.8831699999999998 12.3952000000000009 H
  atom -1.6859800000000000 3.9656500000000001 12.3795999999999999 H
  atom -0.6636660000000000 0.9713590000000000 8.8767800000000001 H
  atom -8.1346299999999996 2.3354400000000002 14.3249999999999993 H
  atom -2.0030700000000001 5.5104300000000004 7.3809800000000001 H
  atom 1.8801399999999999 3.4631500000000002 7.2318600000000002 H
  atom -4.2788100000000000 0.4738870000000000 14.2368000000000006 H
  atom -7.6068800000000003 1.9151899999999999 12.0361999999999991 H
  atom -2.6564899999999998 4.7501600000000002 9.6761400000000002 H
  atom 1.1207199999999999 4.0692199999999996 9.5167000000000002 H
  atom -3.6772100000000001 1.1689400000000001 11.9166000000000007 H
  atom -0.9002110000000000 6.2054900000000002 2.3331900000000001 C
  atom 0.3888220000000000 9.0121900000000004 4.9243800000000002 C
  atom 4.2498399999999998 11.7833000000000006 4.9520200000000001 C
  atom 3.3287000000000000 8.7441899999999997 2.3328400000000000 C
  atom -0.1013370000000000 7.0498700000000003 1.5451900000000001 C
  atom -0.4908720000000000 9.8329199999999997 5.6220200000000000 C
  atom 3.4506600000000001 10.9159000000000006 5.6925299999999996 C
  atom 4.1056999999999997 7.9105600000000003 1.5858800000000000 C
  atom 0.3308360000000000 6.6625699999999997 0.2503360000000000 C
  atom -0.8954880000000000 9.4898399999999992 6.9387400000000001 C
  atom 3.0265599999999999 11.2833000000000006 6.9967600000000001 C
  atom 4.4467299999999996 8.2539400000000001 0.2388220000000000 C
  atom -3.8447200000000001 7.4115599999999997 6.7277600000000000 C
  atom 3.1418599999999999 10.3652999999999995 0.4924090000000000 C
  atom 7.1875499999999999 10.3768999999999991 0.4472750000000000 C
  atom 0.3181490000000000 7.3345799999999999 6.6635900000000001 C
  atom -3.4858300000000000 7.0307199999999996 5.4419700000000004 C
  atom 2.7858600000000000 9.9417799999999996 1.7786200000000001 C
  atom 6.8210899999999999 10.6243999999999996 1.7532000000000001 C
  atom 0.7872370000000000 7.7472700000000003 5.4309500000000002 C
  atom -1.2334099999999999 6.5378900000000000 3.3249100000000000 H
  atom 0.7613470000000000 9.3270400000000002 3.9322100000000000 H
  atom 4.5644099999999996 11.4850999999999992 3.9681899999999999 H
  atom 2.9850099999999999 8.4275400000000005 3.3049599999999999 H
  atom 0.2407040000000000 8.0676299999999994 1.8589000000000000 H
  atom -0.7792440000000000 10.8117000000000001 5.2293300000000000 H
  atom 3.2364600000000001 9.8967600000000004 5.3085100000000001 H
  atom 4.4511900000000004 6.9283900000000003 1.9609500000000000 H
  atom -3.6242200000000002 8.4030000000000005 7.1274899999999999 H
  atom 2.7580800000000001 11.2982999999999993 0.0783650000000000 H
  atom 6.8692500000000001 9.4788599999999992 -0.0911828000000000 H
  atom 0.5784160000000000 6.3685700000000001 7.0441500000000001 H
  atom -2.9586199999999998 7.7109500000000004 4.8197500000000000 H
  atom 2.1526200000000002 10.5762999999999998 2.3704100000000001 H
  atom 6.2431999999999999 9.8758099999999995 2.3018800000000001 H
  atom 1.4759700000000000 7.0581500000000004 4.8879000000000001 H
  atom -5.8378399999999999 5.9648599999999998 9.5471400000000006 C
  atom -4.7260600000000004 8.9484499999999993 11.8736999999999995 C
  atom -0.6916750000000000 11.9132999999999996 11.8888999999999996 C
  atom -1.6758800000000000 8.7409400000000002 9.5981400000000008 C
  atom -5.0460000000000003 6.8645899999999997 8.8417200000000005 C
  atom -5.5049700000000001 9.8189600000000006 12.6361000000000008 C
  atom -1.4298800000000000 11.0448000000000004 12.6371000000000002 C
  atom -0.9137780000000000 7.8726200000000004 8.8073300000000003 C
  atom -4.5979999999999999 6.5225999999999997 7.5359400000000001 C
  atom -5.8272199999999996 9.4812399999999997 13.9673999999999996 C
  atom -1.7491600000000000 11.2482000000000006 13.9793000000000003 C
  atom -0.4892960000000000 8.2027500000000000 7.4832400000000003 C
  atom -8.6379900000000003 7.4889500000000000 13.7005999999999997 C
  atom -1.6565500000000000 10.3618000000000006 7.7463899999999999 C
  atom 2.2475100000000001 10.4036000000000008 7.7910599999999999 C
  atom -4.5960500000000000 7.3685299999999998 13.7065999999999999 C
  atom -8.2226300000000005 7.0414599999999998 12.4547000000000008 C
  atom -1.9938400000000001 10.0328999999999997 9.0783900000000006 C
  atom 1.8270999999999999 10.7752999999999997 9.0503800000000005 C
  atom -4.2741400000000001 7.7368499999999996 12.3846000000000007 C
  atom -6.1806099999999997 6.3022200000000002 10.5164000000000009 H
  atom -4.4654100000000003 9.2597799999999992 10.8716000000000008 H
  atom -0.4612410000000000 11.6491000000000007 10.8643000000000001 H
  atom -1.9873600000000000 8.4510699999999996 10.5832999999999995 H
  atom -4.6623999999999999 7.7722199999999999 9.3186300000000006 H
  atom -5.7906899999999997 10.7696000000000005 12.2394999999999996 H
  atom -1.6773700000000000 10.0946999999999996 12.1859000000000002 H
  atom -0.5481350000000000 6.9191200000000004 9.2454900000000002 H
  atom -8.3128799999999998 8.4454799999999999 14.0897000000000006 H
  atom -1.9648399999999999 11.2950999999999997 7.3038999999999996 H
  atom 1.9728699999999999 9.4521599999999992 7.3417899999999996 H
  atom -4.3201200000000002 6.3946699999999996 14.0772999999999993 H
  atom -7.5316299999999998 7.6409099999999999 11.8316999999999997 H
  atom -2.6778900000000001 10.6911000000000005 9.6070100000000007 H
  atom 1.2186699999999999 10.1006000000000000 9.6610300000000002 H
  atom -3.7336800000000001 7.0542100000000003 11.7278000000000002 H
  
  -----------------------------------------------------------------------
  Completed first pass over input file geometry.in .
  -----------------------------------------------------------------------
  

  Basic array size parameters:
  | Number of species                 :        2
  | Number of atoms                   :      144
  | Number of lattice vectors         :        3
  | Max. basis fn. angular momentum   :        2
  | Max. atomic/ionic basis occupied n:        2
  | Max. number of basis fn. types    :        2
  | Max. radial fns per species/type  :        3
  | Max. logarithmic grid size        :     1277
  | Max. radial integration grid size :       34
  | Max. angular integration grid size:      302
  | Max. angular grid division number :        8
  | Radial grid for Hartree potential :     1277
  | Number of spin channels           :        1

------------------------------------------------------------
          Reading file control.in.
------------------------------------------------------------
  XC: Using Perdew-Wang parametrisation of Ceperley-Alder LDA.
  Spin treatment: No spin polarisation.
  Non-relativistic treatment of kinetic energy.
  Charge =   0.000000E+00: Neutral system requested explicitly.
  Found k-point grid:         2         1         1
  DFPT calculation will begin after the DFT/HF calculation.
  Charge density mixing - mixing parameter:     0.7500
  Forces will not be computed.
 
  Reading configuration options for species H                   .
  | Found nuclear charge :   1.0000
  | Found atomic mass :    1.00794000000000      amu
  | Found l_max for Hartree potential  :   4
  | Found cutoff potl. onset [A], width [A], scale factor :    3.50000    1.50000    1.00000
  | Threshold for basis-dependent cutoff potential is   0.100000E-03
  | Found data for basic radial integration grid :    24 points, outermost radius =    5.000 A
  | Found multiplier for basic radial grid :   1
  | Found angular grid specification: user-specified.
  | Specified grid contains     5 separate shells.
  | Check grid settings after all constraints further below.
  | Found free-atom valence shell :  1 s   1.000
  | No ionic wave fns used. Skipping ion_occ.
  | Found hydrogenic basis function :  2 s   2.100
  | Found hydrogenic basis function :  2 p   3.500
  Species H                   : Missing cutoff potential type.
  Defaulting to exp(1/x)/(1-x)^2 type cutoff potential.
  Species H : No 'logarithmic' tag. Using default grid for free atom:
  | Default logarithmic grid data [bohr] : 0.1000E-03 0.1000E+03 0.1012E+01
  Species H : On-site basis accuracy parameter (for Gram-Schmidt orthonormalisation) not specified.
  Using default value basis_acc =  0.1000000E-03.
  Species H                   : Using default innermost maximum threshold i_radial=  2 for radial functions.
  Species H                   : Default cutoff onset for free atom density etc. : 0.35000000E+01 AA.
  Species H                   : Basic radial grid will be enhanced according to radial_multiplier =   1, to contain    24 grid points.
 
  Reading configuration options for species C                   .
  | Found nuclear charge :   6.0000
  | Found atomic mass :    12.0107000000000      amu
  | Found l_max for Hartree potential  :   4
  | Found cutoff potl. onset [A], width [A], scale factor :    3.50000    1.50000    1.00000
  | Threshold for basis-dependent cutoff potential is   0.100000E-03
  | Found data for basic radial integration grid :    34 points, outermost radius =    5.000 A
  | Found multiplier for basic radial grid :   1
  | Found angular grid specification: user-specified.
  | Specified grid contains     5 separate shells.
  | Check grid settings after all constraints further below.
  | Found free-atom valence shell :  2 s   2.000
  | Found free-atom valence shell :  2 p   2.000
  | No ionic wave fns used. Skipping ion_occ.
  | No ionic wave fns used. Skipping ion_occ.
  | Found hydrogenic basis function :  2 p   1.700
  | Found hydrogenic basis function :  3 d   6.000
  | Found hydrogenic basis function :  2 s   4.900
  Species C                   : Missing cutoff potential type.
  Defaulting to exp(1/x)/(1-x)^2 type cutoff potential.
  Species C : No 'logarithmic' tag. Using default grid for free atom:
  | Default logarithmic grid data [bohr] : 0.1000E-03 0.1000E+03 0.1012E+01
  Species C : On-site basis accuracy parameter (for Gram-Schmidt orthonormalisation) not specified.
  Using default value basis_acc =  0.1000000E-03.
  Species C                   : Using default innermost maximum threshold i_radial=  2 for radial functions.
  Species C                   : Default cutoff onset for free atom density etc. : 0.35000000E+01 AA.
  Species C                   : Basic radial grid will be enhanced according to radial_multiplier =   1, to contain    34 grid points.
 
  Finished reading input file 'control.in'.
 
------------------------------------------------------------


------------------------------------------------------------
          Reading geometry description geometry.in.
------------------------------------------------------------
  | The smallest distance between any two atoms is         1.06198916 AA.
  | The first atom of this pair is atom number                     89 .
  | The second atom of this pair is atom number                   105 .
  | Wigner-Seitz cell of the first atom image           0     0     0 .
  | (The Wigner-Seitz cell of the second atom is 0 0 0  by definition.)

  Symmetry information by spglib:
  | Precision set to  0.1E-04
  | Number of Operations  : 1
  | Space group           : 1
  | International         : P1
  | Schoenflies           : C1^1
  Input structure read successfully.
  The structure contains      144 atoms,  and a total of        544.000 electrons.

  Input geometry:
  | Unit cell:
  |        8.10200000        0.00000000        0.00000000
  |        0.00000000       11.88000000        0.00000000
  |       -9.78509185        0.00000000       14.25711196
  | Atomic structure:
  |       Atom                x [A]            y [A]            z [A]
  |    1: Species C            -0.87740600       -0.05675790        2.35873000
  |    2: Species C             0.04828310        3.23421000        4.70593000
  |    3: Species C             4.19271000        5.83575000        4.92008000
  |    4: Species C             3.31318000        2.87650000        2.51487000
  |    5: Species C            -0.05245580        0.85497200        1.68079000
  |    6: Species C            -0.64240000        4.07673000        5.50294000
  |    7: Species C             3.40473000        4.97823000        5.62382000
  |    8: Species C             4.13027000        2.04321000        1.77639000
  |    9: Species C             0.39813000        0.56197400        0.35988500
  |   10: Species C            -0.98235800        3.69428000        6.85306000
  |   11: Species C             3.03823000        5.24236000        6.98479000
  |   12: Species C             4.46272000        2.35014000        0.43109200
  |   13: Species C            -3.92325000        1.52867000        6.75589000
  |   14: Species C             3.16141000        4.50588000        0.67032200
  |   15: Species C             7.21172000        4.53795000        0.57731600
  |   16: Species C             0.19021200        1.53477000        6.48735000
  |   17: Species C            -3.51889000        1.15807000        5.49029000
  |   18: Species C             2.84453000        4.09939000        1.95065000
  |   19: Species C             6.79541000        4.95268000        1.81860000
  |   20: Species C             0.50855800        1.98873000        5.21079000
  |   21: Species H            -1.17545000        0.16064100        3.39470000
  |   22: Species H             0.41344600        3.55478000        3.72160000
  |   23: Species H             4.42354000        5.58382000        3.85819000
  |   24: Species H             3.05188000        2.60842000        3.53170000
  |   25: Species H             0.28715900        1.79112000        2.15923000
  |   26: Species H            -1.01707000        5.02225000        5.14354000
  |   27: Species H             3.05696000        4.02116000        5.15356000
  |   28: Species H             4.48580000        1.10375000        2.23220000
  |   29: Species H            -3.61202000        2.47450000        7.16699000
  |   30: Species H             2.82330000        5.45668000        0.25266900
  |   31: Species H             6.99740000        3.53701000        0.22356600
  |   32: Species H             0.57809700        0.55945900        6.84428000
  |   33: Species H            -2.89274000        1.83318000        4.89034000
  |   34: Species H             2.20309000        4.75036000        2.54293000
  |   35: Species H             6.20046000        4.27933000        2.42434000
  |   36: Species H             1.09721000        1.39123000        4.51349000
  |   37: Species C            -5.86771000        0.15711600        9.59450000
  |   38: Species C            -4.73077000        3.04727000       12.07030000
  |   39: Species C            -0.50472700        5.75509000       11.93770000
  |   40: Species C            -1.76629000        2.79055000        9.42799000
  |   41: Species C            -5.12167000        1.03769000        8.81481000
  |   42: Species C            -5.46056000        3.93708000       12.81020000
  |   43: Species C            -1.35336000        4.95415000       12.69280000
  |   44: Species C            -0.98883400        1.97144000        8.60001000
  |   45: Species C            -4.73207000        0.68283400        7.52358000
  |   46: Species C            -5.80482000        3.61267000       14.14370000
  |   47: Species C            -1.76902000        5.37108000       13.99910000
  |   48: Species C            -0.59699200        2.39898000        7.31114000
  |   49: Species C            -8.58928000        1.45191000       13.87220000
  |   50: Species C            -1.68242000        4.55215000        7.76511000
  |   51: Species C             2.22153000        4.37200000        7.69506000
  |   52: Species C            -4.53593000        1.47299000       13.87220000
  |   53: Species C            -8.30335000        1.21129000       12.52030000
  |   54: Species C            -2.06196000        4.13367000        9.02488000
  |   55: Species C             1.82875000        4.74469000        8.98222000
  |   56: Species C            -4.22179000        1.84730000       12.59800000
  |   57: Species H            -6.15561000        0.48243700       10.60200000
  |   58: Species H            -4.49587000        3.23429000       11.02590000
  |   59: Species H            -0.17583700        5.37864000       10.94830000
  |   60: Species H            -2.11712000        2.40829000       10.40350000
  |   61: Species H            -4.78509000        1.95996000        9.27981000
  |   62: Species H            -5.82007000        4.88317000       12.39520000
  |   63: Species H            -1.68598000        3.96565000       12.37960000
  |   64: Species H            -0.66366600        0.97135900        8.87678000
  |   65: Species H            -8.13463000        2.33544000       14.32500000
  |   66: Species H            -2.00307000        5.51043000        7.38098000
  |   67: Species H             1.88014000        3.46315000        7.23186000
  |   68: Species H            -4.27881000        0.47388700       14.23680000
  |   69: Species H            -7.60688000        1.91519000       12.03620000
  |   70: Species H            -2.65649000        4.75016000        9.67614000
  |   71: Species H             1.12072000        4.06922000        9.51670000
  |   72: Species H            -3.67721000        1.16894000       11.91660000
  |   73: Species C            -0.90021100        6.20549000        2.33319000
  |   74: Species C             0.38882200        9.01219000        4.92438000
  |   75: Species C             4.24984000       11.78330000        4.95202000
  |   76: Species C             3.32870000        8.74419000        2.33284000
  |   77: Species C            -0.10133700        7.04987000        1.54519000
  |   78: Species C            -0.49087200        9.83292000        5.62202000
  |   79: Species C             3.45066000       10.91590000        5.69253000
  |   80: Species C             4.10570000        7.91056000        1.58588000
  |   81: Species C             0.33083600        6.66257000        0.25033600
  |   82: Species C            -0.89548800        9.48984000        6.93874000
  |   83: Species C             3.02656000       11.28330000        6.99676000
  |   84: Species C             4.44673000        8.25394000        0.23882200
  |   85: Species C            -3.84472000        7.41156000        6.72776000
  |   86: Species C             3.14186000       10.36530000        0.49240900
  |   87: Species C             7.18755000       10.37690000        0.44727500
  |   88: Species C             0.31814900        7.33458000        6.66359000
  |   89: Species C            -3.48583000        7.03072000        5.44197000
  |   90: Species C             2.78586000        9.94178000        1.77862000
  |   91: Species C             6.82109000       10.62440000        1.75320000
  |   92: Species C             0.78723700        7.74727000        5.43095000
  |   93: Species H            -1.23341000        6.53789000        3.32491000
  |   94: Species H             0.76134700        9.32704000        3.93221000
  |   95: Species H             4.56441000       11.48510000        3.96819000
  |   96: Species H             2.98501000        8.42754000        3.30496000
  |   97: Species H             0.24070400        8.06763000        1.85890000
  |   98: Species H            -0.77924400       10.81170000        5.22933000
  |   99: Species H             3.23646000        9.89676000        5.30851000
  |  100: Species H             4.45119000        6.92839000        1.96095000
  |  101: Species H            -3.62422000        8.40300000        7.12749000
  |  102: Species H             2.75808000       11.29830000        0.07836500
  |  103: Species H             6.86925000        9.47886000       -0.09118280
  |  104: Species H             0.57841600        6.36857000        7.04415000
  |  105: Species H            -2.95862000        7.71095000        4.81975000
  |  106: Species H             2.15262000       10.57630000        2.37041000
  |  107: Species H             6.24320000        9.87581000        2.30188000
  |  108: Species H             1.47597000        7.05815000        4.88790000
  |  109: Species C            -5.83784000        5.96486000        9.54714000
  |  110: Species C            -4.72606000        8.94845000       11.87370000
  |  111: Species C            -0.69167500       11.91330000       11.88890000
  |  112: Species C            -1.67588000        8.74094000        9.59814000
  |  113: Species C            -5.04600000        6.86459000        8.84172000
  |  114: Species C            -5.50497000        9.81896000       12.63610000
  |  115: Species C            -1.42988000       11.04480000       12.63710000
  |  116: Species C            -0.91377800        7.87262000        8.80733000
  |  117: Species C            -4.59800000        6.52260000        7.53594000
  |  118: Species C            -5.82722000        9.48124000       13.96740000
  |  119: Species C            -1.74916000       11.24820000       13.97930000
  |  120: Species C            -0.48929600        8.20275000        7.48324000
  |  121: Species C            -8.63799000        7.48895000       13.70060000
  |  122: Species C            -1.65655000       10.36180000        7.74639000
  |  123: Species C             2.24751000       10.40360000        7.79106000
  |  124: Species C            -4.59605000        7.36853000       13.70660000
  |  125: Species C            -8.22263000        7.04146000       12.45470000
  |  126: Species C            -1.99384000       10.03290000        9.07839000
  |  127: Species C             1.82710000       10.77530000        9.05038000
  |  128: Species C            -4.27414000        7.73685000       12.38460000
  |  129: Species H            -6.18061000        6.30222000       10.51640000
  |  130: Species H            -4.46541000        9.25978000       10.87160000
  |  131: Species H            -0.46124100       11.64910000       10.86430000
  |  132: Species H            -1.98736000        8.45107000       10.58330000
  |  133: Species H            -4.66240000        7.77222000        9.31863000
  |  134: Species H            -5.79069000       10.76960000       12.23950000
  |  135: Species H            -1.67737000       10.09470000       12.18590000
  |  136: Species H            -0.54813500        6.91912000        9.24549000
  |  137: Species H            -8.31288000        8.44548000       14.08970000
  |  138: Species H            -1.96484000       11.29510000        7.30390000
  |  139: Species H             1.97287000        9.45216000        7.34179000
  |  140: Species H            -4.32012000        6.39467000       14.07730000
  |  141: Species H            -7.53163000        7.64091000       11.83170000
  |  142: Species H            -2.67789000       10.69110000        9.60701000
  |  143: Species H             1.21867000       10.10060000        9.66103000
  |  144: Species H            -3.73368000        7.05421000       11.72780000

  Lattice parameters for 3D lattice (in Angstroms) :     8.102000   11.880000   17.292000
  Angle(s) between unit vectors (in degrees)       :    90.000000  124.463000   90.000000


  Quantities derived from the lattice vectors (in Angstrom^-1):
  | Reciprocal lattice vector 1:  0.775510  0.000000  0.532257
  | Reciprocal lattice vector 2:  0.000000  0.528888  0.000000
  | Reciprocal lattice vector 3: -0.000000  0.000000  0.440705
  | Unit cell volume                               :   0.137227E+04  Angstrom^3

  Fractional coordinates:
                         L1                L2                L3
       atom_frac         0.09151599       -0.00477760        0.16544234  C
       atom_frac         0.40460463        0.27223990        0.33007597  C
       atom_frac         0.93427689        0.49122475        0.34509654  C
       atom_frac         0.62197139        0.24212963        0.17639407  C
       atom_frac         0.13590740        0.07196734        0.11789134  C
       atom_frac         0.38687188        0.34315909        0.38597859  C
       atom_frac         0.89663412        0.41904293        0.39445717  C
       atom_frac         0.66026423        0.17198737        0.12459676  C
       atom_frac         0.07962603        0.04730421        0.02524249  C
       atom_frac         0.45928247        0.31096633        0.48067659  C
       atom_frac         0.96668785        0.44127609        0.48991619  C
       atom_frac         0.58733543        0.19782323        0.03023698  C
       atom_frac         0.08806762        0.12867593        0.47386105  C
       atom_frac         0.44698500        0.37928283        0.04701668  C
       atom_frac         0.93902118        0.38198232        0.04049319  C
       atom_frac         0.57302872        0.12918939        0.45502554  C
       atom_frac         0.03076572        0.09748064        0.38509132  C
       atom_frac         0.51633186        0.34506650        0.13681943  C
       atom_frac         0.99278830        0.41689226        0.12755739  C
       atom_frac         0.50418199        0.16740152        0.36548706  C
       atom_frac         0.14248783        0.01352197        0.23810573  H
       atom_frac         0.36629152        0.29922391        0.26103463  H
       atom_frac         0.87281335        0.47001852        0.27061512  H
       atom_frac         0.67585703        0.21956397        0.24771497  H
       atom_frac         0.21835406        0.15076768        0.15144933  H
       atom_frac         0.31018252        0.42274832        0.36077012  H
       atom_frac         0.81387383        0.33848148        0.36147293  H
       atom_frac         0.74275822        0.09290825        0.15656747  H
       atom_frac         0.16130639        0.20829125        0.50269578  H
       atom_frac         0.36987342        0.45931650        0.01772231  H
       atom_frac         0.88260185        0.29772811        0.01568102  H
       atom_frac         0.65113992        0.04709251        0.48006076  H
       atom_frac         0.05722659        0.15430808        0.34301056  H
       atom_frac         0.48733407        0.39986195        0.17836221  H
       atom_frac         0.97066881        0.36021296        0.17004426  H
       atom_frac         0.51776798        0.11710690        0.31657814  H
       atom_frac         0.08853230        0.01322525        0.67296238  C
       atom_frac         0.43858874        0.25650421        0.84661606  C
       atom_frac         0.94896094        0.48443519        0.83731544  C
       atom_frac         0.58065018        0.23489478        0.66128330  C
       atom_frac         0.11456475        0.08734764        0.61827459  C
       atom_frac         0.41119130        0.33140404        0.89851297  C
       atom_frac         0.90818276        0.41701599        0.89027848  C
       atom_frac         0.60646949        0.16594613        0.60320842  C
       atom_frac         0.05326993        0.05747761        0.52770716  C
       atom_frac         0.48166302        0.30409680        0.99204524  C
       atom_frac         0.96753769        0.45211111        0.98190293  C
       atom_frac         0.54565131        0.20193434        0.51280652  C
       atom_frac         0.11498827        0.12221465        0.97300211  C
       atom_frac         0.45013730        0.38317761        0.54464817  C
       atom_frac         0.92605344        0.36801347        0.53973484  C
       atom_frac         0.61527833        0.12398906        0.97300211  C
       atom_frac         0.03575842        0.10196044        0.87817926  C
       atom_frac         0.51000877        0.34795202        0.63300899  C
       atom_frac         0.98661099        0.39938468        0.63001680  C
       atom_frac         0.54611239        0.15549663        0.88362917  C
       atom_frac         0.13834445        0.04060918        0.74362887  H
       atom_frac         0.37910914        0.27224663        0.77336140  H
       atom_frac         0.90574130        0.45274747        0.76791850  H
       atom_frac         0.61998521        0.20271801        0.72970599  H
       atom_frac         0.19549831        0.16497980        0.65088989  H
       atom_frac         0.33166314        0.41104125        0.86940469  H
       atom_frac         0.84059713        0.33380892        0.86831050  H
       atom_frac         0.67004931        0.08176423        0.62262119  H
       atom_frac         0.20946130        0.19658586        1.00476170  H
       atom_frac         0.37802052        0.46384091        0.51770513  H
       atom_frac         0.84467868        0.29151094        0.50724579  H
       atom_frac         0.67789942        0.03988948        0.99857531  H
       atom_frac         0.08071242        0.16121128        0.84422427  H
       atom_frac         0.49179718        0.39984512        0.67868865  H
       atom_frac         0.94449792        0.34252694        0.66750545  H
       atom_frac         0.55560564        0.09839562        0.83583548  H
       atom_frac         0.08653772        0.52234764        0.16365096  C
       atom_frac         0.46514127        0.75860185        0.34539814  C
       atom_frac         0.94403391        0.99186027        0.34733682  C
       atom_frac         0.60846697        0.73604293        0.16362641  C
       atom_frac         0.11838733        0.59342340        0.10838029  C
       atom_frac         0.41566184        0.82768687        0.39433091  C
       atom_frac         0.90812360        0.91884680        0.39927652  C
       atom_frac         0.64109330        0.66587205        0.11123431  C
       atom_frac         0.06204014        0.56082239        0.01755868  C
       atom_frac         0.47726258        0.79880808        0.48668622  C
       atom_frac         0.96626146        0.94977273        0.49075577  C
       atom_frac         0.56907441        0.69477609        0.01675108  C
       atom_frac         0.09537736        0.62386869        0.47188800  C
       atom_frac         0.42950078        0.87250000        0.03453778  C
       atom_frac         0.92502203        0.87347643        0.03137206  C
       atom_frac         0.60374902        0.61738889        0.46738708  C
       atom_frac         0.03075295        0.59181145        0.38170213  C
       atom_frac         0.49451756        0.83685017        0.12475318  C
       atom_frac         0.99041777        0.89430976        0.12297021  C
       atom_frac         0.55722834        0.65212710        0.38092918  C
       atom_frac         0.12942204        0.55032744        0.23321063  H
       atom_frac         0.42707269        0.78510438        0.27580691  H
       atom_frac         0.89951865        0.96675926        0.27833056  H
       atom_frac         0.64839609        0.70938889        0.23181132  H
       atom_frac         0.18717896        0.67909343        0.13038405  H
       atom_frac         0.34680388        0.91007576        0.36678747  H
       atom_frac         0.84915487        0.83306061        0.37234119  H
       atom_frac         0.71550851        0.58319781        0.13754188  H
       atom_frac         0.15645449        0.70732323        0.49992523  H
       atom_frac         0.34705805        0.95103535        0.00549655  H
       atom_frac         0.84012200        0.79788384       -0.00639560  H
       atom_frac         0.66811053        0.53607492        0.49407973  H
       atom_frac         0.04311550        0.64906987        0.33805935  H
       atom_frac         0.46649036        0.89026094        0.16626158  H
       atom_frac         0.96557031        0.83129714        0.16145486  H
       atom_frac         0.59623367        0.59412037        0.34283942  H
       atom_frac         0.08820712        0.50209259        0.66964053  C
       atom_frac         0.42251584        0.75323653        0.83282645  C
       atom_frac         0.92175272        1.00280303        0.83389259  C
       atom_frac         0.60622278        0.73576936        0.67321769  C
       atom_frac         0.12618400        0.57782744        0.62016207  C
       atom_frac         0.39096171        0.82651178        0.88630152  C
       atom_frac         0.89401976        0.92969697        0.88637166  C
       atom_frac         0.63329571        0.66267845        0.61774994  C
       atom_frac         0.07086473        0.54904040        0.52857409  C
       atom_frac         0.46396367        0.79808418        0.97967948  C
       atom_frac         0.96831165        0.94681818        0.98051415  C
       atom_frac         0.57352264        0.69046717        0.52487769  C
       atom_frac         0.09443973        0.63038300        0.96096601  C
       atom_frac         0.45174454        0.87220539        0.54333515  C
       atom_frac         0.93739233        0.87572391        0.54646832  C
       atom_frac         0.59382975        0.62024663        0.96138685  C
       atom_frac         0.04016433        0.59271549        0.87357805  C
       atom_frac         0.52294947        0.84452020        0.63676220  C
       atom_frac         0.99218125        0.90701178        0.63479757  C
       atom_frac         0.52157364        0.65125000        0.86866120  C
       atom_frac         0.12800751        0.53048990        0.73762484  H
       atom_frac         0.36979776        0.77944276        0.76253873  H
       atom_frac         0.86339919        0.98056397        0.76202670  H
       atom_frac         0.65123209        0.71136953        0.74231724  H
       atom_frac         0.21392998        0.65422727        0.65361274  H
       atom_frac         0.32209986        0.90653199        0.85848382  H
       atom_frac         0.82525127        0.84972222        0.85472430  H
       atom_frac         0.71554276        0.58241751        0.64848267  H
       atom_frac         0.16752801        0.71089899        0.98825765  H
       atom_frac         0.37620956        0.95076599        0.51229871  H
       atom_frac         0.86543631        0.79563636        0.51495633  H
       atom_frac         0.65928924        0.53827189        0.98738791  H
       atom_frac         0.07267680        0.64317424        0.82988056  H
       atom_frac         0.48329976        0.89992424        0.67383984  H
       atom_frac         0.96881391        0.85021886        0.67762882  H
       atom_frac         0.53264228        0.59378872        0.82259296  H

 
  Finished reading input file 'geometry.in'.
 

 
  Consistency checks for stacksize environment parameter are next.
 
  | Maximum stacksize for task 0: unlimited
  | Maximum stacksize for task 1: unlimited
  | Maximum stacksize for task 2: unlimited
  | Maximum stacksize for task 3: unlimited
  | Maximum stacksize for task 4: unlimited
  | Maximum stacksize for task 5: unlimited
  | Maximum stacksize for task 6: unlimited
  | Maximum stacksize for task 7: unlimited
  | Maximum stacksize for task 8: unlimited
  | Maximum stacksize for task 9: unlimited
  | Maximum stacksize for task 10: unlimited
  | Maximum stacksize for task 11: unlimited
  | Maximum stacksize for task 12: unlimited
  | Maximum stacksize for task 13: unlimited
  | Maximum stacksize for task 14: unlimited
  | Maximum stacksize for task 15: unlimited
  | Maximum stacksize for task 16: unlimited
  | Maximum stacksize for task 17: unlimited
  | Current stacksize for task 0: unlimited
  | Current stacksize for task 1: unlimited
  | Current stacksize for task 2: unlimited
  | Current stacksize for task 3: unlimited
  | Current stacksize for task 4: unlimited
  | Current stacksize for task 5: unlimited
  | Current stacksize for task 6: unlimited
  | Current stacksize for task 7: unlimited
  | Current stacksize for task 8: unlimited
  | Current stacksize for task 9: unlimited
  | Current stacksize for task 10: unlimited
  | Current stacksize for task 11: unlimited
  | Current stacksize for task 12: unlimited
  | Current stacksize for task 13: unlimited
  | Current stacksize for task 14: unlimited
  | Current stacksize for task 15: unlimited
  | Current stacksize for task 16: unlimited
  | Current stacksize for task 17: unlimited
 
  Consistency checks for the contents of control.in are next.
 
  MPI_IN_PLACE appears to work with this MPI implementation.
  | Keeping use_mpi_in_place .true. (see manual).
  Explicit treatment of the Coulomb operator is needed, but the RI method is not specified.
  Coulomb operator: Defaulting to 'LVL fast' resolution of identity - RI_type = LVL_fast
  Species H: Using default value for prodbas_acc =   1.000000E-06.
  Species H: Using default value max_l_prodbas =     6.
  Species C: Using default value for prodbas_acc =   1.000000E-06.
  Species C: Using default value max_l_prodbas =     6.
  Target number of points in a grid batch is not set.  Since GPU acceleration is enabled, defaulting to  200
  Method for grid partitioning is not set. Defaulting to parallel hash+maxmin partitioning.
  Batch size limit is not set. Defaulting to    200
  By default, will store active basis functions for each batch.
  If in need of memory, prune_basis_once .false. can be used to disable this option.
  communication_type for Hartree potential was not specified.
  Defaulting to calc_hartree .
  Defaulting to Pulay charge density mixer.
  Pulay mixer: Number of relevant iterations not set.
  Defaulting to    8 iterations.
  Pulay mixer: Number of initial linear mixing iterations not set.
  Defaulting to    0 iterations.
  Work space size for distributed Hartree potential not set.
  Defaulting to   0.200000E+03 MB.
  Algorithm-dependent basis array size parameters:
  | n_max_pulay                         :        8
  Maximum number of self-consistency iterations not provided.
  Presetting  1000 iterations.
  Presetting      1001 iterations before the initial mixing cycle
  is restarted anyway using the sc_init_iter criterion / keyword.
  Presetting a factor      1.000 between actual scf density residual
  and density convergence criterion sc_accuracy_rho below which sc_init_iter
  takes no effect.
 * No s.c.f. convergence criteria (sc_accuracy_*) were provided in control.in.
 * The run will proceed with a reasonable default guess, but please check whether.
 * the s.c.f. cycles seem to take too much or too little time.
  Geometry relaxation not requested: no relaxation will be performed.
 * Notice: The s.c.f. convergence criterion sc_accuracy_rho was not provided.
 * We used to stop in this case, and ask the user to provide reasonable
 * scf convergence criteria. However, this led some users to employ criteria
 * that led to extremely long run times, e.g., for simple relaxation.
 * We now preset a default value for sc_accuracy_rho if it is not set.
 * You may still wish to check if this setting is too tight or too loose for your needs.
 * Based on n_atoms and forces and force-correction status, FHI-aims chose sc_accuracy_rho =  0.391918E-04 .
  No accuracy limit for integral partition fn. given. Defaulting to  0.1000E-14.
  No threshold value for u(r) in integrations given. Defaulting to  0.1000E-05.
  No occupation type (smearing scheme) given. Defaulting to Gaussian broadening, width =  0.1000E-01 eV.
  The width will be adjusted in iteration number     2 of the first full s.c.f. cycle only.
  S.C.F. convergence parameters will be adjusted in iteration number     2 of the first full s.c.f. cycle only.
  No accuracy for occupation numbers given. Defaulting to  0.1000E-12.
  No threshold value for occupation numbers given. Defaulting to  0.0000E+00.
  No accuracy for fermi level given. Defaulting to  0.1000E-19.
  Maximum # of iterations to find E_F not set. Defaulting to  200.
  Preferred method for the eigenvalue solver ('KS_method') not specified in 'control.in'.
  Calling BLACS routine to test compilation state
  Since ScaLAPACK support is enabled, defaulting to ELPA (via ELSI).
  Will not use alltoall communication since running on < 1024 CPUs.
  Threshold for basis singularities not set.
  Default threshold for basis singularities:  0.1000E-04
  partition_type (choice of integration weights) for integrals was not specified.
  | Using a version of the partition function of Stratmann and coworkers ('stratmann_sparse').
  | At each grid point, the set of atoms used to build the partition table is smoothly restricted to
  | only those atoms whose free-atom density would be non-zero at that grid point.
  Partitioning for Hartree potential was not defined. Using partition_type for integrals.
  | Adjusted default value of keyword multip_moments_threshold to:       0.10000000E-11
  | This value may affect high angular momentum components of the Hartree potential in periodic systems.
  Angular momentum expansion for Kerker preconditioner not set explicitly.
  | Using default value of   0
  No explicit requirement for turning off preconditioner.
  | By default, it will be turned off when the charge convergence reaches
  | sc_accuracy_rho  =   0.391918E-04
  No special mixing parameter while Kerker preconditioner is on.
  Using default: charge_mix_param =     0.7500.
  Threshold for auxiliary basis singularities not set.
  Default threshold for auxiliary basis singularities:  0.1000E-04
  No q(lm)/r^(l+1) cutoff set for long-range Hartree potential.
  | Using default value of  0.100000E-09 .
  | Verify using the multipole_threshold keyword.
  Defaulting to new monopole extrapolation.
  Density update method: automatic selection selected.
  Using density matrix based charge density update.
  Using density matrix based charge density update.
  Using packed matrix style: index .
  Defaulting to use time-reversal symmetry for k-point grid.
  Charge integration errors on the 3D integration grid will be compensated
  by explicit normalization and distribution of residual charges.
  Use the "compensate_multipole_errors" flag to change this behaviour.
  Default to 1D ("use_logsbt") integrations for auxiliary 2-center integrals.
  Default onset of logarithmic r-grid for SBT is -38.000000000000
  Default onset of logarithmic k-grid for SBT is -25.000000000000
  Default range of logarithmic r- and k-grid for SBT is  45.000000000000
  Default number of logarithmic r- and k-grid for SBT is   4096
  Default of use_2d_corr is to use the efficient 2D distribution where possible
 
  Consistency checks for the contents of geometry.in are next.
 

  Range separation radius for Ewald summation (hartree_convergence_parameter):      2.91768261 bohr.
  Number of empty states per atom not set in control.in .
  | Since you are using a method that relies on the unoccupied spectrum
  | (MP2,GW,RPA et al.), will use the full Hamiltonian size (see below)
  | as the max. possible number of states (occupied plus empty).

  Structure-dependent array size parameters: 
  | Maximum number of distinct radial functions  :        9
  | Maximum number of basis functions            :     1440
  | Number of Kohn-Sham states (occupied + empty):     1440
------------------------------------------------------------
CUDA runtime version: 11060
CUDA driver version: 11060
  Initializing GPUs...

  Number of GPUs available to MPI task         0 :   1
  Number of GPUs available to MPI task         1 :   1
  Number of GPUs available to MPI task         2 :   1
  Number of GPUs available to MPI task         3 :   1
  Number of GPUs available to MPI task         4 :   1
  Number of GPUs available to MPI task         5 :   1
  Number of GPUs available to MPI task         6 :   1
  Number of GPUs available to MPI task         7 :   1
  Number of GPUs available to MPI task         8 :   1
  Number of GPUs available to MPI task         9 :   1
  Number of GPUs available to MPI task        10 :   1
  Number of GPUs available to MPI task        11 :   1
  Number of GPUs available to MPI task        12 :   1
  Number of GPUs available to MPI task        13 :   1
  Number of GPUs available to MPI task        14 :   1
  Number of GPUs available to MPI task        15 :   1
  Number of GPUs available to MPI task        16 :   1
  Number of GPUs available to MPI task        17 :   1

  | MPI task         0, GPU activated = T, Device Name = NVIDIA A100-SXM4-80GB
  | MPI task         1, GPU activated = T, Device Name = NVIDIA A100-SXM4-80GB
  | MPI task         2, GPU activated = T, Device Name = NVIDIA A100-SXM4-80GB
  | MPI task         3, GPU activated = T, Device Name = NVIDIA A100-SXM4-80GB
  | MPI task         4, GPU activated = T, Device Name = NVIDIA A100-SXM4-80GB
  | MPI task         5, GPU activated = T, Device Name = NVIDIA A100-SXM4-80GB
  | MPI task         6, GPU activated = T, Device Name = NVIDIA A100-SXM4-80GB
  | MPI task         7, GPU activated = T, Device Name = NVIDIA A100-SXM4-80GB
  | MPI task         8, GPU activated = T, Device Name = NVIDIA A100-SXM4-80GB
  | MPI task         9, GPU activated = T, Device Name = NVIDIA A100-SXM4-80GB
  | MPI task        10, GPU activated = T, Device Name = NVIDIA A100-SXM4-80GB
  | MPI task        11, GPU activated = T, Device Name = NVIDIA A100-SXM4-80GB
  | MPI task        12, GPU activated = T, Device Name = NVIDIA A100-SXM4-80GB
  | MPI task        13, GPU activated = T, Device Name = NVIDIA A100-SXM4-80GB
  | MPI task        14, GPU activated = T, Device Name = NVIDIA A100-SXM4-80GB
  | MPI task        15, GPU activated = T, Device Name = NVIDIA A100-SXM4-80GB
  | MPI task        16, GPU activated = T, Device Name = NVIDIA A100-SXM4-80GB
  | MPI task        17, GPU activated = T, Device Name = NVIDIA A100-SXM4-80GB

------------------------------------------------------------
          Preparing all fixed parts of the calculation.
------------------------------------------------------------
  Determining machine precision:
    2.225073858507201E-308
  Setting up grids for atomic and cluster calculations.

  Creating wave function, potential, and density for free atoms.
  Runtime choices for atomic solver:
  | atomic solver xc        : PW-LDA
  | compute density gradient: 0
  | compute kinetic density : F

  Species: H

  List of occupied orbitals and eigenvalues:
    n    l              occ      energy [Ha]    energy [eV]
    1    0           1.0000        -0.232375        -6.3233


  Species: C

  List of occupied orbitals and eigenvalues:
    n    l              occ      energy [Ha]    energy [eV]
    1    0           2.0000        -9.944615      -270.6068
    2    0           2.0000        -0.498807       -13.5732
    2    1           2.0000        -0.196968        -5.3598


  Adding cutoff potential to free-atom effective potential.
  Creating fixed part of basis set: Ionic, confined, hydrogenic.
 
  H                    hydrogenic:
 
  List of hydrogenic basis orbitals: 
    n    l      effective z      eigenvalue [eV]  inner max. [A]     outer max. [A]     outer radius [A]   
    2    0         2.100000       -14.9728           0.193243           1.317208           4.583499
    2    1         3.500000       -41.6669           0.602369           0.602369           3.723403
 
 
  C                    hydrogenic:
 
  List of hydrogenic basis orbitals: 
    n    l      effective z      eigenvalue [eV]  inner max. [A]     outer max. [A]     outer radius [A]   
    2    1         1.700000        -9.7616           1.230570           1.230570           4.607917
    3    2         6.000000       -54.4224           0.792453           0.792453           3.883070
    2    0         4.900000       -81.6679           0.082559           0.562749           3.078220
 
  Creating atomic-like basis functions for current effective potential.

  Species H                   :

  List of atomic basis orbitals and eigenvalues:
    n    l      energy [Ha]    energy [eV]    outer radius [A]
    1    0        -0.232375        -6.3233       4.527807


  Species C                   :

  List of atomic basis orbitals and eigenvalues:
    n    l      energy [Ha]    energy [eV]    outer radius [A]
    1    0        -9.944615      -270.6068       1.934409
    2    0        -0.498807       -13.5732       4.496620
    2    1        -0.196968        -5.3598       4.551928

  Assembling full basis from fixed parts.
  | Species H :   atomic orbital   1 s accepted.
  | Species H :    hydro orbital   2 s accepted.
  | Species H :    hydro orbital   2 p accepted.
  | Species C :   atomic orbital   1 s accepted.
  | Species C :    hydro orbital   2 s accepted.
  | Species C :   atomic orbital   2 s accepted.
  | Species C :   atomic orbital   2 p accepted.
  | Species C :    hydro orbital   2 p accepted.
  | Species C :    hydro orbital   3 d accepted.
 
  Basis size parameters after reduction:
  | Total number of radial functions:        9
  | Total number of basis functions :     1440
 
  Per-task memory consumption for arrays in subroutine allocate_ext:
  |           2.242384MB.
  Testing on-site integration grid accuracy.
  |  Species  Function  <phi|h_atom|phi> (log., in eV)  <phi|h_atom|phi> (rad., in eV)
           1        1                 -6.3245358373                 -6.3232436907
           1        2                 14.1326137532                 14.1384481100
           1        3                 25.3627025200                 25.3628451197
           2        4               -270.6067544938               -270.6067222788
           2        5                -10.5634280949                -10.5635685736
           2        6                 16.2089822398                 16.2052121796
           2        7                 -5.3613872565                 -5.3627872378
           2        8                  8.5292058327                  8.5051734780
           2        9                 27.4884461005                 27.4884542459

  Preparing densities etc. for the partition functions (integrals / Hartree potential).

  Preparations completed.
  max(cpu_time)          :      0.081 s.
  Wall clock time (cpu1) :      0.076 s.
------------------------------------------------------------

  Initializing index lists of integration centers etc. from given atomic structure:
  Mapping all atomic coordinates to central unit cell.

  Initializing the k-points
  Using symmetry for reducing the k-points
  | k-points reduced from:        2 to        2
  | Number of k-points                             :         2
  | Consuming          0 KiB for k_phase_exx.
  The eigenvectors in the calculations are REAL.
  | Number of basis functions in the Hamiltonian integrals :      8042
  | Number of basis functions in a single unit cell        :      1440
  | Number of centers in hartree potential         :      3329
  | Number of centers in hartree multipole         :      2562
  | Number of centers in electron density summation:      2007
  | Number of centers in basis integrals           :      2124
  | Number of centers in integrals                 :       965
  | Number of centers in hamiltonian               :      2010
  | Consuming          1 KiB for k_phase.
  | Number of super-cells (origin) [n_cells]                     :         175
  | Number of super-cells (after PM_index) [n_cells]             :          40
  | Number of super-cells in hamiltonian [n_cells_in_hamiltonian]:          40
  | Size of matrix packed + index [n_hamiltonian_matrix_size] :     1932152
  | Size of matrix packed + index (no_symmetry):     3861487

------------------------------------------------------------
          Begin self-consistency loop: Initialization.

          Date     :  20230119, Time     :  214819.479
------------------------------------------------------------
  | Estimated reciprocal-space cutoff momentum G_max:         3.24344278 bohr^-1 .
  | Reciprocal lattice points for long-range Hartree potential:    5310
  Using simple linear distribution as default method for k-point parallelism.
  * Using 18 tasks for Scalapack Eigenvalue solver.
  Detailed listing of tasks and assigned k-points:
   Task     0 k-point     1 on adag015
   Task     1 k-point     1 on adag015
   Task     2 k-point     1 on adag015
   Task     3 k-point     1 on adag015
   Task     4 k-point     1 on adag015
   Task     5 k-point     1 on adag015
   Task     6 k-point     1 on adag015
   Task     7 k-point     1 on adag015
   Task     8 k-point     1 on adag015
   Task     9 k-point     2 on adag015
   Task    10 k-point     2 on adag015
   Task    11 k-point     2 on adag015
   Task    12 k-point     2 on adag015
   Task    13 k-point     2 on adag015
   Task    14 k-point     2 on adag015
   Task    15 k-point     2 on adag015
   Task    16 k-point     2 on adag015
   Task    17 k-point     2 on adag015
  K-point:     1 Tasks:     9 split into      3 X      3 BLACS grid
  Calculating block size based on n_basis =         1440  max_nprow =            3  max_npcol =            3
  ScaLAPACK block size set to:           16
  Allocating        1.758 MB for ovlp
  Allocating        1.758 MB for ham
  Allocating        1.758 MB for eigenvec
  Required Scalapack workspace - INTEGER:            1  REAL:             1
  Partitioning the integration grid into batches with parallel hashing+maxmin method.
  | Number of batches:     5376
  | Maximal batch size:     195
  | Minimal batch size:     100
  | Average batch size:     142.083
  | Standard deviation of batch sizes:      31.819

  Integration load balanced across    18 MPI tasks.
  Work distribution over tasks is as follows:
  Task     0 has      42436 integration points.
  Task     1 has      42477 integration points.
  Task     2 has      42422 integration points.
  Task     3 has      42420 integration points.
  Task     4 has      42445 integration points.
  Task     5 has      42504 integration points.
  Task     6 has      42426 integration points.
  Task     7 has      42426 integration points.
  Task     8 has      42415 integration points.
  Task     9 has      42429 integration points.
  Task    10 has      42446 integration points.
  Task    11 has      42476 integration points.
  Task    12 has      42423 integration points.
  Task    13 has      42411 integration points.
  Task    14 has      42437 integration points.
  Task    15 has      42399 integration points.
  Task    16 has      42431 integration points.
  Task    17 has      42417 integration points.
  Initializing partition tables, free-atom densities, potentials, etc. across the integration grid (initialize_grid_storage).
  | initialize_grid_storage: Actual outermost partition radius vs. multipole_radius_free
  | (-- VB: in principle, multipole_radius_free should be larger, hence this output)
  | Species        1: Confinement radius =              4.999999999999999 AA, multipole_radius_free =              5.054417573612229 AA.
  | Species        1: outer_partition_radius set to              5.054417573612229 AA .
  | Species        2: Confinement radius =              4.999999999999999 AA, multipole_radius_free =              5.019602836301480 AA.
  | Species        2: outer_partition_radius set to              5.019602836301480 AA .
  | The sparse table of interatomic distances needs       7644.96 kbyte instead of     36091.01 kbyte of memory.
  | Net number of integration points:   763840
  | of which are non-zero points    :   605502
  | Numerical average free-atom electrostatic potential    :     -8.61468079 eV
  Renormalizing the initial density to the exact electron count on the 3D integration grid.
  | Initial density: Formal number of electrons (from input files) :     544.0000000000
  | Integrated number of electrons on 3D grid     :     543.9966111118
  | Charge integration error                      :      -0.0033888882
  | Normalization factor for density and gradient :       1.0000062296
  Renormalizing the free-atom superposition density to the exact electron count on the 3D integration grid.
  | Formal number of electrons (from input files) :     544.0000000000
  | Integrated number of electrons on 3D grid     :     543.9966111118
  | Charge integration error                      :      -0.0033888882
  | Normalization factor for density and gradient :       1.0000062296
  Obtaining max. number of non-zero basis functions in each batch (get_n_compute_maxes).
  | Maximal number of non-zero basis functions:      554 in task     0
  | Maximal number of non-zero basis functions:      532 in task     1
  | Maximal number of non-zero basis functions:      557 in task     2
  | Maximal number of non-zero basis functions:      548 in task     3
  | Maximal number of non-zero basis functions:      534 in task     4
  | Maximal number of non-zero basis functions:      556 in task     5
  | Maximal number of non-zero basis functions:      532 in task     6
  | Maximal number of non-zero basis functions:      533 in task     7
  | Maximal number of non-zero basis functions:      539 in task     8
  | Maximal number of non-zero basis functions:      557 in task     9
  | Maximal number of non-zero basis functions:      553 in task    10
  | Maximal number of non-zero basis functions:      558 in task    11
  | Maximal number of non-zero basis functions:      545 in task    12
  | Maximal number of non-zero basis functions:      536 in task    13
  | Maximal number of non-zero basis functions:      557 in task    14
  | Maximal number of non-zero basis functions:      547 in task    15
  | Maximal number of non-zero basis functions:      542 in task    16
  | Maximal number of non-zero basis functions:      542 in task    17
  Integrating Hamiltonian matrix: batch-based integration.
  GPU acceleration will be used when integrating the Hamiltonian matrix.
  Reporting GPU memory usage by myid 0.  Note that it is likely not the only MPI task binding to its GPU!
  Allocating        2.455 MB on GPU for hamiltonian_shell
  Allocating        0.864 MB on GPU for wave
  Allocating        0.002 MB on GPU for partition
  Allocating        0.864 MB on GPU for h_times_psi
  Time summed over all CPUs for integration: real work       30.606 s, elapsed       31.305 s
  Deallocating memory used on GPU for Hamiltonian integration.
  Integrating overlap matrix.
  Time summed over all CPUs for integration: real work       25.243 s, elapsed       25.792 s
  Deallocating overlap matrix.

  Updating Kohn-Sham eigenvalues and eigenvectors using ELSI and the ELPA eigensolver.
  Singularity check in k-point 1 (analysis for other k-points may follow below):
  Overlap matrix is not singular
  | Lowest and highest eigenvalues :  0.7778E-03,  0.8223E+01
  Finished singularity check of overlap matrix
  | Time :     0.110 s
  Starting ELPA eigensolver
  Finished Cholesky decomposition
  | Time :     0.018 s
  Finished transformation to standard eigenproblem
  | Time :     0.031 s
  Finished solving standard eigenproblem
  | Time :     0.241 s
  Finished back-transformation of eigenvectors
  | Time :     0.021 s

  Obtaining occupation numbers and electronic chemical potential using ELSI.
  | Note that, for insulating systems, the printed 'chemical potential' value is not uniquely defined.
  | It can be anywhere in the energy gap, as long as it correctly separates occupied and unoccupied states.
  | In systems with a gap, the physically relevant chemical potential is the VBM or HOMO.

  | Chemical potential (Fermi level):    -8.18373241 eV
  Writing Kohn-Sham eigenvalues.
  K-point:       1 at    0.000000    0.000000    0.000000 (in units of recip. lattice)

  State    Occupation    Eigenvalue [Ha]    Eigenvalue [eV]
      1       2.00000         -10.074248         -274.13422
      2       2.00000         -10.072110         -274.07605
      3       2.00000         -10.071673         -274.06417
      4       2.00000         -10.068959         -273.99033
      5       2.00000         -10.068639         -273.98161
      6       2.00000         -10.068291         -273.97213
      7       2.00000         -10.067849         -273.96012
      8       2.00000         -10.067498         -273.95055
      9       2.00000         -10.067421         -273.94847
     10       2.00000         -10.067296         -273.94506
     11       2.00000         -10.067197         -273.94236
     12       2.00000         -10.066791         -273.93132
     13       2.00000         -10.066777         -273.93094
     14       2.00000         -10.066294         -273.91780
     15       2.00000         -10.066168         -273.91436
     16       2.00000         -10.066158         -273.91410
     17       2.00000         -10.065990         -273.90951
     18       2.00000         -10.065965         -273.90883
     19       2.00000         -10.065135         -273.88626
     20       2.00000         -10.064982         -273.88209
     21       2.00000         -10.064950         -273.88123
     22       2.00000         -10.064798         -273.87708
     23       2.00000         -10.064465         -273.86803
     24       2.00000         -10.064359         -273.86513
     25       2.00000         -10.064270         -273.86272
     26       2.00000         -10.064251         -273.86221
     27       2.00000         -10.064027         -273.85611
     28       2.00000         -10.063906         -273.85282
     29       2.00000         -10.063900         -273.85266
     30       2.00000         -10.063761         -273.84888
     31       2.00000         -10.063478         -273.84118
     32       2.00000         -10.063319         -273.83684
     33       2.00000         -10.063300         -273.83632
     34       2.00000         -10.062974         -273.82745
     35       2.00000         -10.062817         -273.82318
     36       2.00000         -10.062205         -273.80654
     37       2.00000         -10.062203         -273.80647
     38       2.00000         -10.062132         -273.80454
     39       2.00000         -10.062086         -273.80329
     40       2.00000         -10.062036         -273.80193
     41       2.00000         -10.062010         -273.80122
     42       2.00000         -10.061812         -273.79584
     43       2.00000         -10.061743         -273.79396
     44       2.00000         -10.061728         -273.79355
     45       2.00000         -10.061619         -273.79058
     46       2.00000         -10.061572         -273.78930
     47       2.00000         -10.061494         -273.78719
     48       2.00000         -10.061299         -273.78189
     49       2.00000         -10.060594         -273.76269
     50       2.00000         -10.060456         -273.75893
     51       2.00000         -10.060435         -273.75836
     52       2.00000         -10.060206         -273.75214
     53       2.00000         -10.060049         -273.74785
     54       2.00000         -10.059828         -273.74184
     55       2.00000         -10.059558         -273.73450
     56       2.00000         -10.059378         -273.72959
     57       2.00000         -10.059222         -273.72535
     58       2.00000         -10.058792         -273.71366
     59       2.00000         -10.058677         -273.71053
     60       2.00000         -10.058532         -273.70659
     61       2.00000         -10.058416         -273.70342
     62       2.00000         -10.058283         -273.69981
     63       2.00000         -10.058198         -273.69750
     64       2.00000         -10.058090         -273.69455
     65       2.00000         -10.058015         -273.69251
     66       2.00000         -10.057688         -273.68361
     67       2.00000         -10.057346         -273.67430
     68       2.00000         -10.057319         -273.67358
     69       2.00000         -10.057016         -273.66533
     70       2.00000         -10.056678         -273.65613
     71       2.00000         -10.056648         -273.65532
     72       2.00000         -10.056068         -273.63953
     73       2.00000         -10.055625         -273.62747
[...]
  |    H      0     4.527807 A      4.583499 A        4.713786E-16 a.u.
  |    H      2     3.678162 A  1.011968E+04 A            0.556529 a.u.
  |    H      1     3.958095 A  1.721251E+06 A            0.841931 a.u.
  |    H      0     4.527807 A  3.866455E+12 A            0.581436 a.u.
  |    C      0     2.562483 A      2.562483 A        6.563029E-17 a.u.
  |    C      0     2.967371 A      2.967371 A        1.352164E-16 a.u.
  |    C      0     3.003870 A      3.003870 A        2.312640E-17 a.u.
  |    C      1     3.272245 A      3.272245 A       -3.835259E-17 a.u.
  |    C      0     3.312494 A      3.312494 A       -2.710381E-16 a.u.
  |    C      3     4.077671 A      4.077671 A       -1.683752E-15 a.u.
  |    C      3     4.077671 A      4.077671 A        1.412852E-15 a.u.
  |    C      1     4.496620 A      4.496620 A       -3.011059E-16 a.u.
  |    C      0     4.496620 A      4.551928 A        2.873903E-17 a.u.
  |    C      2     4.551928 A      4.551928 A       -4.610785E-16 a.u.
  |    C      2     4.551928 A      4.551928 A        7.440584E-16 a.u.
  |    C      2     4.551928 A      4.551928 A       -7.110458E-16 a.u.
  |    C      2     4.551928 A      4.551928 A       -1.935424E-16 a.u.
  |    C      0     4.551928 A      4.607917 A        2.067142E-16 a.u.
  |    C      0     4.551928 A      4.607917 A       -1.109786E-16 a.u.
  |    C      1     4.551928 A      4.607917 A       -9.951742E-17 a.u.
  |    C      1     4.551928 A      4.607917 A        1.937809E-16 a.u.
  |    C      1     4.607917 A      4.607917 A       -2.813308E-16 a.u.
  |    C      1     4.607917 A      4.607917 A       -7.330363E-17 a.u.
  |    C      2     4.607917 A      4.607917 A        1.318462E-15 a.u.
  |    C      2     4.607917 A      4.607917 A       -1.318397E-15 a.u.
  |    C      0     4.607917 A      4.664595 A        3.157826E-16 a.u.
  |    C      1     4.607917 A      4.664595 A        7.356967E-16 a.u.
  |    C      4     3.835889 A  2.962973E+02 A            4.379483 a.u.
  |    C      3     4.127827 A  1.725964E+03 A            9.005588 a.u.
  |    C      2     4.607917 A  2.608475E+04 A            9.531178 a.u.
  |    C      1     4.607917 A  2.736013E+06 A            2.127278 a.u.
  |    C      0     4.607917 A  4.399765E+12 A            0.661635 a.u.

  | Shrink_full_auxil_basis : there are       36  radial auxiliary wave functions
                            accepted and       7 rejected.
  | Shrink_full_auxil_basis : there are totally                8992 partial auxiliary wave functions.
 
  | Maximal number of product basis functions per thread :   512   512
 
  | Minimal total memory requirement for three-center overlap :      72.476 Gbs
  | Number of local auxiliary basis functions on task:      0   512
  | Number of local auxiliary basis functions on task:      1   512
  | Number of local auxiliary basis functions on task:      2   512
  | Number of local auxiliary basis functions on task:      3   512
  | Number of local auxiliary basis functions on task:      4   496
  | Number of local auxiliary basis functions on task:      5   496
  | Number of local auxiliary basis functions on task:      6   496
  | Number of local auxiliary basis functions on task:      7   496
  | Number of local auxiliary basis functions on task:      8   496
  | Number of local auxiliary basis functions on task:      9   496
  | Number of local auxiliary basis functions on task:     10   496
  | Number of local auxiliary basis functions on task:     11   496
  | Number of local auxiliary basis functions on task:     12   496
  | Number of local auxiliary basis functions on task:     13   496
  | Number of local auxiliary basis functions on task:     14   496
  | Number of local auxiliary basis functions on task:     15   496
  | Number of local auxiliary basis functions on task:     16   496
  | Number of local auxiliary basis functions on task:     17   496
  | 2D aux task distribution:      3 X      6
  | 2D block size (nb_aux_2d):     64
 
  Basis pair condensation :   1037520  -->     548162
 
 --------------------------------------------
  Constructing auxiliary basis (full product) ...
 
  Product basis:
  | charge radius: extent of product basis function
  | field radius: extent of its Coulomb potential
  | Species   l  charge radius    field radius  multipol momen
  |    H      1     3.910002 A      3.910002 A       -2.487223E-16 a.u.
  |    H      1     3.958095 A      3.958095 A       -2.441841E-16 a.u.
  |    H      0     4.527807 A      4.527807 A        1.268855E-16 a.u.
  |    H      0     4.527807 A      4.583499 A       -4.900954E-17 a.u.
  |    H      0     4.527807 A      4.583499 A        4.713786E-16 a.u.
  |    H      2     3.678162 A  1.011968E+04 A            0.556529 a.u.
  |    H      1     3.958095 A  1.721251E+06 A            0.841931 a.u.
  |    H      0     4.527807 A  3.866455E+12 A            0.581436 a.u.
  |    C      0     2.562483 A      2.562483 A        6.563029E-17 a.u.
  |    C      0     2.967371 A      2.967371 A        1.352164E-16 a.u.
  |    C      0     3.003870 A      3.003870 A        2.312640E-17 a.u.
  |    C      1     3.272245 A      3.272245 A       -3.835259E-17 a.u.
  |    C      0     3.312494 A      3.312494 A       -2.710381E-16 a.u.
  |    C      3     4.077671 A      4.077671 A       -1.683752E-15 a.u.
  |    C      3     4.077671 A      4.077671 A        1.412852E-15 a.u.
  |    C      1     4.496620 A      4.496620 A       -3.011059E-16 a.u.
  |    C      0     4.496620 A      4.551928 A        2.873903E-17 a.u.
  |    C      2     4.551928 A      4.551928 A       -4.610785E-16 a.u.
  |    C      2     4.551928 A      4.551928 A        7.440584E-16 a.u.
  |    C      2     4.551928 A      4.551928 A       -7.110458E-16 a.u.
  |    C      2     4.551928 A      4.551928 A       -1.935424E-16 a.u.
  |    C      0     4.551928 A      4.607917 A        2.067142E-16 a.u.
  |    C      0     4.551928 A      4.607917 A       -1.109786E-16 a.u.
  |    C      1     4.551928 A      4.607917 A       -9.951742E-17 a.u.
  |    C      1     4.551928 A      4.607917 A        1.937809E-16 a.u.
  |    C      1     4.607917 A      4.607917 A       -2.813308E-16 a.u.
  |    C      1     4.607917 A      4.607917 A       -7.330363E-17 a.u.
  |    C      2     4.607917 A      4.607917 A        1.318462E-15 a.u.
  |    C      2     4.607917 A      4.607917 A       -1.318397E-15 a.u.
  |    C      0     4.607917 A      4.664595 A        3.157826E-16 a.u.
  |    C      1     4.607917 A      4.664595 A        7.356967E-16 a.u.
  |    C      4     3.835889 A  2.962973E+02 A            4.379483 a.u.
  |    C      3     4.127827 A  1.725964E+03 A            9.005588 a.u.
  |    C      2     4.607917 A  2.608475E+04 A            9.531178 a.u.
  |    C      1     4.607917 A  2.736013E+06 A            2.127278 a.u.
  |    C      0     4.607917 A  4.399765E+12 A            0.661635 a.u.

  | Shrink_full_auxil_basis : there are       36  radial auxiliary wave functions
                            accepted and       7 rejected.
  | Shrink_full_auxil_basis : there are totally                8992 partial auxiliary wave functions.
 
  | Maximal number of product basis functions per thread :   512   512
 
  | Minimal total memory requirement for three-center overlap :      72.476 Gbs
  | Number of local auxiliary basis functions on task:      0   512
  | Number of local auxiliary basis functions on task:      1   512
  | Number of local auxiliary basis functions on task:      2   512
  | Number of local auxiliary basis functions on task:      3   512
  | Number of local auxiliary basis functions on task:      4   496
  | Number of local auxiliary basis functions on task:      5   496
  | Number of local auxiliary basis functions on task:      6   496
  | Number of local auxiliary basis functions on task:      7   496
  | Number of local auxiliary basis functions on task:      8   496
  | Number of local auxiliary basis functions on task:      9   496
  | Number of local auxiliary basis functions on task:     10   496
  | Number of local auxiliary basis functions on task:     11   496
  | Number of local auxiliary basis functions on task:     12   496
  | Number of local auxiliary basis functions on task:     13   496
  | Number of local auxiliary basis functions on task:     14   496
  | Number of local auxiliary basis functions on task:     15   496
  | Number of local auxiliary basis functions on task:     16   496
  | Number of local auxiliary basis functions on task:     17   496
  | 2D aux task distribution:      3 X      6
  | 2D block size (nb_aux_2d):     64
 
  Basis pair condensation :   1037520  -->     548162
  Allocating        0.069 MB for t_coeff
  Allocating        0.034 MB for basbas_idx
  Allocating        0.069 MB for wave
  Allocating        0.069 MB for total_wave
  Allocating        0.206 MB for wave_gradient
  Allocating        0.206 MB for total_wave_grad
 HERE1
 HERE2
  Deallocating        0.069 MB for t_coeff
  Deallocating        0.034 MB for basbas_idx
  Deallocating        0.069 MB for wave
  Deallocating        0.206 MB for wave_gradient
  Deallocating        0.206 MB for total_wave_grad
dP_dE (Bohr^3) at every cycle:--->
 (1023.81451810067,0.000000000000000E+000) (3.27292922580971,0.000000000000000E+000) (-465.275976110935,0.000000000000000E+000)
 (3.26581485850597,0.000000000000000E+000) (1364.56278096196,0.000000000000000E+000) (6.61951946550200,0.000000000000000E+000)
 (-465.492059232845,0.000000000000000E+000) (6.66346138760889,0.000000000000000E+000) (1672.67512505557,0.000000000000000E+000)
DFPT polarizability (Bohr^3)        xx        yy        zz        xy        xz        yz
  | Polarizability:--->                      1023.814518101                 1364.562780962                 1672.675125056                    3.272929226                 -465.275976111                    6.619519466

DFPT for dielectric_constant:--->  # PARSE DFPT_dielectric_tensor
               2.389294462655001             0.004441295146424            -0.631369575044221
               0.004431641101746             2.851682587049576             0.008982546717466
              -0.631662795231506             0.009042174968465             3.269784465814700

                                               :  max(cpu_time)    wall_clock(cpu1)
  | Time for  dielectric calculation            :        0.000 s           0.001 s
===========================================================================

------------------------------------------------------------------------------
  Final output of selected total energy values:

  The following output summarizes some interesting total energy values
  at the end of a run (AFTER all relaxation, molecular dynamics, etc.).

  | Total energy of the DFT / Hartree-Fock s.c.f. calculation      :         -83267.352492120 eV
  | Final zero-broadening corrected energy (caution - metals only) :         -83267.352492120 eV
  | For reference only, the value of 1 Hartree used in FHI-aims is :             27.211384500 eV
  | For reference only, the overall average (free atom contribution
  | + realspace contribution) of the electrostatic potential after
  | s.c.f. convergence is                                          :             -7.710389524 eV

  Before relying on these values, please be sure to understand exactly which
  total energy value is referred to by a given number. Different objects may
  all carry the same name 'total energy'. Definitions:

  Total energy of the DFT / Hartree-Fock s.c.f. calculation:
  | Note that this energy does not include ANY quantities calculated after the
  | s.c.f. cycle, in particular not ANY RPA, MP2, etc. many-body perturbation terms.

  Final zero-broadening corrected energy:
  | For metallic systems only, a broadening of the occupation numbers at the Fermi
  | level can be extrapolated back to zero broadening by an electron-gas inspired
  | formula. For all systems that are not real metals, this value can be
  | meaningless and should be avoided.

------------------------------------------------------------------------------
  Methods described in the following list of references were used in this FHI-aims run.
  If you publish the results, please make sure to cite these reference if they apply.
  FHI-aims is an academic code, and for our developers (often, Ph.D. students
  and postdocs), scientific credit in the community is essential.
  Thank you for helping us!

  For any use of FHI-aims, please cite:

    Volker Blum, Ralf Gehrke, Felix Hanke, Paula Havu, Ville Havu,
    Xinguo Ren, Karsten Reuter, and Matthias Scheffler
    'Ab initio molecular simulations with numeric atom-centered orbitals'
    Computer Physics Communications 180, 2175-2196 (2009)
    http://doi.org/10.1016/j.cpc.2009.06.022


  For Hartree-Fock, hybrid functionals, or many-body perturbation theory used in your run, please cite:

    Xinguo Ren, Patrick Rinke, Volker Blum, Juergen Wieferink, Alex Tkatchenko,
    Andrea Sanfilippo, Karsten Reuter, and Matthias Scheffler,
    'Resolution-of-identity approach to Hartree-Fock, hybrid density functionals,
    RPA, MP2, and GW with numeric atom-centered orbital basis functions'
    New Journal of Physics 14, 053020 (2012).
    http://doi.org/10.1088/1367-2630/14/5/053020


  The provided symmetry information was generated with SPGlib:

    Atsushi Togo, Yusuke Seto, Dimitar Pashov
    SPGlib 1.7.3 obtained from http://spglib.sourceforge.net
    Copyright (C) 2008 Atsushi Togo


  The DFPT (perturbation by an electric field) part of the code was used.
  Here is the corresponding reference:

    Honghui Shang, Nathaniel Raimbault, Mariana Rossi,
    Christian Carbogno, Patrick Rinke and Matthias Scheffler,
    'All-Electron, Real-Space Perturbation Theory for Homogeneous
    Electric Fields: Theory, Implementation, and Application within dft'
    New Journal of Physics, 20(7):073040, 2018


  The ELSI infrastructure was used in your run to solve the Kohn-Sham electronic structure.
  Please check out http://elsi-interchange.org to learn more.
  If scalability is important for your project, please acknowledge ELSI by citing:

    V. W-z. Yu, F. Corsetti, A. Garcia, W. P. Huhn, M. Jacquelin, W. Jia,
    B. Lange, L. Lin, J. Lu, W. Mi, A. Seifitokaldani, A. Vazquez-Mayagoitia,
    C. Yang, H. Yang, and V. Blum
    'ELSI: A unified software interface for Kohn-Sham electronic structure solvers'
    Computer Physics Communications 222, 267-285 (2018).
    http://doi.org/10.1016/j.cpc.2017.09.007


  For the real-space grid partitioning and parallelization used in this calculation, please cite:

    Ville Havu, Volker Blum, Paula Havu, and Matthias Scheffler,
    'Efficient O(N) integration for all-electron electronic structure calculation'
    'using numerically tabulated basis functions'
    Journal of Computational Physics 228, 8367-8379 (2009).
    http://doi.org/10.1016/j.jcp.2009.08.008


  The high-level electronic structure method used in your calculation
  employed our efficient localized resolution of identity for the Coulomb operator.
  Some calculations, especially large-scale hybrid density functional theory,
  are only possible thanks to this development. For this feature, please cite:

    Arvid Ihrig, Juergen Wieferink, Igor Ying Zhang, Matti Ropo, Xinguo Ren,
    Patrick Rinke, Matthias Scheffler, and Volker Blum,
    'Accurate localized resolution of identity approach for linear-scaling
    hybrid density functionals and for many-body perturbation theory'
    New Journal of Physics 117, 093020 (2015).
    http://doi.org/10.1088/1367-2630/17/9/093020

  Of course, there are many other important community references, e.g., those cited in the
  above references. Our list is limited to references that describe implementations in the
  FHI-aims code. The reason is purely practical (length of this list) - please credit others as well.

------------------------------------------------------------
          Leaving FHI-aims.
          Date     :  20230119, Time     :  221328.316

          Computational steps:
          | Number of self-consistency cycles          :           49
          | Number of SCF (re)initializations          :            1
          | Number of coupled perturbed self-consistency cycles          :            0
          | Number of CPSCF (re)initializations          :            0

          Detailed time accounting                     :  max(cpu_time)    wall_clock(cpu1)
          | Total time                                  :     1511.588 s        1523.920 s
          | GPU initialization                          :        2.800 s          13.854 s
          | Preparation time                            :        0.081 s           0.076 s
          | Boundary condition initalization            :        1.020 s           1.021 s
          | Grid partitioning                           :        1.331 s           1.331 s
          | Preloading free-atom quantities on grid     :        3.993 s           3.995 s
          | Free-atom superposition energy              :        0.536 s           0.536 s
          | Total time for integrations                 :       22.929 s          23.045 s
          | Product basis setup: Total time             :        0.000 s           0.000 s
          | Product basis: | 2-center integrations     :(       0.000 s)  (       0.000 s)
          | Product basis: | LVL 3-center & coefficient:(       0.000 s)  (       0.000 s)
          | Total time for solution of K.-S. equations  :        4.006 s           4.007 s
          | Total time for density update               :       16.616 s          16.782 s
          | Total time for mixing & preconditioning     :       13.713 s          13.716 s
          | Total time for Hartree multipole update     :        0.100 s           0.102 s
          | Total time for Hartree multipole sum        :       50.084 s          50.098 s
          | Total time for total energy evaluation      :        0.007 s           0.007 s
          | Total time first_order_DM                   :        2.001 s           1.986 s
          | Total time first_order_density              :      315.773 s         315.811 s
          | Total time first_order_potential            :      128.936 s         128.976 s
          | Total time first_order_H                    :      593.992 s         594.155 s
          | Total time solving of Sternheimer equations :        1.956 s           1.956 s
          | Total time for dielectric constant          :        0.000 s           0.001 s
          | Total time momentum matrix                  :        0.000 s           0.000 s

          GPU acceleration has been used for charge density update.
          GPU acceleration has been used for real-space Hamiltonian integration.
          Due to GPU usage, wall_clock(cpu1) will give a more reliable estimate for timings.

          Partial memory accounting:
          | Residual value for overall tracked memory usage across tasks:     1.234863 MB (should be 0.000000 MB)
          |
          | Largest tracked array allocation:
          |   Minimum:      103.188 MB (DFPT_pulay_mixing::initialize_pulay_mixing::X_in_diffs on task  0)
          |   Maximum:      103.188 MB (DFPT_pulay_mixing::initialize_pulay_mixing::X_in_diffs on task  0)
          |   Average:      103.188 MB
          |
          | Because the residual tracked memory usage was not zero, the peak value for overall
          | tracked memory usage was not output, as it is probably incorrect.  This is likely due
          | to a missing aims_deallocate statement in the source code, which should be otherwise
          | harmless.
          |
          Note:  These values currently only include a subset of arrays which are explicitly tracked.
          The "true" memory usage will be greater.

          Have a nice day.
------------------------------------------------------------
