------------------------------------------------------------
          Invoking FHI-aims ...

          When using FHI-aims, please cite the following reference:

            Volker Blum, Ralf Gehrke, Felix Hanke, Paula Havu,
            Ville Havu, Xinguo Ren, Karsten Reuter, and Matthias Scheffler,
            'Ab Initio Molecular Simulations with Numeric Atom-Centered Orbitals',
            Computer Physics Communications 180, 2175-2196 (2009)

          In addition, many other developments in FHI-aims are likely important for
          your particular application. A partial list of references is given at the end of
          this file. Thank you for giving credit to the authors of these developments.

          For any questions about FHI-aims, please visit our slack channel at

            https://fhi-aims.slack.com

          and our main development and support site at

            https://aims-git.rz-berlin.mpg.de .

          The latter site, in particular, has a wiki to collect information, as well
          as an issue tracker to log discussions, suggest improvements, and report issues
          or bugs. https://aims-git.rz-berlin.mpg.de is also the main development site
          of the project and all new and updated code versions can be obtained there.
          Please send an email to aims-coordinators@fhi-berlin.mpg.de and we will add
          you to these sites. They are for you and everyone is welcome there.

------------------------------------------------------------



  Date     :  20230119, Time     :  182622.755
  Time zero on CPU 1             :   0.389273000000000E+00  s.
  Internal wall clock time zero  :           443384782.755  s.

  FHI-aims created a unique identifier for this run for later identification
  aims_uuid : FA36B219-11FF-47A0-A31C-F29DFEE860A3

  Build configuration of the current instance of FHI-aims
  -------------------------------------------------------
  FHI-aims version      : 220829
  Commit number         : 9895fc21d
  CMake host system     : Linux-5.3.18-150300.59.68-default
  CMake version         : 3.17.0
  Fortran compiler      : /mpcdf/soft/SLE_15/packages/x86_64/intel_oneapi/2021.3/mpi/2021.3.0/bin/mpiifort (Intel) version 20.2.3.20210609
  Fortran compiler flags: -O3 -ip -fp-model precise
  C compiler            : /mpcdf/soft/SLE_15/packages/x86_64/intel/2021.3.0/bin/icc (Intel) version 20.2.3.20210609
  C compiler flags      : -O3 -ip -fp-model precise -std=gnu99
  CUDA compiler         : /mpcdf/soft/SLE_15/packages/x86_64/cuda/11.6.2/bin/nvcc
  CUDA compiler flags   : -O3 -DAdd_ -lcublas
  ELPA2 kernel          : AVX512
  Using MPI
  Using ScaLAPACK
  Using LibXC
  Using CUDA
  Using i-PI
  Using RLSY
  Linking against: /mpcdf/soft/SLE_15/packages/x86_64/cuda/11.6.2/lib64/libcublas.so
                   /mpcdf/soft/SLE_15/packages/x86_64/cuda/11.6.2/lib64/libcudart.so
                   /mpcdf/soft/SLE_15/packages/x86_64/intel_oneapi/2021.3/mkl/latest/lib/intel64/libmkl_intel_lp64.so
                   /mpcdf/soft/SLE_15/packages/x86_64/intel_oneapi/2021.3/mkl/latest/lib/intel64/libmkl_sequential.so
                   /mpcdf/soft/SLE_15/packages/x86_64/intel_oneapi/2021.3/mkl/latest/lib/intel64/libmkl_core.so
                   /mpcdf/soft/SLE_15/packages/x86_64/intel_oneapi/2021.3/mkl/latest/lib/intel64/libmkl_blacs_intelmpi_lp64.so
                   /mpcdf/soft/SLE_15/packages/x86_64/intel_oneapi/2021.3/mkl/latest/lib/intel64/libmkl_scalapack_lp64.so

  Using       18 parallel tasks.
  Task        0 on host adag015 reporting.
  Task        1 on host adag015 reporting.
  Task        2 on host adag015 reporting.
  Task        3 on host adag015 reporting.
  Task        4 on host adag015 reporting.
  Task        5 on host adag015 reporting.
  Task        6 on host adag015 reporting.
  Task        7 on host adag015 reporting.
  Task        8 on host adag015 reporting.
  Task        9 on host adag015 reporting.
  Task       10 on host adag015 reporting.
  Task       11 on host adag015 reporting.
  Task       12 on host adag015 reporting.
  Task       13 on host adag015 reporting.
  Task       14 on host adag015 reporting.
  Task       15 on host adag015 reporting.
  Task       16 on host adag015 reporting.
  Task       17 on host adag015 reporting.

  Performing system and environment tests:
  | Environment variable OMP_NUM_THREADS correctly set to 1.
  | Checking for ScaLAPACK...
  | Testing pdtran()...
  | All pdtran() tests passed.

  Obtaining array dimensions for all initial allocations:
  
  -----------------------------------------------------------------------
  Parsing control.in (first pass over file, find array dimensions only).
  The contents of control.in will be repeated verbatim below
  unless switched off by setting 'verbatim_writeout .false.' .
  in the first line of control.in .
  -----------------------------------------------------------------------
  
  #
  # Input for polarizability replays on generic oligoacene molecular crystals (light settings,  LDA+MBD).
  #
  #########################################################################################
  #
  #  Physical model
  #
    xc                 pw-lda
    spin               none
    relativistic       none
    charge             0.0
    k_grid 	     2 1 1
    DFPT dielectric
  #
  #  GPU acceleration
  #
  # Turns on GPU acceleration everywhere
    use_gpu
  
  # Turns OFF GPU acceleration of ELPA - may be necessary if GPU ELPA is slow
    elsi_elpa_gpu 0
  #
  #  Relaxation
  #
  #  relax_geometry trm 1E-3
  #  relax_unit_cell fixed_angles
  #
  #  SCF convergence        #
    charge_mix_param   0.75
    #sc_accuracy_rho 1E-4
  #
  # i-PI communication
  #
  compute_forces .false.
  # use_pimd_wrapper 130.183.223.27 26118
  #communicate_pimd_wrapper polarizability
  #output_level MD_light
  #
  # Output SALTED info
    ri_density_restart write
    ri_rho1 write
    ri_full_output .true.
  #  sc_accuracy_rho    1d-6
    default_prodbas_acc 1e-6
    default_max_l_prodbas 6
  #
  #
  ################################################################################
  #
  #  FHI-aims code project
  #  VB, Fritz-Haber Institut, 2009
  #
  #  Suggested "light" defaults for H atom (to be pasted into control.in file)
  #  Be sure to double-check any results obtained with these settings for post-processing,
  #  e.g., with the "tight" defaults and larger basis sets.
  #
  ################################################################################
    species        H
  #     global species definitions
      nucleus             1
      mass                1.00794
  #
      l_hartree           4
  #
      cut_pot             3.5  1.5  1.0
      basis_dep_cutoff    1e-4
  #
      radial_base         24 5.0
      radial_multiplier   1
      angular_grids       specified
        division   0.2421   50
        division   0.3822  110
        division   0.4799  194
        division   0.5341  302
  #      division   0.5626  434
  #      division   0.5922  590
  #      division   0.6542  770
  #      division   0.6868 1202
  #      outer_grid  770
        outer_grid  302
  ################################################################################
  #
  #  Definition of "minimal" basis
  #
  ################################################################################
  #     valence basis states
      valence      1  s   1.
  #     ion occupancy
      ion_occ      1  s   0.5
  ################################################################################
  #
  #  Suggested additional basis functions. For production calculations,
  #  uncomment them one after another (the most important basis functions are
  #  listed first).
  #
  #  Basis constructed for dimers: 0.5 A, 0.7 A, 1.0 A, 1.5 A, 2.5 A
  #
  ################################################################################
  #  "First tier" - improvements: -1014.90 meV to -62.69 meV
       hydro 2 s 2.1
       hydro 2 p 3.5
  #  "Second tier" - improvements: -12.89 meV to -1.83 meV
  #     hydro 1 s 0.85
  #     hydro 2 p 3.7
  #     hydro 2 s 1.2
  #     hydro 3 d 7
  #  "Third tier" - improvements: -0.25 meV to -0.12 meV
  #     hydro 4 f 11.2
  #     hydro 3 p 4.8
  #     hydro 4 d 9
  #     hydro 3 s 3.2
  ################################################################################
  ################################################################################
  #
  #  FHI-aims code project
  #  VB, Fritz-Haber Institut, 2009
  #
  #  Suggested "light" defaults for C atom (to be pasted into control.in file)
  #  Be sure to double-check any results obtained with these settings for post-processing,
  #  e.g., with the "tight" defaults and larger basis sets.
  #
  ################################################################################
    species        C
  #     global species definitions
      nucleus             6
      mass                12.0107
  #
      l_hartree           4
  #
      cut_pot             3.5  1.5  1.0
      basis_dep_cutoff    1e-4
  #
      radial_base         34 5.0
      radial_multiplier   1
      angular_grids specified
        division   0.3326   50
        division   0.5710  110
        division   0.7727  194
        division   0.8772  302
  #      division   0.9334  434
  #      division   0.9625  590
  #      division   0.9924  770
  #      division   1.0230  974
  #      division   1.4589 1202
  #     outer_grid  974
       outer_grid 302
  ################################################################################
  #
  #  Definition of "minimal" basis
  #
  ################################################################################
  #     valence basis states
      valence      2  s   2.
      valence      2  p   2.
  #     ion occupancy
      ion_occ      2  s   1.
      ion_occ      2  p   1.
  ################################################################################
  #
  #  Suggested additional basis functions. For production calculations,
  #  uncomment them one after another (the most important basis functions are
  #  listed first).
  #
  #  Constructed for dimers: 1.0 A, 1.25 A, 1.5 A, 2.0 A, 3.0 A
  #
  ################################################################################
  #  "First tier" - improvements: -1214.57 meV to -155.61 meV
       hydro 2 p 1.7
       hydro 3 d 6
       hydro 2 s 4.9
  #  "Second tier" - improvements: -67.75 meV to -5.23 meV
  #     hydro 4 f 9.8
  #     hydro 3 p 5.2
  #     hydro 3 s 4.3
  #     hydro 5 g 14.4
  #     hydro 3 d 6.2
  #  "Third tier" - improvements: -2.43 meV to -0.60 meV
  #     hydro 2 p 5.6
  #     hydro 2 s 1.4
  #     hydro 3 d 4.9
  #     hydro 4 f 11.2
  #  "Fourth tier" - improvements: -0.39 meV to -0.18 meV
  #     hydro 2 p 2.1
  #     hydro 5 g 16.4
  #     hydro 4 d 13.2
  #     hydro 3 s 13.6
  #     hydro 4 f 17.6
  #  Further basis functions - improvements: -0.08 meV and below
  #     hydro 3 s 2
  #     hydro 3 p 6
  #     hydro 4 d 20
  
  -----------------------------------------------------------------------
  Completed first pass over input file control.in .
  -----------------------------------------------------------------------
  
  
  -----------------------------------------------------------------------
  Parsing geometry.in (first pass over file, find array dimensions only).
  The contents of geometry.in will be repeated verbatim below
  unless switched off by setting 'verbatim_writeout .false.' .
  in the first line of geometry.in .
  -----------------------------------------------------------------------
  
  #=======================================================
  # FHI-aims file: /ada/ptmp/mpsd/alewis/naphthalene/qmdata/data/geoms/84.in
  # Created using the Atomic Simulation Environment (ASE)
  # Thu Jan 19 15:19:16 2023
  #=======================================================
  lattice_vector 8.1020000000000003 0.0000000000000000 0.0000000000000000
  lattice_vector 0.0000000000000000 11.8800000000000008 0.0000000000000000
  lattice_vector -9.7850918486534706 0.0000000000000000 14.2571119625755713
  atom -0.9873600000000000 0.3389560000000000 2.4353199999999999 C
  atom 0.1083190000000000 3.1803300000000001 4.7753899999999998 C
  atom 4.0821699999999996 5.8509200000000003 4.8106099999999996 C
  atom 3.2501699999999998 2.8329399999999998 2.3069500000000001 C
  atom -0.1010130000000000 1.0664000000000000 1.6744800000000000 C
  atom -0.6640910000000000 3.9893700000000001 5.5706600000000002 C
  atom 3.3506600000000000 5.0190299999999999 5.6098400000000002 C
  atom 4.0434799999999997 2.0108299999999999 1.5199100000000001 C
  atom 0.2977130000000000 0.6173270000000000 0.3872440000000000 C
  atom -0.9999090000000000 3.6238100000000002 6.8950800000000001 C
  atom 3.1440100000000002 5.3482099999999999 6.9573000000000000 C
  atom 4.3566500000000001 2.3150300000000001 0.1788880000000000 C
  atom -3.8605800000000001 1.5934999999999999 6.6649200000000004 C
  atom 3.1184599999999998 4.3641600000000000 0.4441370000000000 C
  atom 7.1342400000000001 4.4939099999999996 0.6941130000000000 C
  atom 0.2738280000000000 1.5366599999999999 6.5876500000000000 C
  atom -3.4704000000000002 1.2676300000000000 5.3828300000000002 C
  atom 2.7519900000000002 4.0149200000000000 1.7071499999999999 C
  atom 6.7953200000000002 4.9128999999999996 1.9633100000000001 C
  atom 0.5860550000000000 1.9454499999999999 5.2978500000000004 C
  atom -1.3255999999999999 0.6990940000000000 3.4201500000000000 H
  atom 0.3753300000000000 3.4510100000000001 3.7513700000000001 H
  atom 4.2782999999999998 5.5843299999999996 3.7634900000000000 H
  atom 2.9818899999999999 2.4949599999999998 3.3147500000000001 H
  atom 0.2213960000000000 2.0419000000000000 2.0322300000000002 H
  atom -1.0269500000000000 4.9705100000000000 5.2055499999999997 H
  atom 2.8716400000000002 4.1519300000000001 5.2462499999999999 H
  atom 4.3950600000000000 1.0592999999999999 1.8679600000000001 H
  atom -3.5481199999999999 2.5739600000000000 7.0789400000000002 H
  atom 2.7463199999999999 5.2948199999999996 0.0448372000000000 H
  atom 6.7869999999999999 3.5374800000000000 0.3438260000000000 H
  atom 0.5877760000000000 0.5765730000000000 6.9829699999999999 H
  atom -2.8918400000000002 1.9792400000000001 4.7916699999999999 H
  atom 2.0823800000000001 4.6999599999999999 2.2414900000000002 H
  atom 6.1755800000000001 4.3073899999999998 2.6354400000000000 H
  atom 1.2942600000000000 1.3436500000000000 4.7154499999999997 H
  atom -5.6035000000000004 -0.0222762000000000 9.5684900000000006 C
  atom -4.6193400000000002 3.1042100000000001 11.7992000000000008 C
  atom -0.6495540000000000 5.6965899999999996 12.0435999999999996 C
  atom -1.6473300000000000 2.8509400000000000 9.5083099999999998 C
  atom -4.9180999999999999 0.9213460000000000 8.8291699999999995 C
  atom -5.5048199999999996 3.8746900000000002 12.5564000000000000 C
  atom -1.5142899999999999 4.9523799999999998 12.8064999999999998 C
  atom -0.8689220000000000 2.0195500000000002 8.7194299999999991 C
  atom -4.5846000000000000 0.6741880000000000 7.4664400000000004 C
  atom -5.8663400000000001 3.5431499999999998 13.8932000000000002 C
  atom -1.8701800000000000 5.3400400000000001 14.1342999999999996 C
  atom -0.5193750000000000 2.3877899999999999 7.3984899999999998 C
  atom -8.6785899999999998 1.4497599999999999 13.8378999999999994 C
  atom -1.7196800000000001 4.5236999999999998 7.7353300000000003 C
  atom 2.3275600000000001 4.5266799999999998 7.7929500000000003 C
  atom -4.5709499999999998 1.4892500000000000 13.6433999999999997 C
  atom -8.3169000000000004 1.0288700000000000 12.5663999999999998 C
  atom -2.0338599999999998 4.1276400000000004 9.0311699999999995 C
  atom 2.0411400000000000 4.8912699999999996 9.1163699999999999 C
  atom -4.1713399999999998 1.8781300000000001 12.3696000000000002 C
  atom -5.7293700000000003 0.2164080000000000 10.6320999999999994 H
  atom -4.3439199999999998 3.4248799999999999 10.8109000000000002 H
  atom -0.2918830000000000 5.4462500000000000 11.0587999999999997 H
  atom -1.9288000000000001 2.5769000000000002 10.5326000000000004 H
  atom -4.6284200000000002 1.8722200000000000 9.2927999999999997 H
  atom -5.8864700000000001 4.8120599999999998 12.1702999999999992 H
  atom -1.9013400000000000 3.9884100000000000 12.4684000000000008 H
  atom -0.6039570000000000 1.0365000000000000 9.1375200000000003 H
  atom -8.3187300000000004 2.4284300000000001 14.1971000000000007 H
  atom -2.0012699999999999 5.4955499999999997 7.3237800000000002 H
  atom 1.9901800000000001 3.5810700000000000 7.4195799999999998 H
  atom -4.2004099999999998 0.5756370000000000 14.0998000000000001 H
  atom -7.7198099999999998 1.6799299999999999 11.9465000000000003 H
  atom -2.5651199999999998 4.7804700000000002 9.7292199999999998 H
  atom 1.4216299999999999 4.2181499999999996 9.7286800000000007 H
  atom -3.5116900000000002 1.1971600000000000 11.8201000000000001 H
  atom -0.8428360000000000 6.1427800000000001 2.4472000000000000 C
  atom 0.0198686000000000 9.1072000000000006 4.8155999999999999 C
  atom 4.2157099999999996 11.8975000000000009 4.8104699999999996 C
  atom 3.2096100000000001 8.7372300000000003 2.3965200000000002 C
  atom -0.0849730000000000 6.9999799999999999 1.6689499999999999 C
  atom -0.7716960000000000 9.9085800000000006 5.6277100000000004 C
  atom 3.5185300000000002 11.0017999999999994 5.5497699999999996 C
  atom 4.0002500000000003 7.8861699999999999 1.6573300000000000 C
  atom 0.2608000000000000 6.6105600000000004 0.3543790000000000 C
  atom -1.0340600000000000 9.5121500000000001 6.9686800000000000 C
  atom 3.1235300000000001 11.2813999999999997 6.8894799999999998 C
  atom 4.3610300000000004 8.1601599999999994 0.3160500000000000 C
  atom -3.7978800000000001 7.4777800000000001 6.6232199999999999 C
  atom 3.1419999999999999 10.3026999999999997 0.5180370000000000 C
  atom 7.1295200000000003 10.4060000000000006 0.7251760000000000 C
  atom 0.2356410000000000 7.4466900000000003 6.5504100000000003 C
  atom -3.5182099999999998 7.1292799999999996 5.3100500000000004 C
  atom 2.7757900000000002 9.9678599999999999 1.8019200000000000 C
  atom 6.6723900000000000 10.9235000000000007 1.9422200000000001 C
  atom 0.5314280000000000 7.8769400000000003 5.2814399999999999 C
  atom -1.0947800000000001 6.3967799999999997 3.4749699999999999 H
  atom 0.2905760000000000 9.5082599999999999 3.8309199999999999 H
  atom 4.5118700000000000 11.6758000000000006 3.7634699999999999 H
  atom 2.9201800000000002 8.4397599999999997 3.4089700000000001 H
  atom 0.2520640000000000 7.9316599999999999 2.0674999999999999 H
  atom -1.2293499999999999 10.8353999999999999 5.2469200000000003 H
  atom 3.2257300000000000 10.0470000000000006 5.1205499999999997 H
  atom 4.2957200000000002 6.9415199999999997 2.0804100000000001 H
  atom -3.3780199999999998 8.4135700000000000 7.0033399999999997 H
  atom 2.8444099999999999 11.2760999999999996 0.1027520000000000 H
  atom 6.7847700000000000 9.4363899999999994 0.4414800000000000 H
  atom 0.6178250000000000 6.4655699999999996 6.8654400000000004 H
  atom -2.8983699999999999 7.7491700000000003 4.6702700000000004 H
  atom 2.0715599999999998 10.6090999999999998 2.4066399999999999 H
  atom 5.9746400000000000 10.3142999999999994 2.5280100000000001 H
  atom 1.1695199999999999 7.3036399999999997 4.6344599999999998 H
  atom -5.5774900000000001 6.1265299999999998 9.6606400000000008 C
  atom -4.6334499999999998 8.9057300000000001 11.9116999999999997 C
  atom -0.6369030000000000 11.6349000000000000 12.1149000000000004 C
  atom -1.5102800000000001 8.7071500000000004 9.6068700000000007 C
  atom -4.7637099999999997 6.9174699999999998 8.8568700000000007 C
  atom -5.4173999999999998 9.7551900000000007 12.6905999999999999 C
  atom -1.4547399999999999 10.8202999999999996 12.8485999999999994 C
  atom -0.7475349999999999 7.8777600000000003 8.7952499999999993 C
  atom -4.4687999999999999 6.5928500000000003 7.4977700000000000 C
  atom -5.8117799999999997 9.4604700000000008 14.0124999999999993 C
  atom -1.8436800000000000 11.1987000000000005 14.1597000000000008 C
  atom -0.4778470000000000 8.2844800000000003 7.4545000000000003 C
  atom -8.7021800000000002 7.4071999999999996 13.7812000000000001 C
  atom -1.7748800000000000 10.3447999999999993 7.8343400000000001 C
  atom 2.4162300000000001 10.3445999999999998 7.7058400000000002 C
  atom -4.6368999999999998 7.3174099999999997 13.7286000000000001 C
  atom -8.3516700000000004 6.9587500000000002 12.5159000000000002 C
  atom -2.0106799999999998 9.9485600000000005 9.1325099999999999 C
  atom 2.1043099999999999 10.6260999999999992 9.0361899999999995 C
  atom -4.2675700000000001 7.6553000000000004 12.4484999999999992 C
  atom -5.7970699999999997 6.4579000000000004 10.6684999999999999 H
  atom -4.3322099999999999 9.1455599999999997 10.8938000000000006 H
  atom -0.3664270000000000 11.2453000000000003 11.1100999999999992 H
  atom -1.8356900000000000 8.3993500000000001 10.6047999999999991 H
  atom -4.3613299999999997 7.8539899999999996 9.2409900000000000 H
  atom -5.7160700000000002 10.7439000000000000 12.2357999999999993 H
  atom -1.7308900000000000 9.8308499999999999 12.4330999999999996 H
  atom -0.4238290000000000 6.8950100000000001 9.0698899999999991 H
  atom -8.4309600000000007 8.3976400000000009 14.1149000000000004 H
  atom -2.1799800000000000 11.2841000000000005 7.4360200000000001 H
  atom 2.1828300000000000 9.3634500000000003 7.2800599999999998 H
  atom -4.3146100000000001 6.3324800000000003 14.1186000000000007 H
  atom -7.7972599999999996 7.6224999999999996 11.8823000000000008 H
  atom -2.5020099999999998 10.6097000000000001 9.8604800000000008 H
  atom 1.6114200000000001 9.8838500000000007 9.6537000000000006 H
  atom -3.6872099999999999 6.9492799999999999 11.8216000000000001 H
  
  -----------------------------------------------------------------------
  Completed first pass over input file geometry.in .
  -----------------------------------------------------------------------
  

  Basic array size parameters:
  | Number of species                 :        2
  | Number of atoms                   :      144
  | Number of lattice vectors         :        3
  | Max. basis fn. angular momentum   :        2
  | Max. atomic/ionic basis occupied n:        2
  | Max. number of basis fn. types    :        2
  | Max. radial fns per species/type  :        3
  | Max. logarithmic grid size        :     1277
  | Max. radial integration grid size :       34
  | Max. angular integration grid size:      302
  | Max. angular grid division number :        8
  | Radial grid for Hartree potential :     1277
  | Number of spin channels           :        1

------------------------------------------------------------
          Reading file control.in.
------------------------------------------------------------
  XC: Using Perdew-Wang parametrisation of Ceperley-Alder LDA.
  Spin treatment: No spin polarisation.
  Non-relativistic treatment of kinetic energy.
  Charge =   0.000000E+00: Neutral system requested explicitly.
  Found k-point grid:         2         1         1
  DFPT calculation will begin after the DFT/HF calculation.
  Charge density mixing - mixing parameter:     0.7500
  Forces will not be computed.
 
  Reading configuration options for species H                   .
  | Found nuclear charge :   1.0000
  | Found atomic mass :    1.00794000000000      amu
  | Found l_max for Hartree potential  :   4
  | Found cutoff potl. onset [A], width [A], scale factor :    3.50000    1.50000    1.00000
  | Threshold for basis-dependent cutoff potential is   0.100000E-03
  | Found data for basic radial integration grid :    24 points, outermost radius =    5.000 A
  | Found multiplier for basic radial grid :   1
  | Found angular grid specification: user-specified.
  | Specified grid contains     5 separate shells.
  | Check grid settings after all constraints further below.
  | Found free-atom valence shell :  1 s   1.000
  | No ionic wave fns used. Skipping ion_occ.
  | Found hydrogenic basis function :  2 s   2.100
  | Found hydrogenic basis function :  2 p   3.500
  Species H                   : Missing cutoff potential type.
  Defaulting to exp(1/x)/(1-x)^2 type cutoff potential.
  Species H : No 'logarithmic' tag. Using default grid for free atom:
  | Default logarithmic grid data [bohr] : 0.1000E-03 0.1000E+03 0.1012E+01
  Species H : On-site basis accuracy parameter (for Gram-Schmidt orthonormalisation) not specified.
  Using default value basis_acc =  0.1000000E-03.
  Species H                   : Using default innermost maximum threshold i_radial=  2 for radial functions.
  Species H                   : Default cutoff onset for free atom density etc. : 0.35000000E+01 AA.
  Species H                   : Basic radial grid will be enhanced according to radial_multiplier =   1, to contain    24 grid points.
 
  Reading configuration options for species C                   .
  | Found nuclear charge :   6.0000
  | Found atomic mass :    12.0107000000000      amu
  | Found l_max for Hartree potential  :   4
  | Found cutoff potl. onset [A], width [A], scale factor :    3.50000    1.50000    1.00000
  | Threshold for basis-dependent cutoff potential is   0.100000E-03
  | Found data for basic radial integration grid :    34 points, outermost radius =    5.000 A
  | Found multiplier for basic radial grid :   1
  | Found angular grid specification: user-specified.
  | Specified grid contains     5 separate shells.
  | Check grid settings after all constraints further below.
  | Found free-atom valence shell :  2 s   2.000
  | Found free-atom valence shell :  2 p   2.000
  | No ionic wave fns used. Skipping ion_occ.
  | No ionic wave fns used. Skipping ion_occ.
  | Found hydrogenic basis function :  2 p   1.700
  | Found hydrogenic basis function :  3 d   6.000
  | Found hydrogenic basis function :  2 s   4.900
  Species C                   : Missing cutoff potential type.
  Defaulting to exp(1/x)/(1-x)^2 type cutoff potential.
  Species C : No 'logarithmic' tag. Using default grid for free atom:
  | Default logarithmic grid data [bohr] : 0.1000E-03 0.1000E+03 0.1012E+01
  Species C : On-site basis accuracy parameter (for Gram-Schmidt orthonormalisation) not specified.
  Using default value basis_acc =  0.1000000E-03.
  Species C                   : Using default innermost maximum threshold i_radial=  2 for radial functions.
  Species C                   : Default cutoff onset for free atom density etc. : 0.35000000E+01 AA.
  Species C                   : Basic radial grid will be enhanced according to radial_multiplier =   1, to contain    34 grid points.
 
  Finished reading input file 'control.in'.
 
------------------------------------------------------------


------------------------------------------------------------
          Reading geometry description geometry.in.
------------------------------------------------------------
  | The smallest distance between any two atoms is         1.05523469 AA.
  | The first atom of this pair is atom number                      7 .
  | The second atom of this pair is atom number                    27 .
  | Wigner-Seitz cell of the first atom image           0     0     0 .
  | (The Wigner-Seitz cell of the second atom is 0 0 0  by definition.)

  Symmetry information by spglib:
  | Precision set to  0.1E-04
  | Number of Operations  : 1
  | Space group           : 1
  | International         : P1
  | Schoenflies           : C1^1
  Input structure read successfully.
  The structure contains      144 atoms,  and a total of        544.000 electrons.

  Input geometry:
  | Unit cell:
  |        8.10200000        0.00000000        0.00000000
  |        0.00000000       11.88000000        0.00000000
  |       -9.78509185        0.00000000       14.25711196
  | Atomic structure:
  |       Atom                x [A]            y [A]            z [A]
  |    1: Species C            -0.98736000        0.33895600        2.43532000
  |    2: Species C             0.10831900        3.18033000        4.77539000
  |    3: Species C             4.08217000        5.85092000        4.81061000
  |    4: Species C             3.25017000        2.83294000        2.30695000
  |    5: Species C            -0.10101300        1.06640000        1.67448000
  |    6: Species C            -0.66409100        3.98937000        5.57066000
  |    7: Species C             3.35066000        5.01903000        5.60984000
  |    8: Species C             4.04348000        2.01083000        1.51991000
  |    9: Species C             0.29771300        0.61732700        0.38724400
  |   10: Species C            -0.99990900        3.62381000        6.89508000
  |   11: Species C             3.14401000        5.34821000        6.95730000
  |   12: Species C             4.35665000        2.31503000        0.17888800
  |   13: Species C            -3.86058000        1.59350000        6.66492000
  |   14: Species C             3.11846000        4.36416000        0.44413700
  |   15: Species C             7.13424000        4.49391000        0.69411300
  |   16: Species C             0.27382800        1.53666000        6.58765000
  |   17: Species C            -3.47040000        1.26763000        5.38283000
  |   18: Species C             2.75199000        4.01492000        1.70715000
  |   19: Species C             6.79532000        4.91290000        1.96331000
  |   20: Species C             0.58605500        1.94545000        5.29785000
  |   21: Species H            -1.32560000        0.69909400        3.42015000
  |   22: Species H             0.37533000        3.45101000        3.75137000
  |   23: Species H             4.27830000        5.58433000        3.76349000
  |   24: Species H             2.98189000        2.49496000        3.31475000
  |   25: Species H             0.22139600        2.04190000        2.03223000
  |   26: Species H            -1.02695000        4.97051000        5.20555000
  |   27: Species H             2.87164000        4.15193000        5.24625000
  |   28: Species H             4.39506000        1.05930000        1.86796000
  |   29: Species H            -3.54812000        2.57396000        7.07894000
  |   30: Species H             2.74632000        5.29482000        0.04483720
  |   31: Species H             6.78700000        3.53748000        0.34382600
  |   32: Species H             0.58777600        0.57657300        6.98297000
  |   33: Species H            -2.89184000        1.97924000        4.79167000
  |   34: Species H             2.08238000        4.69996000        2.24149000
  |   35: Species H             6.17558000        4.30739000        2.63544000
  |   36: Species H             1.29426000        1.34365000        4.71545000
  |   37: Species C            -5.60350000       -0.02227620        9.56849000
  |   38: Species C            -4.61934000        3.10421000       11.79920000
  |   39: Species C            -0.64955400        5.69659000       12.04360000
  |   40: Species C            -1.64733000        2.85094000        9.50831000
  |   41: Species C            -4.91810000        0.92134600        8.82917000
  |   42: Species C            -5.50482000        3.87469000       12.55640000
  |   43: Species C            -1.51429000        4.95238000       12.80650000
  |   44: Species C            -0.86892200        2.01955000        8.71943000
  |   45: Species C            -4.58460000        0.67418800        7.46644000
  |   46: Species C            -5.86634000        3.54315000       13.89320000
  |   47: Species C            -1.87018000        5.34004000       14.13430000
  |   48: Species C            -0.51937500        2.38779000        7.39849000
  |   49: Species C            -8.67859000        1.44976000       13.83790000
  |   50: Species C            -1.71968000        4.52370000        7.73533000
  |   51: Species C             2.32756000        4.52668000        7.79295000
  |   52: Species C            -4.57095000        1.48925000       13.64340000
  |   53: Species C            -8.31690000        1.02887000       12.56640000
  |   54: Species C            -2.03386000        4.12764000        9.03117000
  |   55: Species C             2.04114000        4.89127000        9.11637000
  |   56: Species C            -4.17134000        1.87813000       12.36960000
  |   57: Species H            -5.72937000        0.21640800       10.63210000
  |   58: Species H            -4.34392000        3.42488000       10.81090000
  |   59: Species H            -0.29188300        5.44625000       11.05880000
  |   60: Species H            -1.92880000        2.57690000       10.53260000
  |   61: Species H            -4.62842000        1.87222000        9.29280000
  |   62: Species H            -5.88647000        4.81206000       12.17030000
  |   63: Species H            -1.90134000        3.98841000       12.46840000
  |   64: Species H            -0.60395700        1.03650000        9.13752000
  |   65: Species H            -8.31873000        2.42843000       14.19710000
  |   66: Species H            -2.00127000        5.49555000        7.32378000
  |   67: Species H             1.99018000        3.58107000        7.41958000
  |   68: Species H            -4.20041000        0.57563700       14.09980000
  |   69: Species H            -7.71981000        1.67993000       11.94650000
  |   70: Species H            -2.56512000        4.78047000        9.72922000
  |   71: Species H             1.42163000        4.21815000        9.72868000
  |   72: Species H            -3.51169000        1.19716000       11.82010000
  |   73: Species C            -0.84283600        6.14278000        2.44720000
  |   74: Species C             0.01986860        9.10720000        4.81560000
  |   75: Species C             4.21571000       11.89750000        4.81047000
  |   76: Species C             3.20961000        8.73723000        2.39652000
  |   77: Species C            -0.08497300        6.99998000        1.66895000
  |   78: Species C            -0.77169600        9.90858000        5.62771000
  |   79: Species C             3.51853000       11.00180000        5.54977000
  |   80: Species C             4.00025000        7.88617000        1.65733000
  |   81: Species C             0.26080000        6.61056000        0.35437900
  |   82: Species C            -1.03406000        9.51215000        6.96868000
  |   83: Species C             3.12353000       11.28140000        6.88948000
  |   84: Species C             4.36103000        8.16016000        0.31605000
  |   85: Species C            -3.79788000        7.47778000        6.62322000
  |   86: Species C             3.14200000       10.30270000        0.51803700
  |   87: Species C             7.12952000       10.40600000        0.72517600
  |   88: Species C             0.23564100        7.44669000        6.55041000
  |   89: Species C            -3.51821000        7.12928000        5.31005000
  |   90: Species C             2.77579000        9.96786000        1.80192000
  |   91: Species C             6.67239000       10.92350000        1.94222000
  |   92: Species C             0.53142800        7.87694000        5.28144000
  |   93: Species H            -1.09478000        6.39678000        3.47497000
  |   94: Species H             0.29057600        9.50826000        3.83092000
  |   95: Species H             4.51187000       11.67580000        3.76347000
  |   96: Species H             2.92018000        8.43976000        3.40897000
  |   97: Species H             0.25206400        7.93166000        2.06750000
  |   98: Species H            -1.22935000       10.83540000        5.24692000
  |   99: Species H             3.22573000       10.04700000        5.12055000
  |  100: Species H             4.29572000        6.94152000        2.08041000
  |  101: Species H            -3.37802000        8.41357000        7.00334000
  |  102: Species H             2.84441000       11.27610000        0.10275200
  |  103: Species H             6.78477000        9.43639000        0.44148000
  |  104: Species H             0.61782500        6.46557000        6.86544000
  |  105: Species H            -2.89837000        7.74917000        4.67027000
  |  106: Species H             2.07156000       10.60910000        2.40664000
  |  107: Species H             5.97464000       10.31430000        2.52801000
  |  108: Species H             1.16952000        7.30364000        4.63446000
  |  109: Species C            -5.57749000        6.12653000        9.66064000
  |  110: Species C            -4.63345000        8.90573000       11.91170000
  |  111: Species C            -0.63690300       11.63490000       12.11490000
  |  112: Species C            -1.51028000        8.70715000        9.60687000
  |  113: Species C            -4.76371000        6.91747000        8.85687000
  |  114: Species C            -5.41740000        9.75519000       12.69060000
  |  115: Species C            -1.45474000       10.82030000       12.84860000
  |  116: Species C            -0.74753500        7.87776000        8.79525000
  |  117: Species C            -4.46880000        6.59285000        7.49777000
  |  118: Species C            -5.81178000        9.46047000       14.01250000
  |  119: Species C            -1.84368000       11.19870000       14.15970000
  |  120: Species C            -0.47784700        8.28448000        7.45450000
  |  121: Species C            -8.70218000        7.40720000       13.78120000
  |  122: Species C            -1.77488000       10.34480000        7.83434000
  |  123: Species C             2.41623000       10.34460000        7.70584000
  |  124: Species C            -4.63690000        7.31741000       13.72860000
  |  125: Species C            -8.35167000        6.95875000       12.51590000
  |  126: Species C            -2.01068000        9.94856000        9.13251000
  |  127: Species C             2.10431000       10.62610000        9.03619000
  |  128: Species C            -4.26757000        7.65530000       12.44850000
  |  129: Species H            -5.79707000        6.45790000       10.66850000
  |  130: Species H            -4.33221000        9.14556000       10.89380000
  |  131: Species H            -0.36642700       11.24530000       11.11010000
  |  132: Species H            -1.83569000        8.39935000       10.60480000
  |  133: Species H            -4.36133000        7.85399000        9.24099000
  |  134: Species H            -5.71607000       10.74390000       12.23580000
  |  135: Species H            -1.73089000        9.83085000       12.43310000
  |  136: Species H            -0.42382900        6.89501000        9.06989000
  |  137: Species H            -8.43096000        8.39764000       14.11490000
  |  138: Species H            -2.17998000       11.28410000        7.43602000
  |  139: Species H             2.18283000        9.36345000        7.28006000
  |  140: Species H            -4.31461000        6.33248000       14.11860000
  |  141: Species H            -7.79726000        7.62250000       11.88230000
  |  142: Species H            -2.50201000       10.60970000        9.86048000
  |  143: Species H             1.61142000        9.88385000        9.65370000
  |  144: Species H            -3.68721000        6.94928000       11.82160000

  Lattice parameters for 3D lattice (in Angstroms) :     8.102000   11.880000   17.292000
  Angle(s) between unit vectors (in degrees)       :    90.000000  124.463000   90.000000


  Quantities derived from the lattice vectors (in Angstrom^-1):
  | Reciprocal lattice vector 1:  0.775510  0.000000  0.532257
  | Reciprocal lattice vector 2:  0.000000  0.528888  0.000000
  | Reciprocal lattice vector 3: -0.000000  0.000000  0.440705
  | Unit cell volume                               :   0.137227E+04  Angstrom^3

  Fractional coordinates:
                         L1                L2                L3
       atom_frac         0.08443280        0.02853165        0.17081440  C
       atom_frac         0.41789869        0.26770455        0.33494792  C
       atom_frac         0.91136000        0.49250168        0.33741827  C
       atom_frac         0.59658113        0.23846296        0.16181047  C
       atom_frac         0.12937964        0.08976431        0.11744875  C
       atom_frac         0.38993129        0.33580556        0.39072850  C
       atom_frac         0.88877619        0.42247727        0.39347660  C
       atom_frac         0.62782532        0.16926178        0.10660714  C
       atom_frac         0.06954954        0.05196355        0.02716146  C
       atom_frac         0.46067579        0.30503451        0.48362389  C
       atom_frac         0.97741517        0.45018603        0.48798803  C
       atom_frac         0.55287908        0.19486785        0.01254728  C
       atom_frac         0.08809657        0.13413300        0.46748037  C
       atom_frac         0.42252343        0.36735354        0.03115196  C
       atom_frac         0.93935213        0.37827525        0.04868539  C
       atom_frac         0.59184567        0.12934848        0.46206062  C
       atom_frac         0.02764759        0.10670286        0.37755402  C
       atom_frac         0.48428280        0.33795623        0.11974024  C
       atom_frac         1.00503575        0.41354377        0.13770741  C
       atom_frac         0.52112212        0.16375842        0.37159349  C
       atom_frac         0.12611127        0.05884630        0.23989080  H
       atom_frac         0.36410885        0.29048906        0.26312271  H
       atom_frac         0.84686476        0.47006145        0.26397282  H
       atom_frac         0.64884032        0.21001347        0.23249800  H
       atom_frac         0.19947884        0.17187710        0.14254149  H
       atom_frac         0.31421601        0.41839310        0.36511953  H
       atom_frac         0.79885235        0.34948906        0.36797424  H
       atom_frac         0.70070329        0.08916667        0.13101952  H
       atom_frac         0.16173450        0.21666330        0.49651991  H
       atom_frac         0.34276637        0.44569192        0.00314490  H
       atom_frac         0.86682033        0.29776768        0.02411610  H
       atom_frac         0.66408317        0.04853308        0.48978854  H
       atom_frac         0.04897922        0.16660269        0.33608981  H
       atom_frac         0.44689992        0.39561953        0.15721908  H
       atom_frac         0.98548050        0.36257492        0.18485090  H
       atom_frac         0.55919742        0.11310185        0.33074370  H
       atom_frac         0.11893943       -0.00187510        0.67113803  C
       atom_frac         0.42937691        0.26129714        0.82760099  C
       atom_frac         0.94005639        0.47951094        0.84474331  C
       atom_frac         0.60213699        0.23997811        0.66691698  C
       atom_frac         0.14090710        0.07755438        0.61928180  C
       atom_frac         0.38422874        0.32615236        0.88071133  C
       atom_frac         0.89795143        0.41686700        0.89825345  C
       atom_frac         0.63138600        0.16999579        0.61158459  C
       atom_frac         0.06663121        0.05674983        0.52369933  C
       atom_frac         0.45284966        0.29824495        0.97447506  C
       atom_frac         0.96650484        0.44949832        0.99138592  C
       atom_frac         0.56263082        0.20099242        0.51893329  C
       atom_frac         0.10105947        0.12203367        0.97059629  C
       atom_frac         0.44301574        0.38078283        0.54255939  C
       atom_frac         0.94743271        0.38103367        0.54660088  C
       atom_frac         0.59157400        0.12535774        0.95695398  C
       atom_frac         0.03799118        0.08660522        0.88141273  C
       atom_frac         0.51400989        0.34744444        0.63345017  C
       atom_frac         1.02418952        0.41172306        0.63942614  C
       atom_frac         0.53299120        0.15809175        0.86760909  C
       atom_frac         0.19350349        0.01821616        0.74574009  H
       atom_frac         0.37965085        0.28828956        0.75828120  H
       atom_frac         0.90077877        0.45843855        0.77566902  H
       atom_frac         0.65416507        0.21691077        0.73876112  H
       atom_frac         0.21593591        0.15759428        0.65180101  H
       atom_frac         0.30441607        0.40505556        0.85363011  H
       atom_frac         0.82153840        0.33572475        0.87453897  H
       atom_frac         0.69950659        0.08724747        0.64090961  H
       atom_frac         0.17590395        0.20441330        0.99579073  H
       atom_frac         0.37339720        0.46258838        0.51369310  H
       atom_frac         0.87416250        0.30143687        0.52041255  H
       atom_frac         0.67597060        0.04845429        0.98896607  H
       atom_frac         0.05917529        0.14140825        0.83793268  H
       atom_frac         0.50757111        0.40239646        0.68241170  H
       atom_frac         0.99959523        0.35506313        0.68237382  H
       atom_frac         0.56786053        0.10077104        0.82906693  H
       atom_frac         0.10327724        0.51706902        0.17164767  C
       atom_frac         0.41038782        0.76659933        0.33776827  C
       atom_frac         0.92783049        1.00147306        0.33740845  C
       atom_frac         0.59916255        0.73545707        0.16809295  C
       atom_frac         0.13089094        0.58922391        0.11706087  C
       atom_frac         0.38148277        0.83405556        0.39473001  C
       atom_frac         0.90440716        0.92607744        0.38926327  C
       atom_frac         0.63413062        0.66381902        0.11624584  C
       atom_frac         0.06220947        0.55644444        0.02485630  C
       atom_frac         0.46269540        0.80068603        0.48878623  C
       atom_frac         0.96914228        0.94961279        0.48323111  C
       atom_frac         0.56503885        0.68688215        0.02216788  C
       atom_frac         0.09230294        0.62944276        0.46455552  C
       atom_frac         0.43168904        0.86723064        0.03633534  C
       atom_frac         0.94140095        0.87592593        0.05086416  C
       atom_frac         0.58397774        0.62682576        0.45944859  C
       atom_frac         0.01558130        0.60010774        0.37244920  C
       atom_frac         0.49524843        0.83904545        0.12638745  C
       atom_frac         0.98807640        0.91948653        0.13622815  C
       atom_frac         0.51298960        0.66304209        0.37044249  C
       atom_frac         0.15924440        0.53844949        0.24373590  H
       atom_frac         0.36038676        0.80035859        0.26870239  H
       atom_frac         0.87569175        0.98281145        0.26397141  H
       atom_frac         0.64920518        0.71041751        0.23910663  H
       atom_frac         0.20625185        0.66764815        0.14501534  H
       atom_frac         0.29273903        0.91207071        0.36802124  H
       atom_frac         0.83190817        0.84570707        0.35915759  H
       atom_frac         0.70643903        0.58430303        0.14592086  H
       atom_frac         0.17632515        0.70821296        0.49121730  H
       atom_frac         0.35977929        0.94916667        0.00720707  H
       atom_frac         0.87481748        0.79430892        0.03096560  H
       atom_frac         0.65783589        0.54423990        0.48154493  H
       atom_frac         0.03788930        0.65228704        0.32757476  H
       atom_frac         0.45955451        0.89302189        0.16880277  H
       atom_frac         0.95157869        0.86820707        0.17731571  H
       atom_frac         0.53694046        0.61478451        0.32506303  H
       atom_frac         0.12995589        0.51570118        0.67760147  C
       atom_frac         0.43716538        0.74964057        0.83549179  C
       atom_frac         0.94765777        0.97936869        0.84974433  C
       atom_frac         0.62740170        0.73292508        0.67383002  C
       atom_frac         0.16230939        0.58227862        0.62122469  C
       atom_frac         0.40638692        0.82114394        0.89012417  C
       atom_frac         0.90886781        0.91079966        0.90120636  C
       atom_frac         0.65279116        0.66311111        0.61690264  C
       atom_frac         0.08357798        0.55495370        0.52589683  C
       atom_frac         0.46968985        0.79633586        0.98284281  C
       atom_frac         0.97192731        0.94265152        0.99316748  C
       atom_frac         0.57250114        0.69734680        0.52286185  C
       atom_frac         0.09334472        0.62350168        0.96661933  C
       atom_frac         0.44458986        0.87077441        0.54950400  C
       atom_frac         0.95099773        0.87075758        0.54049095  C
       atom_frac         0.59065144        0.61594360        0.96292994  C
       atom_frac         0.02942173        0.58575337        0.87787064  C
       atom_frac         0.52545555        0.83742088        0.64055820  C
       atom_frac         1.02519421        0.89445286        0.63380228  C
       atom_frac         0.52779760        0.64438552        0.87314317  C
       atom_frac         0.18823102        0.54359428        0.74829320  H
       atom_frac         0.38811874        0.76982828        0.76409584  H
       atom_frac         0.89592376        0.94657407        0.77926722  H
       atom_frac         0.67177345        0.70701599        0.74382526  H
       atom_frac         0.24451296        0.66111027        0.64816704  H
       atom_frac         0.33099650        0.90436869        0.85822430  H
       atom_frac         0.83958611        0.82751263        0.87206301  H
       atom_frac         0.71601010        0.58038805        0.63616601  H
       atom_frac         0.15508855        0.70687205        0.99002519  H
       atom_frac         0.36084768        0.94984007        0.52156566  H
       atom_frac         0.88612167        0.78816919        0.51062656  H
       atom_frac         0.66346789        0.53303704        0.99028471  H
       atom_frac         0.04417746        0.64162458        0.83342966  H
       atom_frac         0.52647975        0.89307239        0.69161833  H
       atom_frac         1.01666866        0.83197391        0.67711469  H
       atom_frac         0.54632381        0.58495623        0.82917214  H

 
  Finished reading input file 'geometry.in'.
 

 
  Consistency checks for stacksize environment parameter are next.
 
  | Maximum stacksize for task 0: unlimited
  | Maximum stacksize for task 1: unlimited
  | Maximum stacksize for task 2: unlimited
  | Maximum stacksize for task 3: unlimited
  | Maximum stacksize for task 4: unlimited
  | Maximum stacksize for task 5: unlimited
  | Maximum stacksize for task 6: unlimited
  | Maximum stacksize for task 7: unlimited
  | Maximum stacksize for task 8: unlimited
  | Maximum stacksize for task 9: unlimited
  | Maximum stacksize for task 10: unlimited
  | Maximum stacksize for task 11: unlimited
  | Maximum stacksize for task 12: unlimited
  | Maximum stacksize for task 13: unlimited
  | Maximum stacksize for task 14: unlimited
  | Maximum stacksize for task 15: unlimited
  | Maximum stacksize for task 16: unlimited
  | Maximum stacksize for task 17: unlimited
  | Current stacksize for task 0: unlimited
  | Current stacksize for task 1: unlimited
  | Current stacksize for task 2: unlimited
  | Current stacksize for task 3: unlimited
  | Current stacksize for task 4: unlimited
  | Current stacksize for task 5: unlimited
  | Current stacksize for task 6: unlimited
  | Current stacksize for task 7: unlimited
  | Current stacksize for task 8: unlimited
  | Current stacksize for task 9: unlimited
  | Current stacksize for task 10: unlimited
  | Current stacksize for task 11: unlimited
  | Current stacksize for task 12: unlimited
  | Current stacksize for task 13: unlimited
  | Current stacksize for task 14: unlimited
  | Current stacksize for task 15: unlimited
  | Current stacksize for task 16: unlimited
  | Current stacksize for task 17: unlimited
 
  Consistency checks for the contents of control.in are next.
 
  MPI_IN_PLACE appears to work with this MPI implementation.
  | Keeping use_mpi_in_place .true. (see manual).
  Explicit treatment of the Coulomb operator is needed, but the RI method is not specified.
  Coulomb operator: Defaulting to 'LVL fast' resolution of identity - RI_type = LVL_fast
  Species H: Using default value for prodbas_acc =   1.000000E-06.
  Species H: Using default value max_l_prodbas =     6.
  Species C: Using default value for prodbas_acc =   1.000000E-06.
  Species C: Using default value max_l_prodbas =     6.
  Target number of points in a grid batch is not set.  Since GPU acceleration is enabled, defaulting to  200
  Method for grid partitioning is not set. Defaulting to parallel hash+maxmin partitioning.
  Batch size limit is not set. Defaulting to    200
  By default, will store active basis functions for each batch.
  If in need of memory, prune_basis_once .false. can be used to disable this option.
  communication_type for Hartree potential was not specified.
  Defaulting to calc_hartree .
  Defaulting to Pulay charge density mixer.
  Pulay mixer: Number of relevant iterations not set.
  Defaulting to    8 iterations.
  Pulay mixer: Number of initial linear mixing iterations not set.
  Defaulting to    0 iterations.
  Work space size for distributed Hartree potential not set.
  Defaulting to   0.200000E+03 MB.
  Algorithm-dependent basis array size parameters:
  | n_max_pulay                         :        8
  Maximum number of self-consistency iterations not provided.
  Presetting  1000 iterations.
  Presetting      1001 iterations before the initial mixing cycle
  is restarted anyway using the sc_init_iter criterion / keyword.
  Presetting a factor      1.000 between actual scf density residual
  and density convergence criterion sc_accuracy_rho below which sc_init_iter
  takes no effect.
 * No s.c.f. convergence criteria (sc_accuracy_*) were provided in control.in.
 * The run will proceed with a reasonable default guess, but please check whether.
 * the s.c.f. cycles seem to take too much or too little time.
  Geometry relaxation not requested: no relaxation will be performed.
 * Notice: The s.c.f. convergence criterion sc_accuracy_rho was not provided.
 * We used to stop in this case, and ask the user to provide reasonable
 * scf convergence criteria. However, this led some users to employ criteria
 * that led to extremely long run times, e.g., for simple relaxation.
 * We now preset a default value for sc_accuracy_rho if it is not set.
 * You may still wish to check if this setting is too tight or too loose for your needs.
 * Based on n_atoms and forces and force-correction status, FHI-aims chose sc_accuracy_rho =  0.391918E-04 .
  No accuracy limit for integral partition fn. given. Defaulting to  0.1000E-14.
  No threshold value for u(r) in integrations given. Defaulting to  0.1000E-05.
  No occupation type (smearing scheme) given. Defaulting to Gaussian broadening, width =  0.1000E-01 eV.
  The width will be adjusted in iteration number     2 of the first full s.c.f. cycle only.
  S.C.F. convergence parameters will be adjusted in iteration number     2 of the first full s.c.f. cycle only.
  No accuracy for occupation numbers given. Defaulting to  0.1000E-12.
  No threshold value for occupation numbers given. Defaulting to  0.0000E+00.
  No accuracy for fermi level given. Defaulting to  0.1000E-19.
  Maximum # of iterations to find E_F not set. Defaulting to  200.
  Preferred method for the eigenvalue solver ('KS_method') not specified in 'control.in'.
  Calling BLACS routine to test compilation state
  Since ScaLAPACK support is enabled, defaulting to ELPA (via ELSI).
  Will not use alltoall communication since running on < 1024 CPUs.
  Threshold for basis singularities not set.
  Default threshold for basis singularities:  0.1000E-04
  partition_type (choice of integration weights) for integrals was not specified.
  | Using a version of the partition function of Stratmann and coworkers ('stratmann_sparse').
  | At each grid point, the set of atoms used to build the partition table is smoothly restricted to
  | only those atoms whose free-atom density would be non-zero at that grid point.
  Partitioning for Hartree potential was not defined. Using partition_type for integrals.
  | Adjusted default value of keyword multip_moments_threshold to:       0.10000000E-11
  | This value may affect high angular momentum components of the Hartree potential in periodic systems.
  Angular momentum expansion for Kerker preconditioner not set explicitly.
  | Using default value of   0
  No explicit requirement for turning off preconditioner.
  | By default, it will be turned off when the charge convergence reaches
  | sc_accuracy_rho  =   0.391918E-04
  No special mixing parameter while Kerker preconditioner is on.
  Using default: charge_mix_param =     0.7500.
  Threshold for auxiliary basis singularities not set.
  Default threshold for auxiliary basis singularities:  0.1000E-04
  No q(lm)/r^(l+1) cutoff set for long-range Hartree potential.
  | Using default value of  0.100000E-09 .
  | Verify using the multipole_threshold keyword.
  Defaulting to new monopole extrapolation.
  Density update method: automatic selection selected.
  Using density matrix based charge density update.
  Using density matrix based charge density update.
  Using packed matrix style: index .
  Defaulting to use time-reversal symmetry for k-point grid.
  Charge integration errors on the 3D integration grid will be compensated
  by explicit normalization and distribution of residual charges.
  Use the "compensate_multipole_errors" flag to change this behaviour.
  Default to 1D ("use_logsbt") integrations for auxiliary 2-center integrals.
  Default onset of logarithmic r-grid for SBT is -38.000000000000
  Default onset of logarithmic k-grid for SBT is -25.000000000000
  Default range of logarithmic r- and k-grid for SBT is  45.000000000000
  Default number of logarithmic r- and k-grid for SBT is   4096
  Default of use_2d_corr is to use the efficient 2D distribution where possible
 
  Consistency checks for the contents of geometry.in are next.
 

  Range separation radius for Ewald summation (hartree_convergence_parameter):      2.91768261 bohr.
  Number of empty states per atom not set in control.in .
  | Since you are using a method that relies on the unoccupied spectrum
  | (MP2,GW,RPA et al.), will use the full Hamiltonian size (see below)
  | as the max. possible number of states (occupied plus empty).

  Structure-dependent array size parameters: 
  | Maximum number of distinct radial functions  :        9
  | Maximum number of basis functions            :     1440
  | Number of Kohn-Sham states (occupied + empty):     1440
------------------------------------------------------------
CUDA runtime version: 11060
CUDA driver version: 11060
  Initializing GPUs...

  Number of GPUs available to MPI task         0 :   1
  Number of GPUs available to MPI task         1 :   1
  Number of GPUs available to MPI task         2 :   1
  Number of GPUs available to MPI task         3 :   1
  Number of GPUs available to MPI task         4 :   1
  Number of GPUs available to MPI task         5 :   1
  Number of GPUs available to MPI task         6 :   1
  Number of GPUs available to MPI task         7 :   1
  Number of GPUs available to MPI task         8 :   1
  Number of GPUs available to MPI task         9 :   1
  Number of GPUs available to MPI task        10 :   1
  Number of GPUs available to MPI task        11 :   1
  Number of GPUs available to MPI task        12 :   1
  Number of GPUs available to MPI task        13 :   1
  Number of GPUs available to MPI task        14 :   1
  Number of GPUs available to MPI task        15 :   1
  Number of GPUs available to MPI task        16 :   1
  Number of GPUs available to MPI task        17 :   1

  | MPI task         0, GPU activated = T, Device Name = NVIDIA A100-SXM4-80GB
  | MPI task         1, GPU activated = T, Device Name = NVIDIA A100-SXM4-80GB
  | MPI task         2, GPU activated = T, Device Name = NVIDIA A100-SXM4-80GB
  | MPI task         3, GPU activated = T, Device Name = NVIDIA A100-SXM4-80GB
  | MPI task         4, GPU activated = T, Device Name = NVIDIA A100-SXM4-80GB
  | MPI task         5, GPU activated = T, Device Name = NVIDIA A100-SXM4-80GB
  | MPI task         6, GPU activated = T, Device Name = NVIDIA A100-SXM4-80GB
  | MPI task         7, GPU activated = T, Device Name = NVIDIA A100-SXM4-80GB
  | MPI task         8, GPU activated = T, Device Name = NVIDIA A100-SXM4-80GB
  | MPI task         9, GPU activated = T, Device Name = NVIDIA A100-SXM4-80GB
  | MPI task        10, GPU activated = T, Device Name = NVIDIA A100-SXM4-80GB
  | MPI task        11, GPU activated = T, Device Name = NVIDIA A100-SXM4-80GB
  | MPI task        12, GPU activated = T, Device Name = NVIDIA A100-SXM4-80GB
  | MPI task        13, GPU activated = T, Device Name = NVIDIA A100-SXM4-80GB
  | MPI task        14, GPU activated = T, Device Name = NVIDIA A100-SXM4-80GB
  | MPI task        15, GPU activated = T, Device Name = NVIDIA A100-SXM4-80GB
  | MPI task        16, GPU activated = T, Device Name = NVIDIA A100-SXM4-80GB
  | MPI task        17, GPU activated = T, Device Name = NVIDIA A100-SXM4-80GB

------------------------------------------------------------
          Preparing all fixed parts of the calculation.
------------------------------------------------------------
  Determining machine precision:
    2.225073858507201E-308
  Setting up grids for atomic and cluster calculations.

  Creating wave function, potential, and density for free atoms.
  Runtime choices for atomic solver:
  | atomic solver xc        : PW-LDA
  | compute density gradient: 0
  | compute kinetic density : F

  Species: H

  List of occupied orbitals and eigenvalues:
    n    l              occ      energy [Ha]    energy [eV]
    1    0           1.0000        -0.232375        -6.3233


  Species: C

  List of occupied orbitals and eigenvalues:
    n    l              occ      energy [Ha]    energy [eV]
    1    0           2.0000        -9.944615      -270.6068
    2    0           2.0000        -0.498807       -13.5732
    2    1           2.0000        -0.196968        -5.3598


  Adding cutoff potential to free-atom effective potential.
  Creating fixed part of basis set: Ionic, confined, hydrogenic.
 
  H                    hydrogenic:
 
  List of hydrogenic basis orbitals: 
    n    l      effective z      eigenvalue [eV]  inner max. [A]     outer max. [A]     outer radius [A]   
    2    0         2.100000       -14.9728           0.193243           1.317208           4.583499
    2    1         3.500000       -41.6669           0.602369           0.602369           3.723403
 
 
  C                    hydrogenic:
 
  List of hydrogenic basis orbitals: 
    n    l      effective z      eigenvalue [eV]  inner max. [A]     outer max. [A]     outer radius [A]   
    2    1         1.700000        -9.7616           1.230570           1.230570           4.607917
    3    2         6.000000       -54.4224           0.792453           0.792453           3.883070
    2    0         4.900000       -81.6679           0.082559           0.562749           3.078220
 
  Creating atomic-like basis functions for current effective potential.

  Species H                   :

  List of atomic basis orbitals and eigenvalues:
    n    l      energy [Ha]    energy [eV]    outer radius [A]
    1    0        -0.232375        -6.3233       4.527807


  Species C                   :

  List of atomic basis orbitals and eigenvalues:
    n    l      energy [Ha]    energy [eV]    outer radius [A]
    1    0        -9.944615      -270.6068       1.934409
    2    0        -0.498807       -13.5732       4.496620
    2    1        -0.196968        -5.3598       4.551928

  Assembling full basis from fixed parts.
  | Species H :   atomic orbital   1 s accepted.
  | Species H :    hydro orbital   2 s accepted.
  | Species H :    hydro orbital   2 p accepted.
  | Species C :   atomic orbital   1 s accepted.
  | Species C :    hydro orbital   2 s accepted.
  | Species C :   atomic orbital   2 s accepted.
  | Species C :   atomic orbital   2 p accepted.
  | Species C :    hydro orbital   2 p accepted.
  | Species C :    hydro orbital   3 d accepted.
 
  Basis size parameters after reduction:
  | Total number of radial functions:        9
  | Total number of basis functions :     1440
 
  Per-task memory consumption for arrays in subroutine allocate_ext:
  |           2.242384MB.
  Testing on-site integration grid accuracy.
  |  Species  Function  <phi|h_atom|phi> (log., in eV)  <phi|h_atom|phi> (rad., in eV)
           1        1                 -6.3245358373                 -6.3232436907
           1        2                 14.1326137532                 14.1384481100
           1        3                 25.3627025200                 25.3628451197
           2        4               -270.6067544938               -270.6067222788
           2        5                -10.5634280949                -10.5635685736
           2        6                 16.2089822398                 16.2052121796
           2        7                 -5.3613872565                 -5.3627872378
           2        8                  8.5292058327                  8.5051734780
           2        9                 27.4884461005                 27.4884542459

  Preparing densities etc. for the partition functions (integrals / Hartree potential).

  Preparations completed.
  max(cpu_time)          :      0.077 s.
  Wall clock time (cpu1) :      0.069 s.
------------------------------------------------------------

  Initializing index lists of integration centers etc. from given atomic structure:
  Mapping all atomic coordinates to central unit cell.

  Initializing the k-points
  Using symmetry for reducing the k-points
  | k-points reduced from:        2 to        2
  | Number of k-points                             :         2
  | Consuming          0 KiB for k_phase_exx.
  The eigenvectors in the calculations are REAL.
  | Number of basis functions in the Hamiltonian integrals :      8056
  | Number of basis functions in a single unit cell        :      1440
  | Number of centers in hartree potential         :      3317
  | Number of centers in hartree multipole         :      2554
  | Number of centers in electron density summation:      1988
  | Number of centers in basis integrals           :      2111
  | Number of centers in integrals                 :       970
  | Number of centers in hamiltonian               :      2003
  | Consuming          1 KiB for k_phase.
  | Number of super-cells (origin) [n_cells]                     :         175
  | Number of super-cells (after PM_index) [n_cells]             :          40
  | Number of super-cells in hamiltonian [n_cells_in_hamiltonian]:          40
  | Size of matrix packed + index [n_hamiltonian_matrix_size] :     1930195
  | Size of matrix packed + index (no_symmetry):     3857573

------------------------------------------------------------
          Begin self-consistency loop: Initialization.

          Date     :  20230119, Time     :  182639.990
------------------------------------------------------------
  | Estimated reciprocal-space cutoff momentum G_max:         3.24344278 bohr^-1 .
  | Reciprocal lattice points for long-range Hartree potential:    5310
  Using simple linear distribution as default method for k-point parallelism.
  * Using 18 tasks for Scalapack Eigenvalue solver.
  Detailed listing of tasks and assigned k-points:
   Task     0 k-point     1 on adag015
   Task     1 k-point     1 on adag015
   Task     2 k-point     1 on adag015
   Task     3 k-point     1 on adag015
   Task     4 k-point     1 on adag015
   Task     5 k-point     1 on adag015
   Task     6 k-point     1 on adag015
   Task     7 k-point     1 on adag015
   Task     8 k-point     1 on adag015
   Task     9 k-point     2 on adag015
   Task    10 k-point     2 on adag015
   Task    11 k-point     2 on adag015
   Task    12 k-point     2 on adag015
   Task    13 k-point     2 on adag015
   Task    14 k-point     2 on adag015
   Task    15 k-point     2 on adag015
   Task    16 k-point     2 on adag015
   Task    17 k-point     2 on adag015
  K-point:     1 Tasks:     9 split into      3 X      3 BLACS grid
  Calculating block size based on n_basis =         1440  max_nprow =            3  max_npcol =            3
  ScaLAPACK block size set to:           16
  Allocating        1.758 MB for ovlp
  Allocating        1.758 MB for ham
  Allocating        1.758 MB for eigenvec
  Required Scalapack workspace - INTEGER:            1  REAL:             1
  Partitioning the integration grid into batches with parallel hashing+maxmin method.
  | Number of batches:     5632
  | Maximal batch size:     194
  | Minimal batch size:     100
  | Average batch size:     135.625
  | Standard deviation of batch sizes:      31.169

  Integration load balanced across    18 MPI tasks.
  Work distribution over tasks is as follows:
  Task     0 has      42437 integration points.
  Task     1 has      42463 integration points.
  Task     2 has      42428 integration points.
  Task     3 has      42421 integration points.
  Task     4 has      42404 integration points.
  Task     5 has      42408 integration points.
  Task     6 has      42446 integration points.
  Task     7 has      42463 integration points.
  Task     8 has      42433 integration points.
  Task     9 has      42423 integration points.
  Task    10 has      42443 integration points.
  Task    11 has      42428 integration points.
  Task    12 has      42448 integration points.
  Task    13 has      42440 integration points.
  Task    14 has      42449 integration points.
  Task    15 has      42490 integration points.
  Task    16 has      42383 integration points.
  Task    17 has      42433 integration points.
  Initializing partition tables, free-atom densities, potentials, etc. across the integration grid (initialize_grid_storage).
  | initialize_grid_storage: Actual outermost partition radius vs. multipole_radius_free
  | (-- VB: in principle, multipole_radius_free should be larger, hence this output)
  | Species        1: Confinement radius =              4.999999999999999 AA, multipole_radius_free =              5.054417573612229 AA.
  | Species        1: outer_partition_radius set to              5.054417573612229 AA .
  | Species        2: Confinement radius =              4.999999999999999 AA, multipole_radius_free =              5.019602836301480 AA.
  | Species        2: outer_partition_radius set to              5.019602836301480 AA .
  | The sparse table of interatomic distances needs       7583.21 kbyte instead of     35650.57 kbyte of memory.
  | Net number of integration points:   763840
  | of which are non-zero points    :   605405
  | Numerical average free-atom electrostatic potential    :     -8.61464198 eV
  Renormalizing the initial density to the exact electron count on the 3D integration grid.
  | Initial density: Formal number of electrons (from input files) :     544.0000000000
  | Integrated number of electrons on 3D grid     :     543.9936515347
  | Charge integration error                      :      -0.0063484653
  | Normalization factor for density and gradient :       1.0000116701
  Renormalizing the free-atom superposition density to the exact electron count on the 3D integration grid.
  | Formal number of electrons (from input files) :     544.0000000000
  | Integrated number of electrons on 3D grid     :     543.9936515347
  | Charge integration error                      :      -0.0063484653
  | Normalization factor for density and gradient :       1.0000116701
  Obtaining max. number of non-zero basis functions in each batch (get_n_compute_maxes).
  | Maximal number of non-zero basis functions:      554 in task     0
  | Maximal number of non-zero basis functions:      532 in task     1
  | Maximal number of non-zero basis functions:      541 in task     2
  | Maximal number of non-zero basis functions:      543 in task     3
  | Maximal number of non-zero basis functions:      539 in task     4
  | Maximal number of non-zero basis functions:      551 in task     5
  | Maximal number of non-zero basis functions:      543 in task     6
  | Maximal number of non-zero basis functions:      530 in task     7
  | Maximal number of non-zero basis functions:      547 in task     8
  | Maximal number of non-zero basis functions:      537 in task     9
  | Maximal number of non-zero basis functions:      548 in task    10
  | Maximal number of non-zero basis functions:      558 in task    11
  | Maximal number of non-zero basis functions:      536 in task    12
  | Maximal number of non-zero basis functions:      538 in task    13
  | Maximal number of non-zero basis functions:      525 in task    14
  | Maximal number of non-zero basis functions:      549 in task    15
  | Maximal number of non-zero basis functions:      546 in task    16
  | Maximal number of non-zero basis functions:      524 in task    17
  Integrating Hamiltonian matrix: batch-based integration.
  GPU acceleration will be used when integrating the Hamiltonian matrix.
  Reporting GPU memory usage by myid 0.  Note that it is likely not the only MPI task binding to its GPU!
  Allocating        2.455 MB on GPU for hamiltonian_shell
  Allocating        0.860 MB on GPU for wave
  Allocating        0.002 MB on GPU for partition
  Allocating        0.860 MB on GPU for h_times_psi
  Time summed over all CPUs for integration: real work       21.969 s, elapsed       22.636 s
  Deallocating memory used on GPU for Hamiltonian integration.
  Integrating overlap matrix.
  Time summed over all CPUs for integration: real work       17.433 s, elapsed       17.620 s
  Deallocating overlap matrix.

  Updating Kohn-Sham eigenvalues and eigenvectors using ELSI and the ELPA eigensolver.
  Singularity check in k-point 1 (analysis for other k-points may follow below):
  Overlap matrix is not singular
  | Lowest and highest eigenvalues :  0.7620E-03,  0.8260E+01
  Finished singularity check of overlap matrix
  | Time :     0.092 s
  Starting ELPA eigensolver
  Finished Cholesky decomposition
  | Time :     0.014 s
  Finished transformation to standard eigenproblem
  | Time :     0.019 s
  Finished solving standard eigenproblem
  | Time :     0.186 s
  Finished back-transformation of eigenvectors
  | Time :     0.014 s

  Obtaining occupation numbers and electronic chemical potential using ELSI.
  | Note that, for insulating systems, the printed 'chemical potential' value is not uniquely defined.
  | It can be anywhere in the energy gap, as long as it correctly separates occupied and unoccupied states.
  | In systems with a gap, the physically relevant chemical potential is the VBM or HOMO.

  | Chemical potential (Fermi level):    -8.55383018 eV
  Writing Kohn-Sham eigenvalues.
  K-point:       1 at    0.000000    0.000000    0.000000 (in units of recip. lattice)

  State    Occupation    Eigenvalue [Ha]    Eigenvalue [eV]
      1       2.00000         -10.073597         -274.11653
      2       2.00000         -10.071688         -274.06458
      3       2.00000         -10.069017         -273.99189
      4       2.00000         -10.068668         -273.98240
      5       2.00000         -10.067906         -273.96167
      6       2.00000         -10.067807         -273.95896
      7       2.00000         -10.067394         -273.94774
      8       2.00000         -10.067339         -273.94624
      9       2.00000         -10.067159         -273.94133
     10       2.00000         -10.066852         -273.93297
     11       2.00000         -10.066779         -273.93100
     12       2.00000         -10.066739         -273.92991
     13       2.00000         -10.066559         -273.92501
     14       2.00000         -10.066274         -273.91726
     15       2.00000         -10.066160         -273.91415
     16       2.00000         -10.065258         -273.88962
     17       2.00000         -10.065153         -273.88674
     18       2.00000         -10.064829         -273.87793
     19       2.00000         -10.064828         -273.87792
     20       2.00000         -10.064708         -273.87464
     21       2.00000         -10.064631         -273.87254
     22       2.00000         -10.064452         -273.86767
     23       2.00000         -10.064304         -273.86364
     24       2.00000         -10.064195         -273.86067
     25       2.00000         -10.064133         -273.85900
     26       2.00000         -10.063796         -273.84983
     27       2.00000         -10.063657         -273.84604
     28       2.00000         -10.063642         -273.84564
     29       2.00000         -10.063567         -273.84358
     30       2.00000         -10.063563         -273.84349
     31       2.00000         -10.063532         -273.84265
     32       2.00000         -10.063499         -273.84175
     33       2.00000         -10.063237         -273.83462
     34       2.00000         -10.063165         -273.83265
     35       2.00000         -10.062975         -273.82748
     36       2.00000         -10.062940         -273.82652
     37       2.00000         -10.062684         -273.81956
     38       2.00000         -10.062415         -273.81226
     39       2.00000         -10.062329         -273.80992
     40       2.00000         -10.062324         -273.80977
     41       2.00000         -10.062280         -273.80858
     42       2.00000         -10.062195         -273.80627
     43       2.00000         -10.062139         -273.80473
     44       2.00000         -10.062105         -273.80380
     45       2.00000         -10.062038         -273.80199
     46       2.00000         -10.062019         -273.80146
     47       2.00000         -10.062010         -273.80122
     48       2.00000         -10.061745         -273.79402
     49       2.00000         -10.061623         -273.79069
     50       2.00000         -10.061513         -273.78770
     51       2.00000         -10.061406         -273.78479
     52       2.00000         -10.061358         -273.78348
     53       2.00000         -10.061232         -273.78005
     54       2.00000         -10.061013         -273.77408
     55       2.00000         -10.060928         -273.77178
     56       2.00000         -10.060827         -273.76904
     57       2.00000         -10.060739         -273.76664
     58       2.00000         -10.060415         -273.75783
     59       2.00000         -10.060198         -273.75192
     60       2.00000         -10.060064         -273.74828
     61       2.00000         -10.059617         -273.73612
     62       2.00000         -10.059582         -273.73516
     63       2.00000         -10.059310         -273.72774
     64       2.00000         -10.058405         -273.70314
     65       2.00000         -10.058327         -273.70099
     66       2.00000         -10.058249         -273.69889
     67       2.00000         -10.058169         -273.69671
     68       2.00000         -10.058152         -273.69624
     69       2.00000         -10.057896         -273.68926
     70       2.00000         -10.057745         -273.68516
     71       2.00000         -10.057191         -273.67008
     72       2.00000         -10.056567         -273.65312
     73       2.00000         -10.055899         -273.63493
[...]
  |    H      2     3.678162 A  1.011968E+04 A            0.556529 a.u.
  |    H      1     3.958095 A  1.721251E+06 A            0.841931 a.u.
  |    H      0     4.527807 A  3.866455E+12 A            0.581436 a.u.
  |    C      0     2.562483 A      2.562483 A        6.563029E-17 a.u.
  |    C      0     2.967371 A      2.967371 A        1.352164E-16 a.u.
  |    C      0     3.003870 A      3.003870 A        2.312640E-17 a.u.
  |    C      1     3.272245 A      3.272245 A       -3.835259E-17 a.u.
  |    C      0     3.312494 A      3.312494 A       -2.710381E-16 a.u.
  |    C      3     4.077671 A      4.077671 A       -1.683752E-15 a.u.
  |    C      3     4.077671 A      4.077671 A        1.412852E-15 a.u.
  |    C      1     4.496620 A      4.496620 A       -3.011059E-16 a.u.
  |    C      0     4.496620 A      4.551928 A        2.873903E-17 a.u.
  |    C      2     4.551928 A      4.551928 A       -4.610785E-16 a.u.
  |    C      2     4.551928 A      4.551928 A        7.440584E-16 a.u.
  |    C      2     4.551928 A      4.551928 A       -7.110458E-16 a.u.
  |    C      2     4.551928 A      4.551928 A       -1.935424E-16 a.u.
  |    C      0     4.551928 A      4.607917 A        2.067142E-16 a.u.
  |    C      0     4.551928 A      4.607917 A       -1.109786E-16 a.u.
  |    C      1     4.551928 A      4.607917 A       -9.951742E-17 a.u.
  |    C      1     4.551928 A      4.607917 A        1.937809E-16 a.u.
  |    C      1     4.607917 A      4.607917 A       -2.813308E-16 a.u.
  |    C      1     4.607917 A      4.607917 A       -7.330363E-17 a.u.
  |    C      2     4.607917 A      4.607917 A        1.318462E-15 a.u.
  |    C      2     4.607917 A      4.607917 A       -1.318397E-15 a.u.
  |    C      0     4.607917 A      4.664595 A        3.157826E-16 a.u.
  |    C      1     4.607917 A      4.664595 A        7.356967E-16 a.u.
  |    C      4     3.835889 A  2.962973E+02 A            4.379483 a.u.
  |    C      3     4.127827 A  1.725964E+03 A            9.005588 a.u.
  |    C      2     4.607917 A  2.608475E+04 A            9.531178 a.u.
  |    C      1     4.607917 A  2.736013E+06 A            2.127278 a.u.
  |    C      0     4.607917 A  4.399765E+12 A            0.661635 a.u.

  | Shrink_full_auxil_basis : there are       36  radial auxiliary wave functions
                            accepted and       7 rejected.
  | Shrink_full_auxil_basis : there are totally                8992 partial auxiliary wave functions.
 
  | Maximal number of product basis functions per thread :   512   512
 
  | Minimal total memory requirement for three-center overlap :      72.476 Gbs
  | Number of local auxiliary basis functions on task:      0   512
  | Number of local auxiliary basis functions on task:      1   512
  | Number of local auxiliary basis functions on task:      2   512
  | Number of local auxiliary basis functions on task:      3   512
  | Number of local auxiliary basis functions on task:      4   496
  | Number of local auxiliary basis functions on task:      5   496
  | Number of local auxiliary basis functions on task:      6   496
  | Number of local auxiliary basis functions on task:      7   496
  | Number of local auxiliary basis functions on task:      8   496
  | Number of local auxiliary basis functions on task:      9   496
  | Number of local auxiliary basis functions on task:     10   496
  | Number of local auxiliary basis functions on task:     11   496
  | Number of local auxiliary basis functions on task:     12   496
  | Number of local auxiliary basis functions on task:     13   496
  | Number of local auxiliary basis functions on task:     14   496
  | Number of local auxiliary basis functions on task:     15   496
  | Number of local auxiliary basis functions on task:     16   496
  | Number of local auxiliary basis functions on task:     17   496
  | 2D aux task distribution:      3 X      6
  | 2D block size (nb_aux_2d):     64
 
  Basis pair condensation :   1037520  -->     552584
 
 --------------------------------------------
  Constructing auxiliary basis (full product) ...
 
  Product basis:
  | charge radius: extent of product basis function
  | field radius: extent of its Coulomb potential
  | Species   l  charge radius    field radius  multipol momen
  |    H      1     3.910002 A      3.910002 A       -2.487223E-16 a.u.
  |    H      1     3.958095 A      3.958095 A       -2.441841E-16 a.u.
  |    H      0     4.527807 A      4.527807 A        1.268855E-16 a.u.
  |    H      0     4.527807 A      4.583499 A       -4.900954E-17 a.u.
  |    H      0     4.527807 A      4.583499 A        4.713786E-16 a.u.
  |    H      2     3.678162 A  1.011968E+04 A            0.556529 a.u.
  |    H      1     3.958095 A  1.721251E+06 A            0.841931 a.u.
  |    H      0     4.527807 A  3.866455E+12 A            0.581436 a.u.
  |    C      0     2.562483 A      2.562483 A        6.563029E-17 a.u.
  |    C      0     2.967371 A      2.967371 A        1.352164E-16 a.u.
  |    C      0     3.003870 A      3.003870 A        2.312640E-17 a.u.
  |    C      1     3.272245 A      3.272245 A       -3.835259E-17 a.u.
  |    C      0     3.312494 A      3.312494 A       -2.710381E-16 a.u.
  |    C      3     4.077671 A      4.077671 A       -1.683752E-15 a.u.
  |    C      3     4.077671 A      4.077671 A        1.412852E-15 a.u.
  |    C      1     4.496620 A      4.496620 A       -3.011059E-16 a.u.
  |    C      0     4.496620 A      4.551928 A        2.873903E-17 a.u.
  |    C      2     4.551928 A      4.551928 A       -4.610785E-16 a.u.
  |    C      2     4.551928 A      4.551928 A        7.440584E-16 a.u.
  |    C      2     4.551928 A      4.551928 A       -7.110458E-16 a.u.
  |    C      2     4.551928 A      4.551928 A       -1.935424E-16 a.u.
  |    C      0     4.551928 A      4.607917 A        2.067142E-16 a.u.
  |    C      0     4.551928 A      4.607917 A       -1.109786E-16 a.u.
  |    C      1     4.551928 A      4.607917 A       -9.951742E-17 a.u.
  |    C      1     4.551928 A      4.607917 A        1.937809E-16 a.u.
  |    C      1     4.607917 A      4.607917 A       -2.813308E-16 a.u.
  |    C      1     4.607917 A      4.607917 A       -7.330363E-17 a.u.
  |    C      2     4.607917 A      4.607917 A        1.318462E-15 a.u.
  |    C      2     4.607917 A      4.607917 A       -1.318397E-15 a.u.
  |    C      0     4.607917 A      4.664595 A        3.157826E-16 a.u.
  |    C      1     4.607917 A      4.664595 A        7.356967E-16 a.u.
  |    C      4     3.835889 A  2.962973E+02 A            4.379483 a.u.
  |    C      3     4.127827 A  1.725964E+03 A            9.005588 a.u.
  |    C      2     4.607917 A  2.608475E+04 A            9.531178 a.u.
  |    C      1     4.607917 A  2.736013E+06 A            2.127278 a.u.
  |    C      0     4.607917 A  4.399765E+12 A            0.661635 a.u.

  | Shrink_full_auxil_basis : there are       36  radial auxiliary wave functions
                            accepted and       7 rejected.
  | Shrink_full_auxil_basis : there are totally                8992 partial auxiliary wave functions.
 
  | Maximal number of product basis functions per thread :   512   512
 
  | Minimal total memory requirement for three-center overlap :      72.476 Gbs
  | Number of local auxiliary basis functions on task:      0   512
  | Number of local auxiliary basis functions on task:      1   512
  | Number of local auxiliary basis functions on task:      2   512
  | Number of local auxiliary basis functions on task:      3   512
  | Number of local auxiliary basis functions on task:      4   496
  | Number of local auxiliary basis functions on task:      5   496
  | Number of local auxiliary basis functions on task:      6   496
  | Number of local auxiliary basis functions on task:      7   496
  | Number of local auxiliary basis functions on task:      8   496
  | Number of local auxiliary basis functions on task:      9   496
  | Number of local auxiliary basis functions on task:     10   496
  | Number of local auxiliary basis functions on task:     11   496
  | Number of local auxiliary basis functions on task:     12   496
  | Number of local auxiliary basis functions on task:     13   496
  | Number of local auxiliary basis functions on task:     14   496
  | Number of local auxiliary basis functions on task:     15   496
  | Number of local auxiliary basis functions on task:     16   496
  | Number of local auxiliary basis functions on task:     17   496
  | 2D aux task distribution:      3 X      6
  | 2D block size (nb_aux_2d):     64
 
  Basis pair condensation :   1037520  -->     552584
  Allocating        0.069 MB for t_coeff
  Allocating        0.034 MB for basbas_idx
  Allocating        0.069 MB for wave
  Allocating        0.069 MB for total_wave
  Allocating        0.206 MB for wave_gradient
  Allocating        0.206 MB for total_wave_grad
 HERE1
 HERE2
  Deallocating        0.069 MB for t_coeff
  Deallocating        0.034 MB for basbas_idx
  Deallocating        0.069 MB for wave
  Deallocating        0.206 MB for wave_gradient
  Deallocating        0.206 MB for total_wave_grad
dP_dE (Bohr^3) at every cycle:--->
 (1005.58130401962,0.000000000000000E+000) (-9.15341605948105,0.000000000000000E+000) (-458.135528613667,0.000000000000000E+000)
 (-9.20544060990429,0.000000000000000E+000) (1343.24372610706,0.000000000000000E+000) (-0.961067609733184,0.000000000000000E+000)
 (-458.357803216878,0.000000000000000E+000) (-0.955139890493475,0.000000000000000E+000) (1724.00383812314,0.000000000000000E+000)
DFPT polarizability (Bohr^3)        xx        yy        zz        xy        xz        yz
  | Polarizability:--->                      1005.581304020                 1343.243726107                 1724.003838123                   -9.153416059                 -458.135528614                   -0.961067610

DFPT for dielectric_constant:--->  # PARSE DFPT_dielectric_tensor
               2.364552380069381            -0.012420990346382            -0.621680140099269
              -0.012491586551600             2.822753084356166            -0.001304148246419
              -0.621981761994613            -0.001296104457852             3.339436434583695

                                               :  max(cpu_time)    wall_clock(cpu1)
  | Time for  dielectric calculation            :        0.000 s           0.000 s
===========================================================================

------------------------------------------------------------------------------
  Final output of selected total energy values:

  The following output summarizes some interesting total energy values
  at the end of a run (AFTER all relaxation, molecular dynamics, etc.).

  | Total energy of the DFT / Hartree-Fock s.c.f. calculation      :         -83267.511936489 eV
  | Final zero-broadening corrected energy (caution - metals only) :         -83267.511936489 eV
  | For reference only, the value of 1 Hartree used in FHI-aims is :             27.211384500 eV
  | For reference only, the overall average (free atom contribution
  | + realspace contribution) of the electrostatic potential after
  | s.c.f. convergence is                                          :             -7.704358236 eV

  Before relying on these values, please be sure to understand exactly which
  total energy value is referred to by a given number. Different objects may
  all carry the same name 'total energy'. Definitions:

  Total energy of the DFT / Hartree-Fock s.c.f. calculation:
  | Note that this energy does not include ANY quantities calculated after the
  | s.c.f. cycle, in particular not ANY RPA, MP2, etc. many-body perturbation terms.

  Final zero-broadening corrected energy:
  | For metallic systems only, a broadening of the occupation numbers at the Fermi
  | level can be extrapolated back to zero broadening by an electron-gas inspired
  | formula. For all systems that are not real metals, this value can be
  | meaningless and should be avoided.

------------------------------------------------------------------------------
  Methods described in the following list of references were used in this FHI-aims run.
  If you publish the results, please make sure to cite these reference if they apply.
  FHI-aims is an academic code, and for our developers (often, Ph.D. students
  and postdocs), scientific credit in the community is essential.
  Thank you for helping us!

  For any use of FHI-aims, please cite:

    Volker Blum, Ralf Gehrke, Felix Hanke, Paula Havu, Ville Havu,
    Xinguo Ren, Karsten Reuter, and Matthias Scheffler
    'Ab initio molecular simulations with numeric atom-centered orbitals'
    Computer Physics Communications 180, 2175-2196 (2009)
    http://doi.org/10.1016/j.cpc.2009.06.022


  For Hartree-Fock, hybrid functionals, or many-body perturbation theory used in your run, please cite:

    Xinguo Ren, Patrick Rinke, Volker Blum, Juergen Wieferink, Alex Tkatchenko,
    Andrea Sanfilippo, Karsten Reuter, and Matthias Scheffler,
    'Resolution-of-identity approach to Hartree-Fock, hybrid density functionals,
    RPA, MP2, and GW with numeric atom-centered orbital basis functions'
    New Journal of Physics 14, 053020 (2012).
    http://doi.org/10.1088/1367-2630/14/5/053020


  The provided symmetry information was generated with SPGlib:

    Atsushi Togo, Yusuke Seto, Dimitar Pashov
    SPGlib 1.7.3 obtained from http://spglib.sourceforge.net
    Copyright (C) 2008 Atsushi Togo


  The DFPT (perturbation by an electric field) part of the code was used.
  Here is the corresponding reference:

    Honghui Shang, Nathaniel Raimbault, Mariana Rossi,
    Christian Carbogno, Patrick Rinke and Matthias Scheffler,
    'All-Electron, Real-Space Perturbation Theory for Homogeneous
    Electric Fields: Theory, Implementation, and Application within dft'
    New Journal of Physics, 20(7):073040, 2018


  The ELSI infrastructure was used in your run to solve the Kohn-Sham electronic structure.
  Please check out http://elsi-interchange.org to learn more.
  If scalability is important for your project, please acknowledge ELSI by citing:

    V. W-z. Yu, F. Corsetti, A. Garcia, W. P. Huhn, M. Jacquelin, W. Jia,
    B. Lange, L. Lin, J. Lu, W. Mi, A. Seifitokaldani, A. Vazquez-Mayagoitia,
    C. Yang, H. Yang, and V. Blum
    'ELSI: A unified software interface for Kohn-Sham electronic structure solvers'
    Computer Physics Communications 222, 267-285 (2018).
    http://doi.org/10.1016/j.cpc.2017.09.007


  For the real-space grid partitioning and parallelization used in this calculation, please cite:

    Ville Havu, Volker Blum, Paula Havu, and Matthias Scheffler,
    'Efficient O(N) integration for all-electron electronic structure calculation'
    'using numerically tabulated basis functions'
    Journal of Computational Physics 228, 8367-8379 (2009).
    http://doi.org/10.1016/j.jcp.2009.08.008


  The high-level electronic structure method used in your calculation
  employed our efficient localized resolution of identity for the Coulomb operator.
  Some calculations, especially large-scale hybrid density functional theory,
  are only possible thanks to this development. For this feature, please cite:

    Arvid Ihrig, Juergen Wieferink, Igor Ying Zhang, Matti Ropo, Xinguo Ren,
    Patrick Rinke, Matthias Scheffler, and Volker Blum,
    'Accurate localized resolution of identity approach for linear-scaling
    hybrid density functionals and for many-body perturbation theory'
    New Journal of Physics 117, 093020 (2015).
    http://doi.org/10.1088/1367-2630/17/9/093020

  Of course, there are many other important community references, e.g., those cited in the
  above references. Our list is limited to references that describe implementations in the
  FHI-aims code. The reason is purely practical (length of this list) - please credit others as well.

------------------------------------------------------------
          Leaving FHI-aims.
          Date     :  20230119, Time     :  185250.857

          Computational steps:
          | Number of self-consistency cycles          :           46
          | Number of SCF (re)initializations          :            1
          | Number of coupled perturbed self-consistency cycles          :            0
          | Number of CPSCF (re)initializations          :            0

          Detailed time accounting                     :  max(cpu_time)    wall_clock(cpu1)
          | Total time                                  :     1572.493 s        1588.102 s
          | GPU initialization                          :        2.330 s          16.074 s
          | Preparation time                            :        0.077 s           0.069 s
          | Boundary condition initalization            :        0.977 s           0.978 s
          | Grid partitioning                           :        1.345 s           1.346 s
          | Preloading free-atom quantities on grid     :        4.537 s           4.538 s
          | Free-atom superposition energy              :        0.448 s           0.448 s
          | Total time for integrations                 :       18.867 s          19.648 s
          | Product basis setup: Total time             :        0.000 s           0.000 s
          | Product basis: | 2-center integrations     :(       0.000 s)  (       0.000 s)
          | Product basis: | LVL 3-center & coefficient:(       0.000 s)  (       0.000 s)
          | Total time for solution of K.-S. equations  :        3.684 s           3.689 s
          | Total time for density update               :       13.177 s          13.652 s
          | Total time for mixing & preconditioning     :       12.240 s          12.244 s
          | Total time for Hartree multipole update     :        0.104 s           0.105 s
          | Total time for Hartree multipole sum        :       43.970 s          43.984 s
          | Total time for total energy evaluation      :        0.007 s           0.001 s
          | Total time first_order_DM                   :        1.889 s           1.887 s
          | Total time first_order_density              :      309.301 s         309.376 s
          | Total time first_order_potential            :      117.926 s         117.958 s
          | Total time first_order_H                    :      592.302 s         592.473 s
          | Total time solving of Sternheimer equations :        1.890 s           1.895 s
          | Total time for dielectric constant          :        0.000 s           0.000 s
          | Total time momentum matrix                  :        0.000 s           0.000 s

          GPU acceleration has been used for charge density update.
          GPU acceleration has been used for real-space Hamiltonian integration.
          Due to GPU usage, wall_clock(cpu1) will give a more reliable estimate for timings.

          Partial memory accounting:
          | Residual value for overall tracked memory usage across tasks:     1.234863 MB (should be 0.000000 MB)
          |
          | Largest tracked array allocation:
          |   Minimum:      103.084 MB (DFPT_pulay_mixing::initialize_pulay_mixing::X_in_diffs on task  0)
          |   Maximum:      103.084 MB (DFPT_pulay_mixing::initialize_pulay_mixing::X_in_diffs on task  0)
          |   Average:      103.084 MB
          |
          | Because the residual tracked memory usage was not zero, the peak value for overall
          | tracked memory usage was not output, as it is probably incorrect.  This is likely due
          | to a missing aims_deallocate statement in the source code, which should be otherwise
          | harmless.
          |
          Note:  These values currently only include a subset of arrays which are explicitly tracked.
          The "true" memory usage will be greater.

          Have a nice day.
------------------------------------------------------------
