------------------------------------------------------------
          Invoking FHI-aims ...

          When using FHI-aims, please cite the following reference:

            Volker Blum, Ralf Gehrke, Felix Hanke, Paula Havu,
            Ville Havu, Xinguo Ren, Karsten Reuter, and Matthias Scheffler,
            'Ab Initio Molecular Simulations with Numeric Atom-Centered Orbitals',
            Computer Physics Communications 180, 2175-2196 (2009)

          In addition, many other developments in FHI-aims are likely important for
          your particular application. A partial list of references is given at the end of
          this file. Thank you for giving credit to the authors of these developments.

          For any questions about FHI-aims, please visit our slack channel at

            https://fhi-aims.slack.com

          and our main development and support site at

            https://aims-git.rz-berlin.mpg.de .

          The latter site, in particular, has a wiki to collect information, as well
          as an issue tracker to log discussions, suggest improvements, and report issues
          or bugs. https://aims-git.rz-berlin.mpg.de is also the main development site
          of the project and all new and updated code versions can be obtained there.
          Please send an email to aims-coordinators@fhi-berlin.mpg.de and we will add
          you to these sites. They are for you and everyone is welcome there.

------------------------------------------------------------



  Date     :  20230119, Time     :  191550.809
  Time zero on CPU 1             :   0.395633000000000E+00  s.
  Internal wall clock time zero  :           443387750.809  s.

  FHI-aims created a unique identifier for this run for later identification
  aims_uuid : F61341CA-BE32-4613-AE43-1FC384054EEC

  Build configuration of the current instance of FHI-aims
  -------------------------------------------------------
  FHI-aims version      : 220829
  Commit number         : 9895fc21d
  CMake host system     : Linux-5.3.18-150300.59.68-default
  CMake version         : 3.17.0
  Fortran compiler      : /mpcdf/soft/SLE_15/packages/x86_64/intel_oneapi/2021.3/mpi/2021.3.0/bin/mpiifort (Intel) version 20.2.3.20210609
  Fortran compiler flags: -O3 -ip -fp-model precise
  C compiler            : /mpcdf/soft/SLE_15/packages/x86_64/intel/2021.3.0/bin/icc (Intel) version 20.2.3.20210609
  C compiler flags      : -O3 -ip -fp-model precise -std=gnu99
  CUDA compiler         : /mpcdf/soft/SLE_15/packages/x86_64/cuda/11.6.2/bin/nvcc
  CUDA compiler flags   : -O3 -DAdd_ -lcublas
  ELPA2 kernel          : AVX512
  Using MPI
  Using ScaLAPACK
  Using LibXC
  Using CUDA
  Using i-PI
  Using RLSY
  Linking against: /mpcdf/soft/SLE_15/packages/x86_64/cuda/11.6.2/lib64/libcublas.so
                   /mpcdf/soft/SLE_15/packages/x86_64/cuda/11.6.2/lib64/libcudart.so
                   /mpcdf/soft/SLE_15/packages/x86_64/intel_oneapi/2021.3/mkl/latest/lib/intel64/libmkl_intel_lp64.so
                   /mpcdf/soft/SLE_15/packages/x86_64/intel_oneapi/2021.3/mkl/latest/lib/intel64/libmkl_sequential.so
                   /mpcdf/soft/SLE_15/packages/x86_64/intel_oneapi/2021.3/mkl/latest/lib/intel64/libmkl_core.so
                   /mpcdf/soft/SLE_15/packages/x86_64/intel_oneapi/2021.3/mkl/latest/lib/intel64/libmkl_blacs_intelmpi_lp64.so
                   /mpcdf/soft/SLE_15/packages/x86_64/intel_oneapi/2021.3/mkl/latest/lib/intel64/libmkl_scalapack_lp64.so

  Using       18 parallel tasks.
  Task        0 on host adag003 reporting.
  Task        1 on host adag003 reporting.
  Task        2 on host adag003 reporting.
  Task        3 on host adag003 reporting.
  Task        4 on host adag003 reporting.
  Task        5 on host adag003 reporting.
  Task        6 on host adag003 reporting.
  Task        7 on host adag003 reporting.
  Task        8 on host adag003 reporting.
  Task        9 on host adag003 reporting.
  Task       10 on host adag003 reporting.
  Task       11 on host adag003 reporting.
  Task       12 on host adag003 reporting.
  Task       13 on host adag003 reporting.
  Task       14 on host adag003 reporting.
  Task       15 on host adag003 reporting.
  Task       16 on host adag003 reporting.
  Task       17 on host adag003 reporting.

  Performing system and environment tests:
  | Environment variable OMP_NUM_THREADS correctly set to 1.
  | Checking for ScaLAPACK...
  | Testing pdtran()...
  | All pdtran() tests passed.

  Obtaining array dimensions for all initial allocations:
  
  -----------------------------------------------------------------------
  Parsing control.in (first pass over file, find array dimensions only).
  The contents of control.in will be repeated verbatim below
  unless switched off by setting 'verbatim_writeout .false.' .
  in the first line of control.in .
  -----------------------------------------------------------------------
  
  #
  # Input for polarizability replays on generic oligoacene molecular crystals (light settings,  LDA+MBD).
  #
  #########################################################################################
  #
  #  Physical model
  #
    xc                 pw-lda
    spin               none
    relativistic       none
    charge             0.0
    k_grid 	     2 1 1
    DFPT dielectric
  #
  #  GPU acceleration
  #
  # Turns on GPU acceleration everywhere
    use_gpu
  
  # Turns OFF GPU acceleration of ELPA - may be necessary if GPU ELPA is slow
    elsi_elpa_gpu 0
  #
  #  Relaxation
  #
  #  relax_geometry trm 1E-3
  #  relax_unit_cell fixed_angles
  #
  #  SCF convergence        #
    charge_mix_param   0.75
    #sc_accuracy_rho 1E-4
  #
  # i-PI communication
  #
  compute_forces .false.
  # use_pimd_wrapper 130.183.223.27 26118
  #communicate_pimd_wrapper polarizability
  #output_level MD_light
  #
  # Output SALTED info
    ri_density_restart write
    ri_rho1 write
    ri_full_output .true.
  #  sc_accuracy_rho    1d-6
    default_prodbas_acc 1e-6
    default_max_l_prodbas 6
  #
  #
  ################################################################################
  #
  #  FHI-aims code project
  #  VB, Fritz-Haber Institut, 2009
  #
  #  Suggested "light" defaults for H atom (to be pasted into control.in file)
  #  Be sure to double-check any results obtained with these settings for post-processing,
  #  e.g., with the "tight" defaults and larger basis sets.
  #
  ################################################################################
    species        H
  #     global species definitions
      nucleus             1
      mass                1.00794
  #
      l_hartree           4
  #
      cut_pot             3.5  1.5  1.0
      basis_dep_cutoff    1e-4
  #
      radial_base         24 5.0
      radial_multiplier   1
      angular_grids       specified
        division   0.2421   50
        division   0.3822  110
        division   0.4799  194
        division   0.5341  302
  #      division   0.5626  434
  #      division   0.5922  590
  #      division   0.6542  770
  #      division   0.6868 1202
  #      outer_grid  770
        outer_grid  302
  ################################################################################
  #
  #  Definition of "minimal" basis
  #
  ################################################################################
  #     valence basis states
      valence      1  s   1.
  #     ion occupancy
      ion_occ      1  s   0.5
  ################################################################################
  #
  #  Suggested additional basis functions. For production calculations,
  #  uncomment them one after another (the most important basis functions are
  #  listed first).
  #
  #  Basis constructed for dimers: 0.5 A, 0.7 A, 1.0 A, 1.5 A, 2.5 A
  #
  ################################################################################
  #  "First tier" - improvements: -1014.90 meV to -62.69 meV
       hydro 2 s 2.1
       hydro 2 p 3.5
  #  "Second tier" - improvements: -12.89 meV to -1.83 meV
  #     hydro 1 s 0.85
  #     hydro 2 p 3.7
  #     hydro 2 s 1.2
  #     hydro 3 d 7
  #  "Third tier" - improvements: -0.25 meV to -0.12 meV
  #     hydro 4 f 11.2
  #     hydro 3 p 4.8
  #     hydro 4 d 9
  #     hydro 3 s 3.2
  ################################################################################
  ################################################################################
  #
  #  FHI-aims code project
  #  VB, Fritz-Haber Institut, 2009
  #
  #  Suggested "light" defaults for C atom (to be pasted into control.in file)
  #  Be sure to double-check any results obtained with these settings for post-processing,
  #  e.g., with the "tight" defaults and larger basis sets.
  #
  ################################################################################
    species        C
  #     global species definitions
      nucleus             6
      mass                12.0107
  #
      l_hartree           4
  #
      cut_pot             3.5  1.5  1.0
      basis_dep_cutoff    1e-4
  #
      radial_base         34 5.0
      radial_multiplier   1
      angular_grids specified
        division   0.3326   50
        division   0.5710  110
        division   0.7727  194
        division   0.8772  302
  #      division   0.9334  434
  #      division   0.9625  590
  #      division   0.9924  770
  #      division   1.0230  974
  #      division   1.4589 1202
  #     outer_grid  974
       outer_grid 302
  ################################################################################
  #
  #  Definition of "minimal" basis
  #
  ################################################################################
  #     valence basis states
      valence      2  s   2.
      valence      2  p   2.
  #     ion occupancy
      ion_occ      2  s   1.
      ion_occ      2  p   1.
  ################################################################################
  #
  #  Suggested additional basis functions. For production calculations,
  #  uncomment them one after another (the most important basis functions are
  #  listed first).
  #
  #  Constructed for dimers: 1.0 A, 1.25 A, 1.5 A, 2.0 A, 3.0 A
  #
  ################################################################################
  #  "First tier" - improvements: -1214.57 meV to -155.61 meV
       hydro 2 p 1.7
       hydro 3 d 6
       hydro 2 s 4.9
  #  "Second tier" - improvements: -67.75 meV to -5.23 meV
  #     hydro 4 f 9.8
  #     hydro 3 p 5.2
  #     hydro 3 s 4.3
  #     hydro 5 g 14.4
  #     hydro 3 d 6.2
  #  "Third tier" - improvements: -2.43 meV to -0.60 meV
  #     hydro 2 p 5.6
  #     hydro 2 s 1.4
  #     hydro 3 d 4.9
  #     hydro 4 f 11.2
  #  "Fourth tier" - improvements: -0.39 meV to -0.18 meV
  #     hydro 2 p 2.1
  #     hydro 5 g 16.4
  #     hydro 4 d 13.2
  #     hydro 3 s 13.6
  #     hydro 4 f 17.6
  #  Further basis functions - improvements: -0.08 meV and below
  #     hydro 3 s 2
  #     hydro 3 p 6
  #     hydro 4 d 20
  
  -----------------------------------------------------------------------
  Completed first pass over input file control.in .
  -----------------------------------------------------------------------
  
  
  -----------------------------------------------------------------------
  Parsing geometry.in (first pass over file, find array dimensions only).
  The contents of geometry.in will be repeated verbatim below
  unless switched off by setting 'verbatim_writeout .false.' .
  in the first line of geometry.in .
  -----------------------------------------------------------------------
  
  #=======================================================
  # FHI-aims file: /ada/ptmp/mpsd/alewis/naphthalene/qmdata/data/geoms/91.in
  # Created using the Atomic Simulation Environment (ASE)
  # Thu Jan 19 15:19:16 2023
  #=======================================================
  lattice_vector 8.1020000000000003 0.0000000000000000 0.0000000000000000
  lattice_vector 0.0000000000000000 11.8800000000000008 0.0000000000000000
  lattice_vector -9.7850918486534706 0.0000000000000000 14.2571119625755713
  atom -0.8956630000000000 0.0769081000000000 2.3592300000000002 C
  atom 0.2408570000000000 3.2029200000000002 4.8720999999999997 C
  atom 4.2538499999999999 5.7644000000000002 4.7491800000000000 C
  atom 3.2363900000000001 2.9772900000000000 2.3631000000000002 C
  atom -0.1176670000000000 0.9470110000000000 1.6217400000000000 C
  atom -0.5658270000000000 4.0228299999999999 5.6593999999999998 C
  atom 3.5241799999999999 4.9314000000000000 5.5663700000000000 C
  atom 3.8851599999999999 2.0362700000000000 1.6116600000000001 C
  atom 0.3000310000000000 0.5935980000000000 0.2997200000000000 C
  atom -0.9314960000000000 3.6053299999999999 6.9890200000000000 C
  atom 3.1395900000000001 5.3026299999999997 6.9164300000000001 C
  atom 4.3313699999999997 2.3288799999999998 0.2970910000000000 C
  atom -3.7361700000000000 1.5672400000000000 6.7999799999999997 C
  atom 3.2504700000000000 4.5117099999999999 0.5318150000000000 C
  atom 7.1382599999999998 4.3401899999999998 0.6060730000000000 C
  atom 0.3287240000000000 1.5177200000000000 6.6273000000000000 C
  atom -3.3553899999999999 1.3443799999999999 5.4912599999999996 C
  atom 2.9066100000000001 4.2145500000000000 1.8303000000000000 C
  atom 6.7129500000000002 4.6749200000000002 1.8797100000000000 C
  atom 0.7036530000000000 1.9365600000000001 5.3624499999999999 C
  atom -1.1408799999999999 0.4083420000000000 3.3374899999999998 H
  atom 0.5923880000000000 3.5989399999999998 3.9193300000000000 H
  atom 4.4439099999999998 5.4198300000000001 3.7306599999999999 H
  atom 2.9445299999999999 2.7050800000000002 3.3748100000000001 H
  atom 0.2323840000000000 1.8728499999999999 2.1012499999999998 H
  atom -0.9394740000000000 4.9464800000000002 5.2477799999999997 H
  atom 3.2565100000000000 3.8823200000000000 5.2664000000000000 H
  atom 4.2055800000000003 1.0941000000000001 2.0949100000000000 H
  atom -3.5157400000000001 2.5291199999999998 7.2876000000000003 H
  atom 3.0007400000000000 5.4850599999999998 0.1061690000000000 H
  atom 6.9397300000000000 3.3227699999999998 0.1972490000000000 H
  atom 0.5926690000000000 0.5478910000000000 7.0471100000000000 H
  atom -2.7691800000000000 2.0804100000000001 4.9586100000000002 H
  atom 2.3499800000000000 4.9409000000000001 2.3860700000000001 H
  atom 6.1652699999999996 3.9403800000000002 2.4738600000000002 H
  atom 1.2752200000000000 1.3152100000000000 4.6706700000000003 H
  atom -5.7416900000000002 -0.0617558000000000 9.5030000000000001 C
  atom -4.6508000000000003 2.9766400000000002 11.9535999999999998 C
  atom -0.7195510000000001 5.9188099999999997 12.0404999999999998 C
  atom -1.5178700000000001 2.8279600000000000 9.6454100000000000 C
  atom -4.9898199999999999 0.8547430000000000 8.8165499999999994 C
  atom -5.4122800000000000 3.8599000000000001 12.6730000000000000 C
  atom -1.5283199999999999 5.0210999999999997 12.7417999999999996 C
  atom -0.7597490000000000 2.0057000000000000 8.8441100000000006 C
  atom -4.5424899999999999 0.6246080000000001 7.4899899999999997 C
  atom -5.8125099999999996 3.5777100000000002 13.9844000000000008 C
  atom -1.8991100000000001 5.2537599999999998 14.0969999999999995 C
  atom -0.4500780000000000 2.3600500000000002 7.4965599999999997 C
  atom -8.6944599999999994 1.4187200000000000 13.7409999999999997 C
  atom -1.7545500000000001 4.4004099999999999 7.8313400000000000 C
  atom 2.3716400000000002 4.4787100000000004 7.7838700000000003 C
  atom -4.6992599999999998 1.4314600000000000 13.7888000000000002 C
  atom -8.3211999999999993 1.0120499999999999 12.4474999999999998 C
  atom -2.0114500000000000 4.0377799999999997 9.1228599999999993 C
  atom 2.0159699999999998 4.9163500000000004 9.0351700000000008 C
  atom -4.3180899999999998 1.7070900000000000 12.5142000000000007 C
  atom -6.1101200000000002 0.1560270000000000 10.5083000000000002 H
  atom -4.2879399999999999 3.2317200000000001 10.9345999999999997 H
  atom -0.4174160000000000 5.6728199999999998 11.0091000000000001 H
  atom -1.7614000000000001 2.5041099999999998 10.6450999999999993 H
  atom -4.6980100000000000 1.8080000000000001 9.2841400000000007 H
  atom -5.7133799999999999 4.8336699999999997 12.2379999999999995 H
  atom -1.8796200000000001 4.0796999999999999 12.3164999999999996 H
  atom -0.3766800000000000 1.0692100000000000 9.2544599999999999 H
  atom -8.3077199999999998 2.3523000000000001 14.0955999999999992 H
  atom -2.1566399999999999 5.3422299999999998 7.4492700000000003 H
  atom 2.0082000000000000 3.4900300000000000 7.4430199999999997 H
  atom -4.4049500000000004 0.4978900000000000 14.2395999999999994 H
  atom -7.6668300000000000 1.6449000000000000 11.8841999999999999 H
  atom -2.6539400000000000 4.7236300000000000 9.7343200000000003 H
  atom 1.3967600000000000 4.2919900000000002 9.6511800000000001 H
  atom -3.6648600000000000 0.9766010000000001 12.0383999999999993 H
  atom -1.0324700000000000 5.9322200000000000 2.4613900000000002 C
  atom 0.2430030000000000 8.9919700000000002 4.8148499999999999 C
  atom 4.2864500000000003 12.0587999999999997 4.8078700000000003 C
  atom 3.3016700000000001 8.9630600000000005 2.4505699999999999 C
  atom -0.3015770000000000 6.8493700000000004 1.7064299999999999 C
  atom -0.5681890000000001 9.8468900000000001 5.5455500000000004 C
  atom 3.5452599999999999 11.1016999999999992 5.4599200000000003 C
  atom 3.9728400000000001 8.0312999999999999 1.7097400000000000 C
  atom 0.1351400000000000 6.5386499999999996 0.3661630000000000 C
  atom -0.9602090000000000 9.5273199999999996 6.8735900000000001 C
  atom 3.1493199999999999 11.2849000000000004 6.8245500000000003 C
  atom 4.2965000000000000 8.3202099999999994 0.3592850000000000 C
  atom -3.8292099999999998 7.4671599999999998 6.5077600000000002 C
  atom 3.2111399999999999 10.5191999999999997 0.5914960000000000 C
  atom 7.1482500000000000 10.3457000000000008 0.5921950000000000 C
  atom 0.3196030000000000 7.4232300000000002 6.6984700000000004 C
  atom -3.4815600000000000 7.0391000000000004 5.2445599999999999 C
  atom 2.9080699999999999 10.2146000000000008 1.8744600000000000 C
  atom 6.7556300000000000 10.7187999999999999 1.8727400000000001 C
  atom 0.7095590000000001 7.7898399999999999 5.4224699999999997 C
  atom -1.2836300000000000 6.2039400000000002 3.4736400000000001 H
  atom 0.6188900000000001 9.2932799999999993 3.8311700000000002 H
  atom 4.4645200000000003 11.8887000000000000 3.7460599999999999 H
  atom 3.0088599999999999 8.7744400000000002 3.4537000000000000 H
  atom 0.0462497000000000 7.8127899999999997 2.0934300000000001 H
  atom -0.8835660000000000 10.7979000000000003 5.1542100000000000 H
  atom 3.1723800000000000 10.2081000000000000 4.9470000000000001 H
  atom 4.3010500000000000 7.0555399999999997 2.1153100000000000 H
  atom -3.5711200000000001 8.4640900000000006 6.8801399999999999 H
  atom 2.8871099999999998 11.4839000000000002 0.1330330000000000 H
  atom 6.8465299999999996 9.3873400000000000 0.1735560000000000 H
  atom 0.6143740000000000 6.4360400000000002 7.1113099999999996 H
  atom -2.9876700000000000 7.7501300000000004 4.5469900000000001 H
  atom 2.3523600000000000 10.9315999999999995 2.5014599999999998 H
  atom 6.0905399999999998 10.0542999999999996 2.4013800000000001 H
  atom 1.4145500000000000 7.1601200000000000 4.9112700000000000 H
  atom -5.6944499999999998 6.1439500000000002 9.4817900000000002 C
  atom -4.7933700000000004 8.9084199999999996 11.9329999999999998 C
  atom -0.6283310000000000 11.6138999999999992 11.9525000000000006 C
  atom -1.7484200000000001 8.7794600000000003 9.4765899999999998 C
  atom -4.8956299999999997 6.9760000000000000 8.7030999999999992 C
  atom -5.4883499999999996 9.8344299999999993 12.6940000000000008 C
  atom -1.4018600000000001 10.8107000000000006 12.7512000000000008 C
  atom -0.9112310000000000 7.9452400000000001 8.7744099999999996 C
  atom -4.5658799999999999 6.6158999999999999 7.3997599999999997 C
  atom -5.8466300000000002 9.5845199999999995 14.0158000000000005 C
  atom -1.8257000000000001 11.1929999999999996 14.0429999999999993 C
  atom -0.4991900000000000 8.2786600000000004 7.4698500000000001 C
  atom -8.8452900000000003 7.4590899999999998 13.8849999999999998 C
  atom -1.7212600000000000 10.4194999999999993 7.6734099999999996 C
  atom 2.3774999999999999 10.3681999999999999 7.5209500000000000 C
  atom -4.7734600000000000 7.3839600000000001 13.8389000000000006 C
  atom -8.4268500000000000 7.1570200000000002 12.6000999999999994 C
  atom -2.0992000000000002 10.0396000000000001 8.9621700000000004 C
  atom 1.9769099999999999 10.6119000000000003 8.8329299999999993 C
  atom -4.4340799999999998 7.6483100000000004 12.5200999999999993 C
  atom -5.9934700000000003 6.5012800000000004 10.4875000000000007 H
  atom -4.5041599999999997 9.1806000000000001 10.8987999999999996 H
  atom -0.2501170000000000 11.2277000000000005 10.9994999999999994 H
  atom -2.1236899999999999 8.4745299999999997 10.4928000000000008 H
  atom -4.5205000000000002 7.9295299999999997 9.0736000000000008 H
  atom -5.7314999999999996 10.7919999999999998 12.2698000000000000 H
  atom -1.7176400000000001 9.8697700000000008 12.3632000000000009 H
  atom -0.6470070000000000 6.9462900000000003 9.1676699999999993 H
  atom -8.5406800000000000 8.3552999999999997 14.4429999999999996 H
  atom -2.0371400000000000 11.3867999999999991 7.2269699999999997 H
  atom 2.1030600000000002 9.4156999999999993 7.0640799999999997 H
  atom -4.4259599999999999 6.4655500000000004 14.3498999999999999 H
  atom -7.7525199999999996 7.7889499999999998 12.0243000000000002 H
  atom -2.7524500000000001 10.6824999999999992 9.5592299999999994 H
  atom 1.3869700000000000 9.8982100000000006 9.4248999999999992 H
  atom -3.8047399999999998 6.9092700000000002 11.9969999999999999 H
  
  -----------------------------------------------------------------------
  Completed first pass over input file geometry.in .
  -----------------------------------------------------------------------
  

  Basic array size parameters:
  | Number of species                 :        2
  | Number of atoms                   :      144
  | Number of lattice vectors         :        3
  | Max. basis fn. angular momentum   :        2
  | Max. atomic/ionic basis occupied n:        2
  | Max. number of basis fn. types    :        2
  | Max. radial fns per species/type  :        3
  | Max. logarithmic grid size        :     1277
  | Max. radial integration grid size :       34
  | Max. angular integration grid size:      302
  | Max. angular grid division number :        8
  | Radial grid for Hartree potential :     1277
  | Number of spin channels           :        1

------------------------------------------------------------
          Reading file control.in.
------------------------------------------------------------
  XC: Using Perdew-Wang parametrisation of Ceperley-Alder LDA.
  Spin treatment: No spin polarisation.
  Non-relativistic treatment of kinetic energy.
  Charge =   0.000000E+00: Neutral system requested explicitly.
  Found k-point grid:         2         1         1
  DFPT calculation will begin after the DFT/HF calculation.
  Charge density mixing - mixing parameter:     0.7500
  Forces will not be computed.
 
  Reading configuration options for species H                   .
  | Found nuclear charge :   1.0000
  | Found atomic mass :    1.00794000000000      amu
  | Found l_max for Hartree potential  :   4
  | Found cutoff potl. onset [A], width [A], scale factor :    3.50000    1.50000    1.00000
  | Threshold for basis-dependent cutoff potential is   0.100000E-03
  | Found data for basic radial integration grid :    24 points, outermost radius =    5.000 A
  | Found multiplier for basic radial grid :   1
  | Found angular grid specification: user-specified.
  | Specified grid contains     5 separate shells.
  | Check grid settings after all constraints further below.
  | Found free-atom valence shell :  1 s   1.000
  | No ionic wave fns used. Skipping ion_occ.
  | Found hydrogenic basis function :  2 s   2.100
  | Found hydrogenic basis function :  2 p   3.500
  Species H                   : Missing cutoff potential type.
  Defaulting to exp(1/x)/(1-x)^2 type cutoff potential.
  Species H : No 'logarithmic' tag. Using default grid for free atom:
  | Default logarithmic grid data [bohr] : 0.1000E-03 0.1000E+03 0.1012E+01
  Species H : On-site basis accuracy parameter (for Gram-Schmidt orthonormalisation) not specified.
  Using default value basis_acc =  0.1000000E-03.
  Species H                   : Using default innermost maximum threshold i_radial=  2 for radial functions.
  Species H                   : Default cutoff onset for free atom density etc. : 0.35000000E+01 AA.
  Species H                   : Basic radial grid will be enhanced according to radial_multiplier =   1, to contain    24 grid points.
 
  Reading configuration options for species C                   .
  | Found nuclear charge :   6.0000
  | Found atomic mass :    12.0107000000000      amu
  | Found l_max for Hartree potential  :   4
  | Found cutoff potl. onset [A], width [A], scale factor :    3.50000    1.50000    1.00000
  | Threshold for basis-dependent cutoff potential is   0.100000E-03
  | Found data for basic radial integration grid :    34 points, outermost radius =    5.000 A
  | Found multiplier for basic radial grid :   1
  | Found angular grid specification: user-specified.
  | Specified grid contains     5 separate shells.
  | Check grid settings after all constraints further below.
  | Found free-atom valence shell :  2 s   2.000
  | Found free-atom valence shell :  2 p   2.000
  | No ionic wave fns used. Skipping ion_occ.
  | No ionic wave fns used. Skipping ion_occ.
  | Found hydrogenic basis function :  2 p   1.700
  | Found hydrogenic basis function :  3 d   6.000
  | Found hydrogenic basis function :  2 s   4.900
  Species C                   : Missing cutoff potential type.
  Defaulting to exp(1/x)/(1-x)^2 type cutoff potential.
  Species C : No 'logarithmic' tag. Using default grid for free atom:
  | Default logarithmic grid data [bohr] : 0.1000E-03 0.1000E+03 0.1012E+01
  Species C : On-site basis accuracy parameter (for Gram-Schmidt orthonormalisation) not specified.
  Using default value basis_acc =  0.1000000E-03.
  Species C                   : Using default innermost maximum threshold i_radial=  2 for radial functions.
  Species C                   : Default cutoff onset for free atom density etc. : 0.35000000E+01 AA.
  Species C                   : Basic radial grid will be enhanced according to radial_multiplier =   1, to contain    34 grid points.
 
  Finished reading input file 'control.in'.
 
------------------------------------------------------------


------------------------------------------------------------
          Reading geometry description geometry.in.
------------------------------------------------------------
  | The smallest distance between any two atoms is         1.06158958 AA.
  | The first atom of this pair is atom number                      1 .
  | The second atom of this pair is atom number                    21 .
  | Wigner-Seitz cell of the first atom image           0     0     0 .
  | (The Wigner-Seitz cell of the second atom is 0 0 0  by definition.)

  Symmetry information by spglib:
  | Precision set to  0.1E-04
  | Number of Operations  : 1
  | Space group           : 1
  | International         : P1
  | Schoenflies           : C1^1
  Input structure read successfully.
  The structure contains      144 atoms,  and a total of        544.000 electrons.

  Input geometry:
  | Unit cell:
  |        8.10200000        0.00000000        0.00000000
  |        0.00000000       11.88000000        0.00000000
  |       -9.78509185        0.00000000       14.25711196
  | Atomic structure:
  |       Atom                x [A]            y [A]            z [A]
  |    1: Species C            -0.89566300        0.07690810        2.35923000
  |    2: Species C             0.24085700        3.20292000        4.87210000
  |    3: Species C             4.25385000        5.76440000        4.74918000
  |    4: Species C             3.23639000        2.97729000        2.36310000
  |    5: Species C            -0.11766700        0.94701100        1.62174000
  |    6: Species C            -0.56582700        4.02283000        5.65940000
  |    7: Species C             3.52418000        4.93140000        5.56637000
  |    8: Species C             3.88516000        2.03627000        1.61166000
  |    9: Species C             0.30003100        0.59359800        0.29972000
  |   10: Species C            -0.93149600        3.60533000        6.98902000
  |   11: Species C             3.13959000        5.30263000        6.91643000
  |   12: Species C             4.33137000        2.32888000        0.29709100
  |   13: Species C            -3.73617000        1.56724000        6.79998000
  |   14: Species C             3.25047000        4.51171000        0.53181500
  |   15: Species C             7.13826000        4.34019000        0.60607300
  |   16: Species C             0.32872400        1.51772000        6.62730000
  |   17: Species C            -3.35539000        1.34438000        5.49126000
  |   18: Species C             2.90661000        4.21455000        1.83030000
  |   19: Species C             6.71295000        4.67492000        1.87971000
  |   20: Species C             0.70365300        1.93656000        5.36245000
  |   21: Species H            -1.14088000        0.40834200        3.33749000
  |   22: Species H             0.59238800        3.59894000        3.91933000
  |   23: Species H             4.44391000        5.41983000        3.73066000
  |   24: Species H             2.94453000        2.70508000        3.37481000
  |   25: Species H             0.23238400        1.87285000        2.10125000
  |   26: Species H            -0.93947400        4.94648000        5.24778000
  |   27: Species H             3.25651000        3.88232000        5.26640000
  |   28: Species H             4.20558000        1.09410000        2.09491000
  |   29: Species H            -3.51574000        2.52912000        7.28760000
  |   30: Species H             3.00074000        5.48506000        0.10616900
  |   31: Species H             6.93973000        3.32277000        0.19724900
  |   32: Species H             0.59266900        0.54789100        7.04711000
  |   33: Species H            -2.76918000        2.08041000        4.95861000
  |   34: Species H             2.34998000        4.94090000        2.38607000
  |   35: Species H             6.16527000        3.94038000        2.47386000
  |   36: Species H             1.27522000        1.31521000        4.67067000
  |   37: Species C            -5.74169000       -0.06175580        9.50300000
  |   38: Species C            -4.65080000        2.97664000       11.95360000
  |   39: Species C            -0.71955100        5.91881000       12.04050000
  |   40: Species C            -1.51787000        2.82796000        9.64541000
  |   41: Species C            -4.98982000        0.85474300        8.81655000
  |   42: Species C            -5.41228000        3.85990000       12.67300000
  |   43: Species C            -1.52832000        5.02110000       12.74180000
  |   44: Species C            -0.75974900        2.00570000        8.84411000
  |   45: Species C            -4.54249000        0.62460800        7.48999000
  |   46: Species C            -5.81251000        3.57771000       13.98440000
  |   47: Species C            -1.89911000        5.25376000       14.09700000
  |   48: Species C            -0.45007800        2.36005000        7.49656000
  |   49: Species C            -8.69446000        1.41872000       13.74100000
  |   50: Species C            -1.75455000        4.40041000        7.83134000
  |   51: Species C             2.37164000        4.47871000        7.78387000
  |   52: Species C            -4.69926000        1.43146000       13.78880000
  |   53: Species C            -8.32120000        1.01205000       12.44750000
  |   54: Species C            -2.01145000        4.03778000        9.12286000
  |   55: Species C             2.01597000        4.91635000        9.03517000
  |   56: Species C            -4.31809000        1.70709000       12.51420000
  |   57: Species H            -6.11012000        0.15602700       10.50830000
  |   58: Species H            -4.28794000        3.23172000       10.93460000
  |   59: Species H            -0.41741600        5.67282000       11.00910000
  |   60: Species H            -1.76140000        2.50411000       10.64510000
  |   61: Species H            -4.69801000        1.80800000        9.28414000
  |   62: Species H            -5.71338000        4.83367000       12.23800000
  |   63: Species H            -1.87962000        4.07970000       12.31650000
  |   64: Species H            -0.37668000        1.06921000        9.25446000
  |   65: Species H            -8.30772000        2.35230000       14.09560000
  |   66: Species H            -2.15664000        5.34223000        7.44927000
  |   67: Species H             2.00820000        3.49003000        7.44302000
  |   68: Species H            -4.40495000        0.49789000       14.23960000
  |   69: Species H            -7.66683000        1.64490000       11.88420000
  |   70: Species H            -2.65394000        4.72363000        9.73432000
  |   71: Species H             1.39676000        4.29199000        9.65118000
  |   72: Species H            -3.66486000        0.97660100       12.03840000
  |   73: Species C            -1.03247000        5.93222000        2.46139000
  |   74: Species C             0.24300300        8.99197000        4.81485000
  |   75: Species C             4.28645000       12.05880000        4.80787000
  |   76: Species C             3.30167000        8.96306000        2.45057000
  |   77: Species C            -0.30157700        6.84937000        1.70643000
  |   78: Species C            -0.56818900        9.84689000        5.54555000
  |   79: Species C             3.54526000       11.10170000        5.45992000
  |   80: Species C             3.97284000        8.03130000        1.70974000
  |   81: Species C             0.13514000        6.53865000        0.36616300
  |   82: Species C            -0.96020900        9.52732000        6.87359000
  |   83: Species C             3.14932000       11.28490000        6.82455000
  |   84: Species C             4.29650000        8.32021000        0.35928500
  |   85: Species C            -3.82921000        7.46716000        6.50776000
  |   86: Species C             3.21114000       10.51920000        0.59149600
  |   87: Species C             7.14825000       10.34570000        0.59219500
  |   88: Species C             0.31960300        7.42323000        6.69847000
  |   89: Species C            -3.48156000        7.03910000        5.24456000
  |   90: Species C             2.90807000       10.21460000        1.87446000
  |   91: Species C             6.75563000       10.71880000        1.87274000
  |   92: Species C             0.70955900        7.78984000        5.42247000
  |   93: Species H            -1.28363000        6.20394000        3.47364000
  |   94: Species H             0.61889000        9.29328000        3.83117000
  |   95: Species H             4.46452000       11.88870000        3.74606000
  |   96: Species H             3.00886000        8.77444000        3.45370000
  |   97: Species H             0.04624970        7.81279000        2.09343000
  |   98: Species H            -0.88356600       10.79790000        5.15421000
  |   99: Species H             3.17238000       10.20810000        4.94700000
  |  100: Species H             4.30105000        7.05554000        2.11531000
  |  101: Species H            -3.57112000        8.46409000        6.88014000
  |  102: Species H             2.88711000       11.48390000        0.13303300
  |  103: Species H             6.84653000        9.38734000        0.17355600
  |  104: Species H             0.61437400        6.43604000        7.11131000
  |  105: Species H            -2.98767000        7.75013000        4.54699000
  |  106: Species H             2.35236000       10.93160000        2.50146000
  |  107: Species H             6.09054000       10.05430000        2.40138000
  |  108: Species H             1.41455000        7.16012000        4.91127000
  |  109: Species C            -5.69445000        6.14395000        9.48179000
  |  110: Species C            -4.79337000        8.90842000       11.93300000
  |  111: Species C            -0.62833100       11.61390000       11.95250000
  |  112: Species C            -1.74842000        8.77946000        9.47659000
  |  113: Species C            -4.89563000        6.97600000        8.70310000
  |  114: Species C            -5.48835000        9.83443000       12.69400000
  |  115: Species C            -1.40186000       10.81070000       12.75120000
  |  116: Species C            -0.91123100        7.94524000        8.77441000
  |  117: Species C            -4.56588000        6.61590000        7.39976000
  |  118: Species C            -5.84663000        9.58452000       14.01580000
  |  119: Species C            -1.82570000       11.19300000       14.04300000
  |  120: Species C            -0.49919000        8.27866000        7.46985000
  |  121: Species C            -8.84529000        7.45909000       13.88500000
  |  122: Species C            -1.72126000       10.41950000        7.67341000
  |  123: Species C             2.37750000       10.36820000        7.52095000
  |  124: Species C            -4.77346000        7.38396000       13.83890000
  |  125: Species C            -8.42685000        7.15702000       12.60010000
  |  126: Species C            -2.09920000       10.03960000        8.96217000
  |  127: Species C             1.97691000       10.61190000        8.83293000
  |  128: Species C            -4.43408000        7.64831000       12.52010000
  |  129: Species H            -5.99347000        6.50128000       10.48750000
  |  130: Species H            -4.50416000        9.18060000       10.89880000
  |  131: Species H            -0.25011700       11.22770000       10.99950000
  |  132: Species H            -2.12369000        8.47453000       10.49280000
  |  133: Species H            -4.52050000        7.92953000        9.07360000
  |  134: Species H            -5.73150000       10.79200000       12.26980000
  |  135: Species H            -1.71764000        9.86977000       12.36320000
  |  136: Species H            -0.64700700        6.94629000        9.16767000
  |  137: Species H            -8.54068000        8.35530000       14.44300000
  |  138: Species H            -2.03714000       11.38680000        7.22697000
  |  139: Species H             2.10306000        9.41570000        7.06408000
  |  140: Species H            -4.42596000        6.46555000       14.34990000
  |  141: Species H            -7.75252000        7.78895000       12.02430000
  |  142: Species H            -2.75245000       10.68250000        9.55923000
  |  143: Species H             1.38697000        9.89821000        9.42490000
  |  144: Species H            -3.80474000        6.90927000       11.99700000

  Lattice parameters for 3D lattice (in Angstroms) :     8.102000   11.880000   17.292000
  Angle(s) between unit vectors (in degrees)       :    90.000000  124.463000   90.000000


  Quantities derived from the lattice vectors (in Angstrom^-1):
  | Reciprocal lattice vector 1:  0.775510  0.000000  0.532257
  | Reciprocal lattice vector 2:  0.000000  0.528888  0.000000
  | Reciprocal lattice vector 3: -0.000000  0.000000  0.440705
  | Unit cell volume                               :   0.137227E+04  Angstrom^3

  Fractional coordinates:
                         L1                L2                L3
       atom_frac         0.08930495        0.00647375        0.16547741  C
       atom_frac         0.44244979        0.26960606        0.34173120  C
       atom_frac         0.92734602        0.48521886        0.33310954  C
       atom_frac         0.59963685        0.25061364        0.16574886  C
       atom_frac         0.12285642        0.07971473        0.11374955  C
       atom_frac         0.40957693        0.33862205        0.39695276  C
       atom_frac         0.90651073        0.41510101        0.39042760  C
       atom_frac         0.61605672        0.17140320        0.11304253  C
       atom_frac         0.06242138        0.04996616        0.02102249  C
       atom_frac         0.47707753        0.30347896        0.49021289  C
       atom_frac         0.97340748        0.44634933        0.48512139  C
       atom_frac         0.55977199        0.19603367        0.02083809  C
       atom_frac         0.11489314        0.13192256        0.47695354  C
       atom_frac         0.44624425        0.37977357        0.03730173  C
       atom_frac         0.93239033        0.36533586        0.04251022  C
       atom_frac         0.60198008        0.12775421        0.46484169  C
       atom_frac         0.05102810        0.11316330        0.38515935  C
       atom_frac         0.51379917        0.35476010        0.12837803  C
       atom_frac         0.98778727        0.39351178        0.13184367  C
       atom_frac         0.54110916        0.16301010        0.37612456  C
       atom_frac         0.14190835        0.03437222        0.23409299  H
       atom_frac         0.40512762        0.30294108        0.27490350  H
       atom_frac         0.86452432        0.45621465        0.26167011  H
       atom_frac         0.64931687        0.22770034        0.23671063  H
       atom_frac         0.20668182        0.15764731        0.14738258  H
       atom_frac         0.32859021        0.41637037        0.36808156  H
       atom_frac         0.84806237        0.32679461        0.36938757  H
       atom_frac         0.69654169        0.09209596        0.14693789  H
       atom_frac         0.18340690        0.21288889        0.51115542  H
       atom_frac         0.37936399        0.46170539        0.00744674  H
       atom_frac         0.87325451        0.27969444        0.01383513  H
       atom_frac         0.67012047        0.04611877        0.49428734  H
       atom_frac         0.07826039        0.17511869        0.34779905  H
       atom_frac         0.49217635        0.41590067        0.16735998  H
       atom_frac         0.97052034        0.33168182        0.17351761  H
       atom_frac         0.55305401        0.11070791        0.32760281  H
       atom_frac         0.09633541       -0.00519830        0.66654453  C
       atom_frac         0.43857333        0.25055892        0.83843067  C
       atom_frac         0.93115432        0.49821633        0.84452588  C
       atom_frac         0.62972967        0.23804377        0.67653323  C
       atom_frac         0.13098591        0.07194806        0.61839663  C
       atom_frac         0.40552794        0.32490741        0.88888970  C
       atom_frac         0.89073894        0.42265152        0.89371536  C
       atom_frac         0.65542262        0.16882997        0.62032970  C
       atom_frac         0.07382364        0.05257643        0.52535114  C
       atom_frac         0.46721936        0.30115404        0.98087186  C
       atom_frac         0.95977439        0.44223569        0.98876968  C
       atom_frac         0.57949152        0.19865741        0.52581196  C
       atom_frac         0.09089218        0.11942088        0.96379968  C
       atom_frac         0.44684499        0.37040488        0.54929358  C
       atom_frac         0.95210417        0.37699579        0.54596401  C
       atom_frac         0.58805419        0.12049327        0.96715240  C
       atom_frac         0.02738828        0.08518939        0.87307303  C
       atom_frac         0.52454304        0.33988047        0.63988135  C
       atom_frac         1.01420432        0.41383418        0.63373073  C
       atom_frac         0.52712763        0.14369444        0.87775140  C
       atom_frac         0.13602167        0.01313359        0.73705671  H
       atom_frac         0.39703904        0.27203030        0.76695757  H
       atom_frac         0.88107454        0.47751010        0.77218304  H
       atom_frac         0.68435665        0.21078367        0.74665192  H
       atom_frac         0.20661308        0.15218855        0.65119360  H
       atom_frac         0.33151488        0.40687458        0.85837861  H
       atom_frac         0.81135158        0.34340909        0.86388464  H
       atom_frac         0.73746468        0.09000084        0.64911183  H
       atom_frac         0.16866468        0.19800505        0.98867148  H
       atom_frac         0.36485087        0.44968266        0.52249502  H
       atom_frac         0.87837228        0.29377357        0.52205664  H
       atom_frac         0.66256762        0.04190993        0.99877170  H
       atom_frac         0.06043691        0.13845960        0.83356293  H
       atom_frac         0.49704041        0.39761195        0.68276942  H
       atom_frac         0.98996049        0.36127862        0.67693794  H
       atom_frac         0.56744779        0.08220547        0.84437858  H
       atom_frac         0.08107347        0.49934512        0.17264296  C
       atom_frac         0.43786494        0.75689983        0.33771566  C
       atom_frac         0.93634142        1.01505051        0.33722608  C
       atom_frac         0.61510382        0.75446633        0.17188404  C
       atom_frac         0.10733129        0.57654630        0.11968974  C
       atom_frac         0.39964102        0.82886279        0.38896728  C
       atom_frac         0.90009504        0.93448653        0.38296115  C
       atom_frac         0.63518722        0.67603535        0.11992190  C
       atom_frac         0.04769796        0.55039141        0.02568283  C
       atom_frac         0.46375537        0.80196296        0.48211658  C
       atom_frac         0.96682514        0.94990741        0.47867689  C
       atom_frac         0.56073664        0.70035438        0.02520041  C
       atom_frac         0.07865523        0.62854882        0.45645710  C
       atom_frac         0.44644554        0.88545455        0.04148779  C
       atom_frac         0.93244773        0.87085017        0.04153681  C
       atom_frac         0.60688321        0.62485101        0.46983358  C
       atom_frac         0.01455713        0.59251684        0.36785571  C
       atom_frac         0.51772022        0.85981481        0.13147544  C
       atom_frac         0.99246467        0.90225589        0.13135479  C
       atom_frac         0.54692248        0.65571044        0.38033439  C
       atom_frac         0.13582268        0.52221717        0.24364261  H
       atom_frac         0.40093052        0.78226263        0.26871992  H
       atom_frac         0.86837269        1.00073232        0.26275027  H
       atom_frac         0.66393976        0.73858923        0.24224401  H
       atom_frac         0.18304551        0.65764226        0.14683409  H
       atom_frac         0.32756429        0.90891414        0.36151852  H
       atom_frac         0.81062174        0.85926768        0.34698472  H
       atom_frac         0.71005331        0.59390067        0.14836876  H
       atom_frac         0.14205510        0.71246549        0.48257600  H
       atom_frac         0.36761474        0.96665825        0.00933099  H
       atom_frac         0.85974411        0.79018013        0.01217329  H
       atom_frac         0.67823790        0.54175421        0.49879036  H
       atom_frac         0.01642412        0.65236785        0.31892785  H
       atom_frac         0.50224494        0.92016835        0.17545349  H
       atom_frac         0.95515682        0.84632155        0.16843383  H
       atom_frac         0.59063253        0.60270370        0.34447860  H
       atom_frac         0.10036934        0.51716751        0.66505685  C
       atom_frac         0.41923139        0.74986700        0.83698578  C
       atom_frac         0.93495868        0.97760101        0.83835352  C
       atom_frac         0.58697278        0.73901178        0.66469212  C
       atom_frac         0.13300094        0.58720539        0.61043920  C
       atom_frac         0.39791784        0.82781397        0.89036265  C
       atom_frac         0.90714372        0.90999158        0.89437468  C
       atom_frac         0.63082138        0.66879125        0.61544091  C
       atom_frac         0.06329320        0.55689394        0.51902237  C
       atom_frac         0.46566799        0.80677778        0.98307427  C
       atom_frac         0.96426071        0.94217172        0.98498209  C
       atom_frac         0.57116717        0.69685690        0.52393851  C
       atom_frac         0.08447421        0.62786953        0.97389991  C
       atom_frac         0.43757540        0.87706229        0.53821630  C
       atom_frac         0.93055516        0.87274411        0.52752269  C
       atom_frac         0.58313999        0.62154545        0.97066643  C
       atom_frac         0.02727523        0.60244276        0.88377646  C
       atom_frac         0.50010013        0.84508418        0.62861048  C
       atom_frac         0.99225129        0.89325758        0.61954553  C
       atom_frac         0.51331121        0.64379714        0.87816523  C
       atom_frac         0.14865736        0.54724579        0.73559779  H
       atom_frac         0.36731914        0.77277778        0.76444655  H
       atom_frac         0.90091041        0.94509259        0.77150969  H
       atom_frac         0.62673901        0.71334428        0.73596953  H
       atom_frac         0.21068737        0.66746886        0.63642623  H
       atom_frac         0.33197222        0.90841751        0.86060908  H
       atom_frac         0.83530019        0.83078872        0.86716020  H
       atom_frac         0.69674713        0.58470455        0.64302434  H
       atom_frac         0.16933998        0.70330808        1.01303827  H
       atom_frac         0.36076900        0.95848485        0.50690280  H
       atom_frac         0.85798002        0.79256734        0.49547763  H
       atom_frac         0.66931808        0.54423822        1.00650819  H
       atom_frac         0.06172855        0.65563552        0.84338960  H
       atom_frac         0.47004960        0.89920034        0.67048853  H
       atom_frac         0.96958369        0.83318266        0.66106656  H
       atom_frac         0.54667587        0.58158838        0.84147477  H

 
  Finished reading input file 'geometry.in'.
 

 
  Consistency checks for stacksize environment parameter are next.
 
  | Maximum stacksize for task 0: unlimited
  | Maximum stacksize for task 1: unlimited
  | Maximum stacksize for task 2: unlimited
  | Maximum stacksize for task 3: unlimited
  | Maximum stacksize for task 4: unlimited
  | Maximum stacksize for task 5: unlimited
  | Maximum stacksize for task 6: unlimited
  | Maximum stacksize for task 7: unlimited
  | Maximum stacksize for task 8: unlimited
  | Maximum stacksize for task 9: unlimited
  | Maximum stacksize for task 10: unlimited
  | Maximum stacksize for task 11: unlimited
  | Maximum stacksize for task 12: unlimited
  | Maximum stacksize for task 13: unlimited
  | Maximum stacksize for task 14: unlimited
  | Maximum stacksize for task 15: unlimited
  | Maximum stacksize for task 16: unlimited
  | Maximum stacksize for task 17: unlimited
  | Current stacksize for task 0: unlimited
  | Current stacksize for task 1: unlimited
  | Current stacksize for task 2: unlimited
  | Current stacksize for task 3: unlimited
  | Current stacksize for task 4: unlimited
  | Current stacksize for task 5: unlimited
  | Current stacksize for task 6: unlimited
  | Current stacksize for task 7: unlimited
  | Current stacksize for task 8: unlimited
  | Current stacksize for task 9: unlimited
  | Current stacksize for task 10: unlimited
  | Current stacksize for task 11: unlimited
  | Current stacksize for task 12: unlimited
  | Current stacksize for task 13: unlimited
  | Current stacksize for task 14: unlimited
  | Current stacksize for task 15: unlimited
  | Current stacksize for task 16: unlimited
  | Current stacksize for task 17: unlimited
 
  Consistency checks for the contents of control.in are next.
 
  MPI_IN_PLACE appears to work with this MPI implementation.
  | Keeping use_mpi_in_place .true. (see manual).
  Explicit treatment of the Coulomb operator is needed, but the RI method is not specified.
  Coulomb operator: Defaulting to 'LVL fast' resolution of identity - RI_type = LVL_fast
  Species H: Using default value for prodbas_acc =   1.000000E-06.
  Species H: Using default value max_l_prodbas =     6.
  Species C: Using default value for prodbas_acc =   1.000000E-06.
  Species C: Using default value max_l_prodbas =     6.
  Target number of points in a grid batch is not set.  Since GPU acceleration is enabled, defaulting to  200
  Method for grid partitioning is not set. Defaulting to parallel hash+maxmin partitioning.
  Batch size limit is not set. Defaulting to    200
  By default, will store active basis functions for each batch.
  If in need of memory, prune_basis_once .false. can be used to disable this option.
  communication_type for Hartree potential was not specified.
  Defaulting to calc_hartree .
  Defaulting to Pulay charge density mixer.
  Pulay mixer: Number of relevant iterations not set.
  Defaulting to    8 iterations.
  Pulay mixer: Number of initial linear mixing iterations not set.
  Defaulting to    0 iterations.
  Work space size for distributed Hartree potential not set.
  Defaulting to   0.200000E+03 MB.
  Algorithm-dependent basis array size parameters:
  | n_max_pulay                         :        8
  Maximum number of self-consistency iterations not provided.
  Presetting  1000 iterations.
  Presetting      1001 iterations before the initial mixing cycle
  is restarted anyway using the sc_init_iter criterion / keyword.
  Presetting a factor      1.000 between actual scf density residual
  and density convergence criterion sc_accuracy_rho below which sc_init_iter
  takes no effect.
 * No s.c.f. convergence criteria (sc_accuracy_*) were provided in control.in.
 * The run will proceed with a reasonable default guess, but please check whether.
 * the s.c.f. cycles seem to take too much or too little time.
  Geometry relaxation not requested: no relaxation will be performed.
 * Notice: The s.c.f. convergence criterion sc_accuracy_rho was not provided.
 * We used to stop in this case, and ask the user to provide reasonable
 * scf convergence criteria. However, this led some users to employ criteria
 * that led to extremely long run times, e.g., for simple relaxation.
 * We now preset a default value for sc_accuracy_rho if it is not set.
 * You may still wish to check if this setting is too tight or too loose for your needs.
 * Based on n_atoms and forces and force-correction status, FHI-aims chose sc_accuracy_rho =  0.391918E-04 .
  No accuracy limit for integral partition fn. given. Defaulting to  0.1000E-14.
  No threshold value for u(r) in integrations given. Defaulting to  0.1000E-05.
  No occupation type (smearing scheme) given. Defaulting to Gaussian broadening, width =  0.1000E-01 eV.
  The width will be adjusted in iteration number     2 of the first full s.c.f. cycle only.
  S.C.F. convergence parameters will be adjusted in iteration number     2 of the first full s.c.f. cycle only.
  No accuracy for occupation numbers given. Defaulting to  0.1000E-12.
  No threshold value for occupation numbers given. Defaulting to  0.0000E+00.
  No accuracy for fermi level given. Defaulting to  0.1000E-19.
  Maximum # of iterations to find E_F not set. Defaulting to  200.
  Preferred method for the eigenvalue solver ('KS_method') not specified in 'control.in'.
  Calling BLACS routine to test compilation state
  Since ScaLAPACK support is enabled, defaulting to ELPA (via ELSI).
  Will not use alltoall communication since running on < 1024 CPUs.
  Threshold for basis singularities not set.
  Default threshold for basis singularities:  0.1000E-04
  partition_type (choice of integration weights) for integrals was not specified.
  | Using a version of the partition function of Stratmann and coworkers ('stratmann_sparse').
  | At each grid point, the set of atoms used to build the partition table is smoothly restricted to
  | only those atoms whose free-atom density would be non-zero at that grid point.
  Partitioning for Hartree potential was not defined. Using partition_type for integrals.
  | Adjusted default value of keyword multip_moments_threshold to:       0.10000000E-11
  | This value may affect high angular momentum components of the Hartree potential in periodic systems.
  Angular momentum expansion for Kerker preconditioner not set explicitly.
  | Using default value of   0
  No explicit requirement for turning off preconditioner.
  | By default, it will be turned off when the charge convergence reaches
  | sc_accuracy_rho  =   0.391918E-04
  No special mixing parameter while Kerker preconditioner is on.
  Using default: charge_mix_param =     0.7500.
  Threshold for auxiliary basis singularities not set.
  Default threshold for auxiliary basis singularities:  0.1000E-04
  No q(lm)/r^(l+1) cutoff set for long-range Hartree potential.
  | Using default value of  0.100000E-09 .
  | Verify using the multipole_threshold keyword.
  Defaulting to new monopole extrapolation.
  Density update method: automatic selection selected.
  Using density matrix based charge density update.
  Using density matrix based charge density update.
  Using packed matrix style: index .
  Defaulting to use time-reversal symmetry for k-point grid.
  Charge integration errors on the 3D integration grid will be compensated
  by explicit normalization and distribution of residual charges.
  Use the "compensate_multipole_errors" flag to change this behaviour.
  Default to 1D ("use_logsbt") integrations for auxiliary 2-center integrals.
  Default onset of logarithmic r-grid for SBT is -38.000000000000
  Default onset of logarithmic k-grid for SBT is -25.000000000000
  Default range of logarithmic r- and k-grid for SBT is  45.000000000000
  Default number of logarithmic r- and k-grid for SBT is   4096
  Default of use_2d_corr is to use the efficient 2D distribution where possible
 
  Consistency checks for the contents of geometry.in are next.
 

  Range separation radius for Ewald summation (hartree_convergence_parameter):      2.91768261 bohr.
  Number of empty states per atom not set in control.in .
  | Since you are using a method that relies on the unoccupied spectrum
  | (MP2,GW,RPA et al.), will use the full Hamiltonian size (see below)
  | as the max. possible number of states (occupied plus empty).

  Structure-dependent array size parameters: 
  | Maximum number of distinct radial functions  :        9
  | Maximum number of basis functions            :     1440
  | Number of Kohn-Sham states (occupied + empty):     1440
------------------------------------------------------------
CUDA runtime version: 11060
CUDA driver version: 11060
  Initializing GPUs...

  Number of GPUs available to MPI task         0 :   1
  Number of GPUs available to MPI task         1 :   1
  Number of GPUs available to MPI task         2 :   1
  Number of GPUs available to MPI task         3 :   1
  Number of GPUs available to MPI task         4 :   1
  Number of GPUs available to MPI task         5 :   1
  Number of GPUs available to MPI task         6 :   1
  Number of GPUs available to MPI task         7 :   1
  Number of GPUs available to MPI task         8 :   1
  Number of GPUs available to MPI task         9 :   1
  Number of GPUs available to MPI task        10 :   1
  Number of GPUs available to MPI task        11 :   1
  Number of GPUs available to MPI task        12 :   1
  Number of GPUs available to MPI task        13 :   1
  Number of GPUs available to MPI task        14 :   1
  Number of GPUs available to MPI task        15 :   1
  Number of GPUs available to MPI task        16 :   1
  Number of GPUs available to MPI task        17 :   1

  | MPI task         0, GPU activated = T, Device Name = NVIDIA A100-SXM4-80GB
  | MPI task         1, GPU activated = T, Device Name = NVIDIA A100-SXM4-80GB
  | MPI task         2, GPU activated = T, Device Name = NVIDIA A100-SXM4-80GB
  | MPI task         3, GPU activated = T, Device Name = NVIDIA A100-SXM4-80GB
  | MPI task         4, GPU activated = T, Device Name = NVIDIA A100-SXM4-80GB
  | MPI task         5, GPU activated = T, Device Name = NVIDIA A100-SXM4-80GB
  | MPI task         6, GPU activated = T, Device Name = NVIDIA A100-SXM4-80GB
  | MPI task         7, GPU activated = T, Device Name = NVIDIA A100-SXM4-80GB
  | MPI task         8, GPU activated = T, Device Name = NVIDIA A100-SXM4-80GB
  | MPI task         9, GPU activated = T, Device Name = NVIDIA A100-SXM4-80GB
  | MPI task        10, GPU activated = T, Device Name = NVIDIA A100-SXM4-80GB
  | MPI task        11, GPU activated = T, Device Name = NVIDIA A100-SXM4-80GB
  | MPI task        12, GPU activated = T, Device Name = NVIDIA A100-SXM4-80GB
  | MPI task        13, GPU activated = T, Device Name = NVIDIA A100-SXM4-80GB
  | MPI task        14, GPU activated = T, Device Name = NVIDIA A100-SXM4-80GB
  | MPI task        15, GPU activated = T, Device Name = NVIDIA A100-SXM4-80GB
  | MPI task        16, GPU activated = T, Device Name = NVIDIA A100-SXM4-80GB
  | MPI task        17, GPU activated = T, Device Name = NVIDIA A100-SXM4-80GB

------------------------------------------------------------
          Preparing all fixed parts of the calculation.
------------------------------------------------------------
  Determining machine precision:
    2.225073858507201E-308
  Setting up grids for atomic and cluster calculations.

  Creating wave function, potential, and density for free atoms.
  Runtime choices for atomic solver:
  | atomic solver xc        : PW-LDA
  | compute density gradient: 0
  | compute kinetic density : F

  Species: H

  List of occupied orbitals and eigenvalues:
    n    l              occ      energy [Ha]    energy [eV]
    1    0           1.0000        -0.232375        -6.3233


  Species: C

  List of occupied orbitals and eigenvalues:
    n    l              occ      energy [Ha]    energy [eV]
    1    0           2.0000        -9.944615      -270.6068
    2    0           2.0000        -0.498807       -13.5732
    2    1           2.0000        -0.196968        -5.3598


  Adding cutoff potential to free-atom effective potential.
  Creating fixed part of basis set: Ionic, confined, hydrogenic.
 
  H                    hydrogenic:
 
  List of hydrogenic basis orbitals: 
    n    l      effective z      eigenvalue [eV]  inner max. [A]     outer max. [A]     outer radius [A]   
    2    0         2.100000       -14.9728           0.193243           1.317208           4.583499
    2    1         3.500000       -41.6669           0.602369           0.602369           3.723403
 
 
  C                    hydrogenic:
 
  List of hydrogenic basis orbitals: 
    n    l      effective z      eigenvalue [eV]  inner max. [A]     outer max. [A]     outer radius [A]   
    2    1         1.700000        -9.7616           1.230570           1.230570           4.607917
    3    2         6.000000       -54.4224           0.792453           0.792453           3.883070
    2    0         4.900000       -81.6679           0.082559           0.562749           3.078220
 
  Creating atomic-like basis functions for current effective potential.

  Species H                   :

  List of atomic basis orbitals and eigenvalues:
    n    l      energy [Ha]    energy [eV]    outer radius [A]
    1    0        -0.232375        -6.3233       4.527807


  Species C                   :

  List of atomic basis orbitals and eigenvalues:
    n    l      energy [Ha]    energy [eV]    outer radius [A]
    1    0        -9.944615      -270.6068       1.934409
    2    0        -0.498807       -13.5732       4.496620
    2    1        -0.196968        -5.3598       4.551928

  Assembling full basis from fixed parts.
  | Species H :   atomic orbital   1 s accepted.
  | Species H :    hydro orbital   2 s accepted.
  | Species H :    hydro orbital   2 p accepted.
  | Species C :   atomic orbital   1 s accepted.
  | Species C :    hydro orbital   2 s accepted.
  | Species C :   atomic orbital   2 s accepted.
  | Species C :   atomic orbital   2 p accepted.
  | Species C :    hydro orbital   2 p accepted.
  | Species C :    hydro orbital   3 d accepted.
 
  Basis size parameters after reduction:
  | Total number of radial functions:        9
  | Total number of basis functions :     1440
 
  Per-task memory consumption for arrays in subroutine allocate_ext:
  |           2.242384MB.
  Testing on-site integration grid accuracy.
  |  Species  Function  <phi|h_atom|phi> (log., in eV)  <phi|h_atom|phi> (rad., in eV)
           1        1                 -6.3245358373                 -6.3232436907
           1        2                 14.1326137532                 14.1384481100
           1        3                 25.3627025200                 25.3628451197
           2        4               -270.6067544938               -270.6067222788
           2        5                -10.5634280949                -10.5635685736
           2        6                 16.2089822398                 16.2052121796
           2        7                 -5.3613872565                 -5.3627872378
           2        8                  8.5292058327                  8.5051734780
           2        9                 27.4884461005                 27.4884542459

  Preparing densities etc. for the partition functions (integrals / Hartree potential).

  Preparations completed.
  max(cpu_time)          :      0.077 s.
  Wall clock time (cpu1) :      0.070 s.
------------------------------------------------------------

  Initializing index lists of integration centers etc. from given atomic structure:
  Mapping all atomic coordinates to central unit cell.

  Initializing the k-points
  Using symmetry for reducing the k-points
  | k-points reduced from:        2 to        2
  | Number of k-points                             :         2
  | Consuming          0 KiB for k_phase_exx.
  The eigenvectors in the calculations are REAL.
  | Number of basis functions in the Hamiltonian integrals :      8059
  | Number of basis functions in a single unit cell        :      1440
  | Number of centers in hartree potential         :      3340
  | Number of centers in hartree multipole         :      2556
  | Number of centers in electron density summation:      1981
  | Number of centers in basis integrals           :      2122
  | Number of centers in integrals                 :       973
  | Number of centers in hamiltonian               :      1990
  | Consuming          1 KiB for k_phase.
  | Number of super-cells (origin) [n_cells]                     :         175
  | Number of super-cells (after PM_index) [n_cells]             :          40
  | Number of super-cells in hamiltonian [n_cells_in_hamiltonian]:          40
  | Size of matrix packed + index [n_hamiltonian_matrix_size] :     1932564
  | Size of matrix packed + index (no_symmetry):     3862311

------------------------------------------------------------
          Begin self-consistency loop: Initialization.

          Date     :  20230119, Time     :  191604.224
------------------------------------------------------------
  | Estimated reciprocal-space cutoff momentum G_max:         3.24344278 bohr^-1 .
  | Reciprocal lattice points for long-range Hartree potential:    5310
  Using simple linear distribution as default method for k-point parallelism.
  * Using 18 tasks for Scalapack Eigenvalue solver.
  Detailed listing of tasks and assigned k-points:
   Task     0 k-point     1 on adag003
   Task     1 k-point     1 on adag003
   Task     2 k-point     1 on adag003
   Task     3 k-point     1 on adag003
   Task     4 k-point     1 on adag003
   Task     5 k-point     1 on adag003
   Task     6 k-point     1 on adag003
   Task     7 k-point     1 on adag003
   Task     8 k-point     1 on adag003
   Task     9 k-point     2 on adag003
   Task    10 k-point     2 on adag003
   Task    11 k-point     2 on adag003
   Task    12 k-point     2 on adag003
   Task    13 k-point     2 on adag003
   Task    14 k-point     2 on adag003
   Task    15 k-point     2 on adag003
   Task    16 k-point     2 on adag003
   Task    17 k-point     2 on adag003
  K-point:     1 Tasks:     9 split into      3 X      3 BLACS grid
  Calculating block size based on n_basis =         1440  max_nprow =            3  max_npcol =            3
  ScaLAPACK block size set to:           16
  Allocating        1.758 MB for ovlp
  Allocating        1.758 MB for ham
  Allocating        1.758 MB for eigenvec
  Required Scalapack workspace - INTEGER:            1  REAL:             1
  Partitioning the integration grid into batches with parallel hashing+maxmin method.
  | Number of batches:     5334
  | Maximal batch size:     200
  | Minimal batch size:      99
  | Average batch size:     143.202
  | Standard deviation of batch sizes:      32.571

  Integration load balanced across    18 MPI tasks.
  Work distribution over tasks is as follows:
  Task     0 has      42418 integration points.
  Task     1 has      42422 integration points.
  Task     2 has      42414 integration points.
  Task     3 has      42442 integration points.
  Task     4 has      42437 integration points.
  Task     5 has      42506 integration points.
  Task     6 has      42443 integration points.
  Task     7 has      42481 integration points.
  Task     8 has      42429 integration points.
  Task     9 has      42427 integration points.
  Task    10 has      42422 integration points.
  Task    11 has      42409 integration points.
  Task    12 has      42403 integration points.
  Task    13 has      42425 integration points.
  Task    14 has      42415 integration points.
  Task    15 has      42434 integration points.
  Task    16 has      42481 integration points.
  Task    17 has      42432 integration points.
  Initializing partition tables, free-atom densities, potentials, etc. across the integration grid (initialize_grid_storage).
  | initialize_grid_storage: Actual outermost partition radius vs. multipole_radius_free
  | (-- VB: in principle, multipole_radius_free should be larger, hence this output)
  | Species        1: Confinement radius =              4.999999999999999 AA, multipole_radius_free =              5.054417573612229 AA.
  | Species        1: outer_partition_radius set to              5.054417573612229 AA .
  | Species        2: Confinement radius =              4.999999999999999 AA, multipole_radius_free =              5.019602836301480 AA.
  | Species        2: outer_partition_radius set to              5.019602836301480 AA .
  | The sparse table of interatomic distances needs       7627.48 kbyte instead of     36023.07 kbyte of memory.
  | Net number of integration points:   763840
  | of which are non-zero points    :   605191
  | Numerical average free-atom electrostatic potential    :     -8.61469006 eV
  Renormalizing the initial density to the exact electron count on the 3D integration grid.
  | Initial density: Formal number of electrons (from input files) :     544.0000000000
  | Integrated number of electrons on 3D grid     :     543.9973011429
  | Charge integration error                      :      -0.0026988571
  | Normalization factor for density and gradient :       1.0000049612
  Renormalizing the free-atom superposition density to the exact electron count on the 3D integration grid.
  | Formal number of electrons (from input files) :     544.0000000000
  | Integrated number of electrons on 3D grid     :     543.9973011429
  | Charge integration error                      :      -0.0026988571
  | Normalization factor for density and gradient :       1.0000049612
  Obtaining max. number of non-zero basis functions in each batch (get_n_compute_maxes).
  | Maximal number of non-zero basis functions:      532 in task     0
  | Maximal number of non-zero basis functions:      530 in task     1
  | Maximal number of non-zero basis functions:      543 in task     2
  | Maximal number of non-zero basis functions:      527 in task     3
  | Maximal number of non-zero basis functions:      540 in task     4
  | Maximal number of non-zero basis functions:      537 in task     5
  | Maximal number of non-zero basis functions:      536 in task     6
  | Maximal number of non-zero basis functions:      541 in task     7
  | Maximal number of non-zero basis functions:      544 in task     8
  | Maximal number of non-zero basis functions:      542 in task     9
  | Maximal number of non-zero basis functions:      558 in task    10
  | Maximal number of non-zero basis functions:      538 in task    11
  | Maximal number of non-zero basis functions:      543 in task    12
  | Maximal number of non-zero basis functions:      551 in task    13
  | Maximal number of non-zero basis functions:      544 in task    14
  | Maximal number of non-zero basis functions:      538 in task    15
  | Maximal number of non-zero basis functions:      549 in task    16
  | Maximal number of non-zero basis functions:      552 in task    17
  Integrating Hamiltonian matrix: batch-based integration.
  GPU acceleration will be used when integrating the Hamiltonian matrix.
  Reporting GPU memory usage by myid 0.  Note that it is likely not the only MPI task binding to its GPU!
  Allocating        2.264 MB on GPU for hamiltonian_shell
  Allocating        0.851 MB on GPU for wave
  Allocating        0.002 MB on GPU for partition
  Allocating        0.851 MB on GPU for h_times_psi
  Time summed over all CPUs for integration: real work       28.352 s, elapsed       29.100 s
  Deallocating memory used on GPU for Hamiltonian integration.
  Integrating overlap matrix.
  Time summed over all CPUs for integration: real work       23.927 s, elapsed       24.248 s
  Deallocating overlap matrix.

  Updating Kohn-Sham eigenvalues and eigenvectors using ELSI and the ELPA eigensolver.
  Singularity check in k-point 1 (analysis for other k-points may follow below):
  Overlap matrix is not singular
  | Lowest and highest eigenvalues :  0.7780E-03,  0.8232E+01
  Finished singularity check of overlap matrix
  | Time :     0.116 s
  Starting ELPA eigensolver
  Finished Cholesky decomposition
  | Time :     0.017 s
  Finished transformation to standard eigenproblem
  | Time :     0.028 s
  Finished solving standard eigenproblem
  | Time :     0.236 s
  Finished back-transformation of eigenvectors
  | Time :     0.020 s

  Obtaining occupation numbers and electronic chemical potential using ELSI.
  | Note that, for insulating systems, the printed 'chemical potential' value is not uniquely defined.
  | It can be anywhere in the energy gap, as long as it correctly separates occupied and unoccupied states.
  | In systems with a gap, the physically relevant chemical potential is the VBM or HOMO.

  | Chemical potential (Fermi level):    -8.53435291 eV
  Writing Kohn-Sham eigenvalues.
  K-point:       1 at    0.000000    0.000000    0.000000 (in units of recip. lattice)

  State    Occupation    Eigenvalue [Ha]    Eigenvalue [eV]
      1       2.00000         -10.076336         -274.19106
      2       2.00000         -10.072608         -274.08960
      3       2.00000         -10.072479         -274.08610
      4       2.00000         -10.071418         -274.05722
      5       2.00000         -10.070208         -274.02430
      6       2.00000         -10.069896         -274.01580
      7       2.00000         -10.069064         -273.99317
      8       2.00000         -10.068786         -273.98560
      9       2.00000         -10.068554         -273.97930
     10       2.00000         -10.068007         -273.96442
     11       2.00000         -10.066862         -273.93324
     12       2.00000         -10.066576         -273.92546
     13       2.00000         -10.066335         -273.91892
     14       2.00000         -10.066142         -273.91366
     15       2.00000         -10.065998         -273.90976
     16       2.00000         -10.065965         -273.90883
     17       2.00000         -10.065313         -273.89111
     18       2.00000         -10.064833         -273.87805
     19       2.00000         -10.064809         -273.87740
     20       2.00000         -10.064643         -273.87286
     21       2.00000         -10.064569         -273.87086
     22       2.00000         -10.064461         -273.86792
     23       2.00000         -10.064393         -273.86607
     24       2.00000         -10.064387         -273.86591
     25       2.00000         -10.064370         -273.86543
     26       2.00000         -10.064255         -273.86232
     27       2.00000         -10.064042         -273.85651
     28       2.00000         -10.063816         -273.85037
     29       2.00000         -10.063722         -273.84780
     30       2.00000         -10.063691         -273.84697
     31       2.00000         -10.063565         -273.84354
     32       2.00000         -10.063450         -273.84041
     33       2.00000         -10.063245         -273.83482
     34       2.00000         -10.063027         -273.82890
     35       2.00000         -10.062926         -273.82615
     36       2.00000         -10.062566         -273.81634
     37       2.00000         -10.062458         -273.81341
     38       2.00000         -10.062417         -273.81230
     39       2.00000         -10.062347         -273.81041
     40       2.00000         -10.062298         -273.80905
     41       2.00000         -10.062063         -273.80267
     42       2.00000         -10.062041         -273.80207
     43       2.00000         -10.062003         -273.80102
     44       2.00000         -10.061893         -273.79804
     45       2.00000         -10.061825         -273.79619
     46       2.00000         -10.061742         -273.79393
     47       2.00000         -10.061519         -273.78785
     48       2.00000         -10.061394         -273.78445
     49       2.00000         -10.061386         -273.78425
     50       2.00000         -10.061345         -273.78312
     51       2.00000         -10.061218         -273.77968
     52       2.00000         -10.061183         -273.77872
     53       2.00000         -10.061153         -273.77789
     54       2.00000         -10.060981         -273.77323
     55       2.00000         -10.060829         -273.76909
     56       2.00000         -10.060679         -273.76501
     57       2.00000         -10.060559         -273.76173
     58       2.00000         -10.060464         -273.75915
     59       2.00000         -10.060224         -273.75264
     60       2.00000         -10.059773         -273.74034
     61       2.00000         -10.059227         -273.72550
     62       2.00000         -10.058933         -273.71748
     63       2.00000         -10.058724         -273.71181
     64       2.00000         -10.058577         -273.70781
     65       2.00000         -10.058543         -273.70689
     66       2.00000         -10.058440         -273.70408
     67       2.00000         -10.057950         -273.69075
     68       2.00000         -10.057404         -273.67589
     69       2.00000         -10.056654         -273.65547
     70       2.00000         -10.056625         -273.65468
     71       2.00000         -10.056168         -273.64227
     72       2.00000         -10.056141         -273.64152
     73       2.00000         -10.056012         -273.63800
[...]
  |    H      0     4.527807 A      4.583499 A        4.713786E-16 a.u.
  |    H      2     3.678162 A  1.011968E+04 A            0.556529 a.u.
  |    H      1     3.958095 A  1.721251E+06 A            0.841931 a.u.
  |    H      0     4.527807 A  3.866455E+12 A            0.581436 a.u.
  |    C      0     2.562483 A      2.562483 A        6.563029E-17 a.u.
  |    C      0     2.967371 A      2.967371 A        1.352164E-16 a.u.
  |    C      0     3.003870 A      3.003870 A        2.312640E-17 a.u.
  |    C      1     3.272245 A      3.272245 A       -3.835259E-17 a.u.
  |    C      0     3.312494 A      3.312494 A       -2.710381E-16 a.u.
  |    C      3     4.077671 A      4.077671 A       -1.683752E-15 a.u.
  |    C      3     4.077671 A      4.077671 A        1.412852E-15 a.u.
  |    C      1     4.496620 A      4.496620 A       -3.011059E-16 a.u.
  |    C      0     4.496620 A      4.551928 A        2.873903E-17 a.u.
  |    C      2     4.551928 A      4.551928 A       -4.610785E-16 a.u.
  |    C      2     4.551928 A      4.551928 A        7.440584E-16 a.u.
  |    C      2     4.551928 A      4.551928 A       -7.110458E-16 a.u.
  |    C      2     4.551928 A      4.551928 A       -1.935424E-16 a.u.
  |    C      0     4.551928 A      4.607917 A        2.067142E-16 a.u.
  |    C      0     4.551928 A      4.607917 A       -1.109786E-16 a.u.
  |    C      1     4.551928 A      4.607917 A       -9.951742E-17 a.u.
  |    C      1     4.551928 A      4.607917 A        1.937809E-16 a.u.
  |    C      1     4.607917 A      4.607917 A       -2.813308E-16 a.u.
  |    C      1     4.607917 A      4.607917 A       -7.330363E-17 a.u.
  |    C      2     4.607917 A      4.607917 A        1.318462E-15 a.u.
  |    C      2     4.607917 A      4.607917 A       -1.318397E-15 a.u.
  |    C      0     4.607917 A      4.664595 A        3.157826E-16 a.u.
  |    C      1     4.607917 A      4.664595 A        7.356967E-16 a.u.
  |    C      4     3.835889 A  2.962973E+02 A            4.379483 a.u.
  |    C      3     4.127827 A  1.725964E+03 A            9.005588 a.u.
  |    C      2     4.607917 A  2.608475E+04 A            9.531178 a.u.
  |    C      1     4.607917 A  2.736013E+06 A            2.127278 a.u.
  |    C      0     4.607917 A  4.399765E+12 A            0.661635 a.u.

  | Shrink_full_auxil_basis : there are       36  radial auxiliary wave functions
                            accepted and       7 rejected.
  | Shrink_full_auxil_basis : there are totally                8992 partial auxiliary wave functions.
 
  | Maximal number of product basis functions per thread :   512   512
 
  | Minimal total memory requirement for three-center overlap :      72.476 Gbs
  | Number of local auxiliary basis functions on task:      0   512
  | Number of local auxiliary basis functions on task:      1   512
  | Number of local auxiliary basis functions on task:      2   512
  | Number of local auxiliary basis functions on task:      3   512
  | Number of local auxiliary basis functions on task:      4   496
  | Number of local auxiliary basis functions on task:      5   496
  | Number of local auxiliary basis functions on task:      6   496
  | Number of local auxiliary basis functions on task:      7   496
  | Number of local auxiliary basis functions on task:      8   496
  | Number of local auxiliary basis functions on task:      9   496
  | Number of local auxiliary basis functions on task:     10   496
  | Number of local auxiliary basis functions on task:     11   496
  | Number of local auxiliary basis functions on task:     12   496
  | Number of local auxiliary basis functions on task:     13   496
  | Number of local auxiliary basis functions on task:     14   496
  | Number of local auxiliary basis functions on task:     15   496
  | Number of local auxiliary basis functions on task:     16   496
  | Number of local auxiliary basis functions on task:     17   496
  | 2D aux task distribution:      3 X      6
  | 2D block size (nb_aux_2d):     64
 
  Basis pair condensation :   1037520  -->     546507
 
 --------------------------------------------
  Constructing auxiliary basis (full product) ...
 
  Product basis:
  | charge radius: extent of product basis function
  | field radius: extent of its Coulomb potential
  | Species   l  charge radius    field radius  multipol momen
  |    H      1     3.910002 A      3.910002 A       -2.487223E-16 a.u.
  |    H      1     3.958095 A      3.958095 A       -2.441841E-16 a.u.
  |    H      0     4.527807 A      4.527807 A        1.268855E-16 a.u.
  |    H      0     4.527807 A      4.583499 A       -4.900954E-17 a.u.
  |    H      0     4.527807 A      4.583499 A        4.713786E-16 a.u.
  |    H      2     3.678162 A  1.011968E+04 A            0.556529 a.u.
  |    H      1     3.958095 A  1.721251E+06 A            0.841931 a.u.
  |    H      0     4.527807 A  3.866455E+12 A            0.581436 a.u.
  |    C      0     2.562483 A      2.562483 A        6.563029E-17 a.u.
  |    C      0     2.967371 A      2.967371 A        1.352164E-16 a.u.
  |    C      0     3.003870 A      3.003870 A        2.312640E-17 a.u.
  |    C      1     3.272245 A      3.272245 A       -3.835259E-17 a.u.
  |    C      0     3.312494 A      3.312494 A       -2.710381E-16 a.u.
  |    C      3     4.077671 A      4.077671 A       -1.683752E-15 a.u.
  |    C      3     4.077671 A      4.077671 A        1.412852E-15 a.u.
  |    C      1     4.496620 A      4.496620 A       -3.011059E-16 a.u.
  |    C      0     4.496620 A      4.551928 A        2.873903E-17 a.u.
  |    C      2     4.551928 A      4.551928 A       -4.610785E-16 a.u.
  |    C      2     4.551928 A      4.551928 A        7.440584E-16 a.u.
  |    C      2     4.551928 A      4.551928 A       -7.110458E-16 a.u.
  |    C      2     4.551928 A      4.551928 A       -1.935424E-16 a.u.
  |    C      0     4.551928 A      4.607917 A        2.067142E-16 a.u.
  |    C      0     4.551928 A      4.607917 A       -1.109786E-16 a.u.
  |    C      1     4.551928 A      4.607917 A       -9.951742E-17 a.u.
  |    C      1     4.551928 A      4.607917 A        1.937809E-16 a.u.
  |    C      1     4.607917 A      4.607917 A       -2.813308E-16 a.u.
  |    C      1     4.607917 A      4.607917 A       -7.330363E-17 a.u.
  |    C      2     4.607917 A      4.607917 A        1.318462E-15 a.u.
  |    C      2     4.607917 A      4.607917 A       -1.318397E-15 a.u.
  |    C      0     4.607917 A      4.664595 A        3.157826E-16 a.u.
  |    C      1     4.607917 A      4.664595 A        7.356967E-16 a.u.
  |    C      4     3.835889 A  2.962973E+02 A            4.379483 a.u.
  |    C      3     4.127827 A  1.725964E+03 A            9.005588 a.u.
  |    C      2     4.607917 A  2.608475E+04 A            9.531178 a.u.
  |    C      1     4.607917 A  2.736013E+06 A            2.127278 a.u.
  |    C      0     4.607917 A  4.399765E+12 A            0.661635 a.u.

  | Shrink_full_auxil_basis : there are       36  radial auxiliary wave functions
                            accepted and       7 rejected.
  | Shrink_full_auxil_basis : there are totally                8992 partial auxiliary wave functions.
 
  | Maximal number of product basis functions per thread :   512   512
 
  | Minimal total memory requirement for three-center overlap :      72.476 Gbs
  | Number of local auxiliary basis functions on task:      0   512
  | Number of local auxiliary basis functions on task:      1   512
  | Number of local auxiliary basis functions on task:      2   512
  | Number of local auxiliary basis functions on task:      3   512
  | Number of local auxiliary basis functions on task:      4   496
  | Number of local auxiliary basis functions on task:      5   496
  | Number of local auxiliary basis functions on task:      6   496
  | Number of local auxiliary basis functions on task:      7   496
  | Number of local auxiliary basis functions on task:      8   496
  | Number of local auxiliary basis functions on task:      9   496
  | Number of local auxiliary basis functions on task:     10   496
  | Number of local auxiliary basis functions on task:     11   496
  | Number of local auxiliary basis functions on task:     12   496
  | Number of local auxiliary basis functions on task:     13   496
  | Number of local auxiliary basis functions on task:     14   496
  | Number of local auxiliary basis functions on task:     15   496
  | Number of local auxiliary basis functions on task:     16   496
  | Number of local auxiliary basis functions on task:     17   496
  | 2D aux task distribution:      3 X      6
  | 2D block size (nb_aux_2d):     64
 
  Basis pair condensation :   1037520  -->     546507
  Allocating        0.069 MB for t_coeff
  Allocating        0.034 MB for basbas_idx
  Allocating        0.069 MB for wave
  Allocating        0.069 MB for total_wave
  Allocating        0.206 MB for wave_gradient
  Allocating        0.206 MB for total_wave_grad
 HERE1
 HERE2
  Deallocating        0.069 MB for t_coeff
  Deallocating        0.034 MB for basbas_idx
  Deallocating        0.069 MB for wave
  Deallocating        0.206 MB for wave_gradient
  Deallocating        0.206 MB for total_wave_grad
dP_dE (Bohr^3) at every cycle:--->
 (992.797397922251,0.000000000000000E+000) (2.43287990463413,0.000000000000000E+000) (-454.181088520096,0.000000000000000E+000)
 (2.40866335441030,0.000000000000000E+000) (1372.45970711170,0.000000000000000E+000) (3.24778652277336,0.000000000000000E+000)
 (-454.333181077563,0.000000000000000E+000) (3.27760453720126,0.000000000000000E+000) (1684.61472429250,0.000000000000000E+000)
DFPT polarizability (Bohr^3)        xx        yy        zz        xy        xz        yz
  | Polarizability:--->                       992.797397922                 1372.459707112                 1684.614724292                    2.432879905                 -454.181088520                    3.247786523

DFPT for dielectric_constant:--->  # PARSE DFPT_dielectric_tensor
               2.347204892181511             0.003301366136205            -0.616314049242215
               0.003268504794101             2.862398547389911             0.004407177034709
              -0.616520435598497             0.004447639444256             3.285986247302387

                                               :  max(cpu_time)    wall_clock(cpu1)
  | Time for  dielectric calculation            :        0.000 s           0.000 s
===========================================================================

------------------------------------------------------------------------------
  Final output of selected total energy values:

  The following output summarizes some interesting total energy values
  at the end of a run (AFTER all relaxation, molecular dynamics, etc.).

  | Total energy of the DFT / Hartree-Fock s.c.f. calculation      :         -83267.552055326 eV
  | Final zero-broadening corrected energy (caution - metals only) :         -83267.552055326 eV
  | For reference only, the value of 1 Hartree used in FHI-aims is :             27.211384500 eV
  | For reference only, the overall average (free atom contribution
  | + realspace contribution) of the electrostatic potential after
  | s.c.f. convergence is                                          :             -7.700626246 eV

  Before relying on these values, please be sure to understand exactly which
  total energy value is referred to by a given number. Different objects may
  all carry the same name 'total energy'. Definitions:

  Total energy of the DFT / Hartree-Fock s.c.f. calculation:
  | Note that this energy does not include ANY quantities calculated after the
  | s.c.f. cycle, in particular not ANY RPA, MP2, etc. many-body perturbation terms.

  Final zero-broadening corrected energy:
  | For metallic systems only, a broadening of the occupation numbers at the Fermi
  | level can be extrapolated back to zero broadening by an electron-gas inspired
  | formula. For all systems that are not real metals, this value can be
  | meaningless and should be avoided.

------------------------------------------------------------------------------
  Methods described in the following list of references were used in this FHI-aims run.
  If you publish the results, please make sure to cite these reference if they apply.
  FHI-aims is an academic code, and for our developers (often, Ph.D. students
  and postdocs), scientific credit in the community is essential.
  Thank you for helping us!

  For any use of FHI-aims, please cite:

    Volker Blum, Ralf Gehrke, Felix Hanke, Paula Havu, Ville Havu,
    Xinguo Ren, Karsten Reuter, and Matthias Scheffler
    'Ab initio molecular simulations with numeric atom-centered orbitals'
    Computer Physics Communications 180, 2175-2196 (2009)
    http://doi.org/10.1016/j.cpc.2009.06.022


  For Hartree-Fock, hybrid functionals, or many-body perturbation theory used in your run, please cite:

    Xinguo Ren, Patrick Rinke, Volker Blum, Juergen Wieferink, Alex Tkatchenko,
    Andrea Sanfilippo, Karsten Reuter, and Matthias Scheffler,
    'Resolution-of-identity approach to Hartree-Fock, hybrid density functionals,
    RPA, MP2, and GW with numeric atom-centered orbital basis functions'
    New Journal of Physics 14, 053020 (2012).
    http://doi.org/10.1088/1367-2630/14/5/053020


  The provided symmetry information was generated with SPGlib:

    Atsushi Togo, Yusuke Seto, Dimitar Pashov
    SPGlib 1.7.3 obtained from http://spglib.sourceforge.net
    Copyright (C) 2008 Atsushi Togo


  The DFPT (perturbation by an electric field) part of the code was used.
  Here is the corresponding reference:

    Honghui Shang, Nathaniel Raimbault, Mariana Rossi,
    Christian Carbogno, Patrick Rinke and Matthias Scheffler,
    'All-Electron, Real-Space Perturbation Theory for Homogeneous
    Electric Fields: Theory, Implementation, and Application within dft'
    New Journal of Physics, 20(7):073040, 2018


  The ELSI infrastructure was used in your run to solve the Kohn-Sham electronic structure.
  Please check out http://elsi-interchange.org to learn more.
  If scalability is important for your project, please acknowledge ELSI by citing:

    V. W-z. Yu, F. Corsetti, A. Garcia, W. P. Huhn, M. Jacquelin, W. Jia,
    B. Lange, L. Lin, J. Lu, W. Mi, A. Seifitokaldani, A. Vazquez-Mayagoitia,
    C. Yang, H. Yang, and V. Blum
    'ELSI: A unified software interface for Kohn-Sham electronic structure solvers'
    Computer Physics Communications 222, 267-285 (2018).
    http://doi.org/10.1016/j.cpc.2017.09.007


  For the real-space grid partitioning and parallelization used in this calculation, please cite:

    Ville Havu, Volker Blum, Paula Havu, and Matthias Scheffler,
    'Efficient O(N) integration for all-electron electronic structure calculation'
    'using numerically tabulated basis functions'
    Journal of Computational Physics 228, 8367-8379 (2009).
    http://doi.org/10.1016/j.jcp.2009.08.008


  The high-level electronic structure method used in your calculation
  employed our efficient localized resolution of identity for the Coulomb operator.
  Some calculations, especially large-scale hybrid density functional theory,
  are only possible thanks to this development. For this feature, please cite:

    Arvid Ihrig, Juergen Wieferink, Igor Ying Zhang, Matti Ropo, Xinguo Ren,
    Patrick Rinke, Matthias Scheffler, and Volker Blum,
    'Accurate localized resolution of identity approach for linear-scaling
    hybrid density functionals and for many-body perturbation theory'
    New Journal of Physics 117, 093020 (2015).
    http://doi.org/10.1088/1367-2630/17/9/093020

  Of course, there are many other important community references, e.g., those cited in the
  above references. Our list is limited to references that describe implementations in the
  FHI-aims code. The reason is purely practical (length of this list) - please credit others as well.

------------------------------------------------------------
          Leaving FHI-aims.
          Date     :  20230119, Time     :  194006.667

          Computational steps:
          | Number of self-consistency cycles          :           47
          | Number of SCF (re)initializations          :            1
          | Number of coupled perturbed self-consistency cycles          :            0
          | Number of CPSCF (re)initializations          :            0

          Detailed time accounting                     :  max(cpu_time)    wall_clock(cpu1)
          | Total time                                  :     1444.276 s        1455.858 s
          | GPU initialization                          :        2.012 s          12.249 s
          | Preparation time                            :        0.077 s           0.070 s
          | Boundary condition initalization            :        1.013 s           1.014 s
          | Grid partitioning                           :        1.258 s           1.259 s
          | Preloading free-atom quantities on grid     :        4.025 s           4.025 s
          | Free-atom superposition energy              :        0.521 s           0.521 s
          | Total time for integrations                 :       18.274 s          18.577 s
          | Product basis setup: Total time             :        0.000 s           0.000 s
          | Product basis: | 2-center integrations     :(       0.000 s)  (       0.000 s)
          | Product basis: | LVL 3-center & coefficient:(       0.000 s)  (       0.000 s)
          | Total time for solution of K.-S. equations  :        3.476 s           3.476 s
          | Total time for density update               :       13.236 s          13.779 s
          | Total time for mixing & preconditioning     :       12.246 s          12.251 s
          | Total time for Hartree multipole update     :        0.098 s           0.099 s
          | Total time for Hartree multipole sum        :       43.977 s          43.986 s
          | Total time for total energy evaluation      :        0.006 s           0.003 s
          | Total time first_order_DM                   :        1.977 s           1.973 s
          | Total time first_order_density              :      296.692 s         296.770 s
          | Total time first_order_potential            :      121.404 s         121.439 s
          | Total time first_order_H                    :      566.354 s         566.512 s
          | Total time solving of Sternheimer equations :        1.848 s           1.850 s
          | Total time for dielectric constant          :        0.000 s           0.000 s
          | Total time momentum matrix                  :        0.000 s           0.000 s

          GPU acceleration has been used for charge density update.
          GPU acceleration has been used for real-space Hamiltonian integration.
          Due to GPU usage, wall_clock(cpu1) will give a more reliable estimate for timings.

          Partial memory accounting:
          | Residual value for overall tracked memory usage across tasks:     1.234863 MB (should be 0.000000 MB)
          |
          | Largest tracked array allocation:
          |   Minimum:      103.210 MB (DFPT_pulay_mixing::initialize_pulay_mixing::X_in_diffs on task  0)
          |   Maximum:      103.210 MB (DFPT_pulay_mixing::initialize_pulay_mixing::X_in_diffs on task  0)
          |   Average:      103.210 MB
          |
          | Because the residual tracked memory usage was not zero, the peak value for overall
          | tracked memory usage was not output, as it is probably incorrect.  This is likely due
          | to a missing aims_deallocate statement in the source code, which should be otherwise
          | harmless.
          |
          Note:  These values currently only include a subset of arrays which are explicitly tracked.
          The "true" memory usage will be greater.

          Have a nice day.
------------------------------------------------------------
