------------------------------------------------------------
          Invoking FHI-aims ...

          When using FHI-aims, please cite the following reference:

            Volker Blum, Ralf Gehrke, Felix Hanke, Paula Havu,
            Ville Havu, Xinguo Ren, Karsten Reuter, and Matthias Scheffler,
            'Ab Initio Molecular Simulations with Numeric Atom-Centered Orbitals',
            Computer Physics Communications 180, 2175-2196 (2009)

          In addition, many other developments in FHI-aims are likely important for
          your particular application. A partial list of references is given at the end of
          this file. Thank you for giving credit to the authors of these developments.

          For any questions about FHI-aims, please visit our slack channel at

            https://fhi-aims.slack.com

          and our main development and support site at

            https://aims-git.rz-berlin.mpg.de .

          The latter site, in particular, has a wiki to collect information, as well
          as an issue tracker to log discussions, suggest improvements, and report issues
          or bugs. https://aims-git.rz-berlin.mpg.de is also the main development site
          of the project and all new and updated code versions can be obtained there.
          Please send an email to aims-coordinators@fhi-berlin.mpg.de and we will add
          you to these sites. They are for you and everyone is welcome there.

------------------------------------------------------------



  Date     :  20230119, Time     :  154454.204
  Time zero on CPU 1             :   0.782236000000000E+00  s.
  Internal wall clock time zero  :           443375094.204  s.

  FHI-aims created a unique identifier for this run for later identification
  aims_uuid : B6E95069-617D-4CD7-AF15-FD97297F392D

  Build configuration of the current instance of FHI-aims
  -------------------------------------------------------
  FHI-aims version      : 220829
  Commit number         : 9895fc21d
  CMake host system     : Linux-5.3.18-150300.59.68-default
  CMake version         : 3.17.0
  Fortran compiler      : /mpcdf/soft/SLE_15/packages/x86_64/intel_oneapi/2021.3/mpi/2021.3.0/bin/mpiifort (Intel) version 20.2.3.20210609
  Fortran compiler flags: -O3 -ip -fp-model precise
  C compiler            : /mpcdf/soft/SLE_15/packages/x86_64/intel/2021.3.0/bin/icc (Intel) version 20.2.3.20210609
  C compiler flags      : -O3 -ip -fp-model precise -std=gnu99
  CUDA compiler         : /mpcdf/soft/SLE_15/packages/x86_64/cuda/11.6.2/bin/nvcc
  CUDA compiler flags   : -O3 -DAdd_ -lcublas
  ELPA2 kernel          : AVX512
  Using MPI
  Using ScaLAPACK
  Using LibXC
  Using CUDA
  Using i-PI
  Using RLSY
  Linking against: /mpcdf/soft/SLE_15/packages/x86_64/cuda/11.6.2/lib64/libcublas.so
                   /mpcdf/soft/SLE_15/packages/x86_64/cuda/11.6.2/lib64/libcudart.so
                   /mpcdf/soft/SLE_15/packages/x86_64/intel_oneapi/2021.3/mkl/latest/lib/intel64/libmkl_intel_lp64.so
                   /mpcdf/soft/SLE_15/packages/x86_64/intel_oneapi/2021.3/mkl/latest/lib/intel64/libmkl_sequential.so
                   /mpcdf/soft/SLE_15/packages/x86_64/intel_oneapi/2021.3/mkl/latest/lib/intel64/libmkl_core.so
                   /mpcdf/soft/SLE_15/packages/x86_64/intel_oneapi/2021.3/mkl/latest/lib/intel64/libmkl_blacs_intelmpi_lp64.so
                   /mpcdf/soft/SLE_15/packages/x86_64/intel_oneapi/2021.3/mkl/latest/lib/intel64/libmkl_scalapack_lp64.so

  Using       18 parallel tasks.
  Task        0 on host adag009 reporting.
  Task        1 on host adag009 reporting.
  Task        2 on host adag009 reporting.
  Task        3 on host adag009 reporting.
  Task        4 on host adag009 reporting.
  Task        5 on host adag009 reporting.
  Task        6 on host adag009 reporting.
  Task        7 on host adag009 reporting.
  Task        8 on host adag009 reporting.
  Task        9 on host adag009 reporting.
  Task       10 on host adag009 reporting.
  Task       11 on host adag009 reporting.
  Task       12 on host adag009 reporting.
  Task       13 on host adag009 reporting.
  Task       14 on host adag009 reporting.
  Task       15 on host adag009 reporting.
  Task       16 on host adag009 reporting.
  Task       17 on host adag009 reporting.

  Performing system and environment tests:
  | Environment variable OMP_NUM_THREADS correctly set to 1.
  | Checking for ScaLAPACK...
  | Testing pdtran()...
  | All pdtran() tests passed.

  Obtaining array dimensions for all initial allocations:
  
  -----------------------------------------------------------------------
  Parsing control.in (first pass over file, find array dimensions only).
  The contents of control.in will be repeated verbatim below
  unless switched off by setting 'verbatim_writeout .false.' .
  in the first line of control.in .
  -----------------------------------------------------------------------
  
  #
  # Input for polarizability replays on generic oligoacene molecular crystals (light settings,  LDA+MBD).
  #
  #########################################################################################
  #
  #  Physical model
  #
    xc                 pw-lda
    spin               none
    relativistic       none
    charge             0.0
    k_grid 	     2 1 1
    DFPT dielectric
  #
  #  GPU acceleration
  #
  # Turns on GPU acceleration everywhere
    use_gpu
  
  # Turns OFF GPU acceleration of ELPA - may be necessary if GPU ELPA is slow
    elsi_elpa_gpu 0
  #
  #  Relaxation
  #
  #  relax_geometry trm 1E-3
  #  relax_unit_cell fixed_angles
  #
  #  SCF convergence        #
    charge_mix_param   0.75
    #sc_accuracy_rho 1E-4
  #
  # i-PI communication
  #
  compute_forces .false.
  # use_pimd_wrapper 130.183.223.27 26118
  #communicate_pimd_wrapper polarizability
  #output_level MD_light
  #
  # Output SALTED info
    ri_density_restart write
    ri_rho1 write
    ri_full_output .true.
  #  sc_accuracy_rho    1d-6
    default_prodbas_acc 1e-6
    default_max_l_prodbas 6
  #
  #
  ################################################################################
  #
  #  FHI-aims code project
  #  VB, Fritz-Haber Institut, 2009
  #
  #  Suggested "light" defaults for H atom (to be pasted into control.in file)
  #  Be sure to double-check any results obtained with these settings for post-processing,
  #  e.g., with the "tight" defaults and larger basis sets.
  #
  ################################################################################
    species        H
  #     global species definitions
      nucleus             1
      mass                1.00794
  #
      l_hartree           4
  #
      cut_pot             3.5  1.5  1.0
      basis_dep_cutoff    1e-4
  #
      radial_base         24 5.0
      radial_multiplier   1
      angular_grids       specified
        division   0.2421   50
        division   0.3822  110
        division   0.4799  194
        division   0.5341  302
  #      division   0.5626  434
  #      division   0.5922  590
  #      division   0.6542  770
  #      division   0.6868 1202
  #      outer_grid  770
        outer_grid  302
  ################################################################################
  #
  #  Definition of "minimal" basis
  #
  ################################################################################
  #     valence basis states
      valence      1  s   1.
  #     ion occupancy
      ion_occ      1  s   0.5
  ################################################################################
  #
  #  Suggested additional basis functions. For production calculations,
  #  uncomment them one after another (the most important basis functions are
  #  listed first).
  #
  #  Basis constructed for dimers: 0.5 A, 0.7 A, 1.0 A, 1.5 A, 2.5 A
  #
  ################################################################################
  #  "First tier" - improvements: -1014.90 meV to -62.69 meV
       hydro 2 s 2.1
       hydro 2 p 3.5
  #  "Second tier" - improvements: -12.89 meV to -1.83 meV
  #     hydro 1 s 0.85
  #     hydro 2 p 3.7
  #     hydro 2 s 1.2
  #     hydro 3 d 7
  #  "Third tier" - improvements: -0.25 meV to -0.12 meV
  #     hydro 4 f 11.2
  #     hydro 3 p 4.8
  #     hydro 4 d 9
  #     hydro 3 s 3.2
  ################################################################################
  ################################################################################
  #
  #  FHI-aims code project
  #  VB, Fritz-Haber Institut, 2009
  #
  #  Suggested "light" defaults for C atom (to be pasted into control.in file)
  #  Be sure to double-check any results obtained with these settings for post-processing,
  #  e.g., with the "tight" defaults and larger basis sets.
  #
  ################################################################################
    species        C
  #     global species definitions
      nucleus             6
      mass                12.0107
  #
      l_hartree           4
  #
      cut_pot             3.5  1.5  1.0
      basis_dep_cutoff    1e-4
  #
      radial_base         34 5.0
      radial_multiplier   1
      angular_grids specified
        division   0.3326   50
        division   0.5710  110
        division   0.7727  194
        division   0.8772  302
  #      division   0.9334  434
  #      division   0.9625  590
  #      division   0.9924  770
  #      division   1.0230  974
  #      division   1.4589 1202
  #     outer_grid  974
       outer_grid 302
  ################################################################################
  #
  #  Definition of "minimal" basis
  #
  ################################################################################
  #     valence basis states
      valence      2  s   2.
      valence      2  p   2.
  #     ion occupancy
      ion_occ      2  s   1.
      ion_occ      2  p   1.
  ################################################################################
  #
  #  Suggested additional basis functions. For production calculations,
  #  uncomment them one after another (the most important basis functions are
  #  listed first).
  #
  #  Constructed for dimers: 1.0 A, 1.25 A, 1.5 A, 2.0 A, 3.0 A
  #
  ################################################################################
  #  "First tier" - improvements: -1214.57 meV to -155.61 meV
       hydro 2 p 1.7
       hydro 3 d 6
       hydro 2 s 4.9
  #  "Second tier" - improvements: -67.75 meV to -5.23 meV
  #     hydro 4 f 9.8
  #     hydro 3 p 5.2
  #     hydro 3 s 4.3
  #     hydro 5 g 14.4
  #     hydro 3 d 6.2
  #  "Third tier" - improvements: -2.43 meV to -0.60 meV
  #     hydro 2 p 5.6
  #     hydro 2 s 1.4
  #     hydro 3 d 4.9
  #     hydro 4 f 11.2
  #  "Fourth tier" - improvements: -0.39 meV to -0.18 meV
  #     hydro 2 p 2.1
  #     hydro 5 g 16.4
  #     hydro 4 d 13.2
  #     hydro 3 s 13.6
  #     hydro 4 f 17.6
  #  Further basis functions - improvements: -0.08 meV and below
  #     hydro 3 s 2
  #     hydro 3 p 6
  #     hydro 4 d 20
  
  -----------------------------------------------------------------------
  Completed first pass over input file control.in .
  -----------------------------------------------------------------------
  
  
  -----------------------------------------------------------------------
  Parsing geometry.in (first pass over file, find array dimensions only).
  The contents of geometry.in will be repeated verbatim below
  unless switched off by setting 'verbatim_writeout .false.' .
  in the first line of geometry.in .
  -----------------------------------------------------------------------
  
  #=======================================================
  # FHI-aims file: /ada/ptmp/mpsd/alewis/naphthalene/qmdata/data/geoms/9.in
  # Created using the Atomic Simulation Environment (ASE)
  # Thu Jan 19 15:19:16 2023
  #=======================================================
  lattice_vector 8.1020000000000003 0.0000000000000000 0.0000000000000000
  lattice_vector 0.0000000000000000 11.8800000000000008 0.0000000000000000
  lattice_vector -9.7850918486534706 0.0000000000000000 14.2571119625755713
  atom -0.8398640000000001 -0.0940178000000000 2.3746999999999998 C
  atom 0.2422670000000000 3.0754400000000000 4.8031600000000001 C
  atom 4.2296699999999996 5.9329099999999997 4.8180800000000001 C
  atom 3.2468400000000002 2.7351200000000002 2.4749599999999998 C
  atom -0.0894516000000000 0.8208970000000000 1.6620800000000000 C
  atom -0.5514559999999999 3.9426600000000001 5.5264600000000002 C
  atom 3.4700500000000001 5.0647700000000002 5.5762700000000001 C
  atom 3.9796499999999999 1.8472299999999999 1.6679999999999999 C
  atom 0.2912720000000000 0.6097230000000000 0.2854420000000000 C
  atom -0.9221240000000001 3.6243500000000002 6.8644100000000003 C
  atom 3.1366499999999999 5.3238099999999999 6.9163300000000003 C
  atom 4.3607399999999998 2.2319499999999999 0.3663020000000000 C
  atom -3.8261200000000000 1.3413400000000000 6.7616100000000001 C
  atom 3.2017400000000000 4.4289800000000001 0.6765090000000000 C
  atom 7.2059100000000003 4.5073800000000004 0.6147020000000000 C
  atom 0.2858480000000000 1.4657500000000001 6.6629600000000000 C
  atom -3.4043500000000000 1.0093399999999999 5.4960000000000004 C
  atom 2.8648099999999999 4.0534600000000003 1.9981400000000000 C
  atom 6.8442299999999996 4.9085700000000001 1.8829300000000000 C
  atom 0.6361500000000000 1.8163499999999999 5.3690499999999997 C
  atom -1.0607200000000001 0.0790031000000000 3.4231600000000002 H
  atom 0.5410170000000000 3.3010700000000002 3.7563900000000001 H
  atom 4.4260000000000002 5.6672700000000003 3.7791000000000001 H
  atom 3.0009700000000001 2.4692200000000000 3.4710100000000002 H
  atom 0.2180490000000000 1.7825500000000001 2.0745700000000000 H
  atom -0.8658680000000000 4.9144699999999997 5.1098999999999997 H
  atom 3.1119400000000002 4.1256899999999996 5.1150700000000002 H
  atom 4.2598799999999999 0.8570240000000000 2.0327999999999999 H
  atom -3.5024899999999999 2.3300600000000000 7.1343800000000002 H
  atom 2.9289299999999998 5.4108900000000002 0.2966550000000000 H
  atom 6.8547700000000003 3.5394100000000002 0.2127300000000000 H
  atom 0.6782810000000000 0.5382280000000000 7.0747900000000001 H
  atom -2.7912499999999998 1.6695800000000001 4.8569399999999998 H
  atom 2.2557999999999998 4.7153499999999999 2.6279100000000000 H
  atom 6.2464000000000004 4.2006600000000001 2.4871400000000001 H
  atom 1.1509199999999999 1.1121399999999999 4.7292800000000002 H
  atom -5.9074299999999997 0.1046720000000000 9.5789600000000004 C
  atom -4.7424499999999998 3.0396999999999998 12.0176999999999996 C
  atom -0.6606430000000000 5.8069300000000004 11.9421999999999997 C
  atom -1.6434599999999999 2.9576699999999998 9.5308899999999994 C
  atom -5.1198199999999998 0.9442580000000000 8.8279399999999999 C
  atom -5.4418300000000004 3.9238900000000001 12.8047000000000004 C
  atom -1.3553200000000001 4.9388800000000002 12.7445000000000004 C
  atom -0.9221870000000000 2.0394100000000002 8.7816200000000002 C
  atom -4.6699099999999998 0.5433070000000000 7.5343700000000000 C
  atom -5.8136000000000001 3.5505300000000002 14.1193000000000008 C
  atom -1.7579499999999999 5.3063500000000001 14.0372000000000003 C
  atom -0.5007870000000000 2.3575599999999999 7.4690099999999999 C
  atom -8.7403700000000004 1.5589599999999999 13.8048000000000002 C
  atom -1.7057700000000000 4.5001600000000002 7.6586499999999997 C
  atom 2.4118800000000000 4.3960600000000003 7.7076599999999997 C
  atom -4.6695599999999997 1.3773700000000000 13.7676999999999996 C
  atom -8.3323900000000002 1.2600300000000000 12.5318000000000005 C
  atom -2.0649700000000002 4.1837099999999996 8.9853100000000001 C
  atom 2.0443099999999998 4.7443900000000001 8.9817199999999993 C
  atom -4.2970300000000003 1.8002700000000000 12.5239999999999991 C
  atom -6.3277900000000002 0.4198560000000000 10.5391999999999992 H
  atom -4.4548300000000003 3.2942800000000001 10.9974000000000007 H
  atom -0.3903520000000000 5.4954099999999997 10.9374000000000002 H
  atom -1.9943200000000001 2.6717300000000002 10.5147999999999993 H
  atom -4.8580100000000002 1.9667500000000000 9.1173300000000008 H
  atom -5.7706400000000002 4.8797199999999998 12.4202999999999992 H
  atom -1.6720699999999999 3.9408799999999999 12.4231999999999996 H
  atom -0.6179740000000000 1.0877900000000000 9.2024299999999997 H
  atom -8.4959199999999999 2.5147300000000001 14.2888000000000002 H
  atom -1.9620299999999999 5.4785500000000003 7.2474600000000002 H
  atom 2.1454800000000001 3.4597099999999998 7.2318899999999999 H
  atom -4.3180300000000003 0.4253930000000000 14.1534999999999993 H
  atom -7.7116899999999999 1.8820699999999999 11.9269999999999996 H
  atom -2.6412100000000001 4.8934600000000001 9.5549999999999997 H
  atom 1.4607800000000000 4.0842400000000003 9.6059900000000003 H
  atom -3.6303600000000000 1.1841900000000001 11.9413999999999998 H
  atom -0.8276760000000000 6.1848500000000000 2.3890099999999999 C
  atom 0.3492630000000000 9.0056899999999995 4.9045100000000001 C
  atom 4.2717000000000001 11.6516000000000002 4.9590500000000004 C
  atom 3.2553800000000002 8.6547300000000007 2.3854400000000000 C
  atom -0.0279185000000000 6.9886999999999997 1.5903700000000001 C
  atom -0.4444360000000000 9.9135200000000001 5.5928899999999997 C
  atom 3.4664899999999998 10.8300999999999998 5.7038099999999998 C
  atom 4.0209099999999998 7.8713800000000003 1.5492200000000000 C
  atom 0.3472300000000000 6.5778900000000000 0.2800720000000000 C
  atom -0.9288120000000000 9.5726800000000001 6.8858899999999998 C
  atom 3.0406000000000000 11.1649999999999991 7.0057099999999997 C
  atom 4.3758400000000002 8.2965000000000000 0.2513530000000000 C
  atom -3.7263299999999999 7.4743300000000001 6.6677200000000001 C
  atom 3.1273900000000001 10.3658999999999999 0.6342270000000000 C
  atom 7.2022500000000003 10.3369000000000000 0.4579960000000000 C
  atom 0.2191290000000000 7.4079300000000003 6.7589499999999996 C
  atom -3.3981100000000000 7.1665799999999997 5.3629499999999997 C
  atom 2.8591400000000000 9.9526500000000002 1.9107099999999999 C
  atom 6.8369799999999996 10.5937999999999999 1.7623700000000000 C
  atom 0.6386360000000000 7.7322300000000004 5.4706799999999998 C
  atom -1.1468100000000001 6.4585100000000004 3.3767800000000001 H
  atom 0.7492850000000000 9.2604799999999994 3.9134799999999998 H
  atom 4.5549900000000001 11.3998000000000008 3.9091700000000000 H
  atom 2.9474700000000000 8.2685999999999993 3.3280799999999999 H
  atom 0.2654430000000000 7.9642600000000003 1.9571200000000000 H
  atom -0.6121990000000000 10.8768999999999991 5.1520200000000003 H
  atom 3.1287900000000000 9.8456600000000005 5.2904799999999996 H
  atom 4.3671600000000002 6.8669799999999999 1.8144100000000001 H
  atom -3.3962599999999998 8.4112700000000000 7.0914799999999998 H
  atom 2.8338700000000001 11.3803999999999998 0.3337770000000000 H
  atom 6.8532299999999999 9.4211399999999994 -0.0365864000000000 H
  atom 0.5582380000000000 6.4716600000000000 7.2316799999999999 H
  atom -2.8124600000000002 7.8637899999999998 4.7463899999999999 H
  atom 2.3110900000000001 10.6207999999999991 2.5904199999999999 H
  atom 6.2508900000000001 9.8145399999999992 2.3277600000000001 H
  atom 1.3217500000000000 7.0488799999999996 4.9635199999999999 H
  atom -5.6276700000000002 5.9906499999999996 9.5371699999999997 C
  atom -4.8294499999999996 9.1827799999999993 11.8865999999999996 C
  atom -0.6544050000000000 11.8876000000000008 11.9312000000000005 C
  atom -1.8128400000000000 9.0028299999999994 9.4840400000000002 C
  atom -4.9218500000000001 6.9079600000000001 8.7913899999999998 C
  atom -5.5810500000000003 9.9632799999999992 12.7215000000000007 C
  atom -1.4422999999999999 10.9977999999999998 12.6334000000000000 C
  atom -1.0468100000000000 8.0771300000000004 8.8264899999999997 C
  atom -4.5453700000000001 6.5944200000000004 7.4461500000000003 C
  atom -5.8937700000000000 9.5572900000000001 14.0312999999999999 C
  atom -1.8599800000000000 11.2780000000000005 13.9496000000000002 C
  atom -0.5725320000000000 8.3345699999999994 7.5023200000000001 C
  atom -8.6610300000000002 7.4574100000000003 13.6815999999999995 C
  atom -1.7813900000000000 10.4831000000000003 7.5866199999999999 C
  atom 2.2235999999999998 10.2967999999999993 7.7917800000000002 C
  atom -4.6023399999999999 7.5364000000000004 13.6486999999999998 C
  atom -8.3060899999999993 7.0492800000000004 12.4179999999999993 C
  atom -2.2244999999999999 10.2219999999999995 8.8600600000000007 C
  atom 1.7881700000000000 10.7414000000000005 9.0187799999999996 C
  atom -4.2851699999999999 7.9515399999999996 12.3665000000000003 C
  atom -5.8780900000000003 6.1867000000000001 10.5775000000000006 H
  atom -4.5125099999999998 9.5622699999999998 10.9135000000000009 H
  atom -0.3668770000000000 11.7462000000000000 10.8879999999999999 H
  atom -2.2455900000000000 8.7918199999999995 10.4748999999999999 H
  atom -4.5696899999999996 7.8236299999999996 9.2751000000000001 H
  atom -5.9805099999999998 10.9315999999999995 12.3983000000000008 H
  atom -1.8193699999999999 10.0827000000000009 12.1085999999999991 H
  atom -0.7612730000000000 7.1402000000000001 9.3192199999999996 H
  atom -8.3354999999999997 8.4335799999999992 14.0622000000000007 H
  atom -2.0260300000000000 11.4240999999999993 7.0851300000000004 H
  atom 1.9005700000000001 9.3488199999999999 7.3326799999999999 H
  atom -4.1788400000000001 6.6198699999999997 14.0673999999999992 H
  atom -7.6722000000000001 7.6706200000000004 11.7971000000000004 H
  atom -2.9290099999999999 10.9412000000000003 9.3235700000000001 H
  atom 1.0537300000000001 10.0680999999999994 9.5164600000000004 H
  atom -3.5308199999999998 7.3831499999999997 11.7904000000000000 H
  
  -----------------------------------------------------------------------
  Completed first pass over input file geometry.in .
  -----------------------------------------------------------------------
  

  Basic array size parameters:
  | Number of species                 :        2
  | Number of atoms                   :      144
  | Number of lattice vectors         :        3
  | Max. basis fn. angular momentum   :        2
  | Max. atomic/ionic basis occupied n:        2
  | Max. number of basis fn. types    :        2
  | Max. radial fns per species/type  :        3
  | Max. logarithmic grid size        :     1277
  | Max. radial integration grid size :       34
  | Max. angular integration grid size:      302
  | Max. angular grid division number :        8
  | Radial grid for Hartree potential :     1277
  | Number of spin channels           :        1

------------------------------------------------------------
          Reading file control.in.
------------------------------------------------------------
  XC: Using Perdew-Wang parametrisation of Ceperley-Alder LDA.
  Spin treatment: No spin polarisation.
  Non-relativistic treatment of kinetic energy.
  Charge =   0.000000E+00: Neutral system requested explicitly.
  Found k-point grid:         2         1         1
  DFPT calculation will begin after the DFT/HF calculation.
  Charge density mixing - mixing parameter:     0.7500
  Forces will not be computed.
 
  Reading configuration options for species H                   .
  | Found nuclear charge :   1.0000
  | Found atomic mass :    1.00794000000000      amu
  | Found l_max for Hartree potential  :   4
  | Found cutoff potl. onset [A], width [A], scale factor :    3.50000    1.50000    1.00000
  | Threshold for basis-dependent cutoff potential is   0.100000E-03
  | Found data for basic radial integration grid :    24 points, outermost radius =    5.000 A
  | Found multiplier for basic radial grid :   1
  | Found angular grid specification: user-specified.
  | Specified grid contains     5 separate shells.
  | Check grid settings after all constraints further below.
  | Found free-atom valence shell :  1 s   1.000
  | No ionic wave fns used. Skipping ion_occ.
  | Found hydrogenic basis function :  2 s   2.100
  | Found hydrogenic basis function :  2 p   3.500
  Species H                   : Missing cutoff potential type.
  Defaulting to exp(1/x)/(1-x)^2 type cutoff potential.
  Species H : No 'logarithmic' tag. Using default grid for free atom:
  | Default logarithmic grid data [bohr] : 0.1000E-03 0.1000E+03 0.1012E+01
  Species H : On-site basis accuracy parameter (for Gram-Schmidt orthonormalisation) not specified.
  Using default value basis_acc =  0.1000000E-03.
  Species H                   : Using default innermost maximum threshold i_radial=  2 for radial functions.
  Species H                   : Default cutoff onset for free atom density etc. : 0.35000000E+01 AA.
  Species H                   : Basic radial grid will be enhanced according to radial_multiplier =   1, to contain    24 grid points.
 
  Reading configuration options for species C                   .
  | Found nuclear charge :   6.0000
  | Found atomic mass :    12.0107000000000      amu
  | Found l_max for Hartree potential  :   4
  | Found cutoff potl. onset [A], width [A], scale factor :    3.50000    1.50000    1.00000
  | Threshold for basis-dependent cutoff potential is   0.100000E-03
  | Found data for basic radial integration grid :    34 points, outermost radius =    5.000 A
  | Found multiplier for basic radial grid :   1
  | Found angular grid specification: user-specified.
  | Specified grid contains     5 separate shells.
  | Check grid settings after all constraints further below.
  | Found free-atom valence shell :  2 s   2.000
  | Found free-atom valence shell :  2 p   2.000
  | No ionic wave fns used. Skipping ion_occ.
  | No ionic wave fns used. Skipping ion_occ.
  | Found hydrogenic basis function :  2 p   1.700
  | Found hydrogenic basis function :  3 d   6.000
  | Found hydrogenic basis function :  2 s   4.900
  Species C                   : Missing cutoff potential type.
  Defaulting to exp(1/x)/(1-x)^2 type cutoff potential.
  Species C : No 'logarithmic' tag. Using default grid for free atom:
  | Default logarithmic grid data [bohr] : 0.1000E-03 0.1000E+03 0.1012E+01
  Species C : On-site basis accuracy parameter (for Gram-Schmidt orthonormalisation) not specified.
  Using default value basis_acc =  0.1000000E-03.
  Species C                   : Using default innermost maximum threshold i_radial=  2 for radial functions.
  Species C                   : Default cutoff onset for free atom density etc. : 0.35000000E+01 AA.
  Species C                   : Basic radial grid will be enhanced according to radial_multiplier =   1, to contain    34 grid points.
 
  Finished reading input file 'control.in'.
 
------------------------------------------------------------


------------------------------------------------------------
          Reading geometry description geometry.in.
------------------------------------------------------------
  | The smallest distance between any two atoms is         1.05984455 AA.
  | The first atom of this pair is atom number                      4 .
  | The second atom of this pair is atom number                    24 .
  | Wigner-Seitz cell of the first atom image           0     0     0 .
  | (The Wigner-Seitz cell of the second atom is 0 0 0  by definition.)

  Symmetry information by spglib:
  | Precision set to  0.1E-04
  | Number of Operations  : 1
  | Space group           : 1
  | International         : P1
  | Schoenflies           : C1^1
  Input structure read successfully.
  The structure contains      144 atoms,  and a total of        544.000 electrons.

  Input geometry:
  | Unit cell:
  |        8.10200000        0.00000000        0.00000000
  |        0.00000000       11.88000000        0.00000000
  |       -9.78509185        0.00000000       14.25711196
  | Atomic structure:
  |       Atom                x [A]            y [A]            z [A]
  |    1: Species C            -0.83986400       -0.09401780        2.37470000
  |    2: Species C             0.24226700        3.07544000        4.80316000
  |    3: Species C             4.22967000        5.93291000        4.81808000
  |    4: Species C             3.24684000        2.73512000        2.47496000
  |    5: Species C            -0.08945160        0.82089700        1.66208000
  |    6: Species C            -0.55145600        3.94266000        5.52646000
  |    7: Species C             3.47005000        5.06477000        5.57627000
  |    8: Species C             3.97965000        1.84723000        1.66800000
  |    9: Species C             0.29127200        0.60972300        0.28544200
  |   10: Species C            -0.92212400        3.62435000        6.86441000
  |   11: Species C             3.13665000        5.32381000        6.91633000
  |   12: Species C             4.36074000        2.23195000        0.36630200
  |   13: Species C            -3.82612000        1.34134000        6.76161000
  |   14: Species C             3.20174000        4.42898000        0.67650900
  |   15: Species C             7.20591000        4.50738000        0.61470200
  |   16: Species C             0.28584800        1.46575000        6.66296000
  |   17: Species C            -3.40435000        1.00934000        5.49600000
  |   18: Species C             2.86481000        4.05346000        1.99814000
  |   19: Species C             6.84423000        4.90857000        1.88293000
  |   20: Species C             0.63615000        1.81635000        5.36905000
  |   21: Species H            -1.06072000        0.07900310        3.42316000
  |   22: Species H             0.54101700        3.30107000        3.75639000
  |   23: Species H             4.42600000        5.66727000        3.77910000
  |   24: Species H             3.00097000        2.46922000        3.47101000
  |   25: Species H             0.21804900        1.78255000        2.07457000
  |   26: Species H            -0.86586800        4.91447000        5.10990000
  |   27: Species H             3.11194000        4.12569000        5.11507000
  |   28: Species H             4.25988000        0.85702400        2.03280000
  |   29: Species H            -3.50249000        2.33006000        7.13438000
  |   30: Species H             2.92893000        5.41089000        0.29665500
  |   31: Species H             6.85477000        3.53941000        0.21273000
  |   32: Species H             0.67828100        0.53822800        7.07479000
  |   33: Species H            -2.79125000        1.66958000        4.85694000
  |   34: Species H             2.25580000        4.71535000        2.62791000
  |   35: Species H             6.24640000        4.20066000        2.48714000
  |   36: Species H             1.15092000        1.11214000        4.72928000
  |   37: Species C            -5.90743000        0.10467200        9.57896000
  |   38: Species C            -4.74245000        3.03970000       12.01770000
  |   39: Species C            -0.66064300        5.80693000       11.94220000
  |   40: Species C            -1.64346000        2.95767000        9.53089000
  |   41: Species C            -5.11982000        0.94425800        8.82794000
  |   42: Species C            -5.44183000        3.92389000       12.80470000
  |   43: Species C            -1.35532000        4.93888000       12.74450000
  |   44: Species C            -0.92218700        2.03941000        8.78162000
  |   45: Species C            -4.66991000        0.54330700        7.53437000
  |   46: Species C            -5.81360000        3.55053000       14.11930000
  |   47: Species C            -1.75795000        5.30635000       14.03720000
  |   48: Species C            -0.50078700        2.35756000        7.46901000
  |   49: Species C            -8.74037000        1.55896000       13.80480000
  |   50: Species C            -1.70577000        4.50016000        7.65865000
  |   51: Species C             2.41188000        4.39606000        7.70766000
  |   52: Species C            -4.66956000        1.37737000       13.76770000
  |   53: Species C            -8.33239000        1.26003000       12.53180000
  |   54: Species C            -2.06497000        4.18371000        8.98531000
  |   55: Species C             2.04431000        4.74439000        8.98172000
  |   56: Species C            -4.29703000        1.80027000       12.52400000
  |   57: Species H            -6.32779000        0.41985600       10.53920000
  |   58: Species H            -4.45483000        3.29428000       10.99740000
  |   59: Species H            -0.39035200        5.49541000       10.93740000
  |   60: Species H            -1.99432000        2.67173000       10.51480000
  |   61: Species H            -4.85801000        1.96675000        9.11733000
  |   62: Species H            -5.77064000        4.87972000       12.42030000
  |   63: Species H            -1.67207000        3.94088000       12.42320000
  |   64: Species H            -0.61797400        1.08779000        9.20243000
  |   65: Species H            -8.49592000        2.51473000       14.28880000
  |   66: Species H            -1.96203000        5.47855000        7.24746000
  |   67: Species H             2.14548000        3.45971000        7.23189000
  |   68: Species H            -4.31803000        0.42539300       14.15350000
  |   69: Species H            -7.71169000        1.88207000       11.92700000
  |   70: Species H            -2.64121000        4.89346000        9.55500000
  |   71: Species H             1.46078000        4.08424000        9.60599000
  |   72: Species H            -3.63036000        1.18419000       11.94140000
  |   73: Species C            -0.82767600        6.18485000        2.38901000
  |   74: Species C             0.34926300        9.00569000        4.90451000
  |   75: Species C             4.27170000       11.65160000        4.95905000
  |   76: Species C             3.25538000        8.65473000        2.38544000
  |   77: Species C            -0.02791850        6.98870000        1.59037000
  |   78: Species C            -0.44443600        9.91352000        5.59289000
  |   79: Species C             3.46649000       10.83010000        5.70381000
  |   80: Species C             4.02091000        7.87138000        1.54922000
  |   81: Species C             0.34723000        6.57789000        0.28007200
  |   82: Species C            -0.92881200        9.57268000        6.88589000
  |   83: Species C             3.04060000       11.16500000        7.00571000
  |   84: Species C             4.37584000        8.29650000        0.25135300
  |   85: Species C            -3.72633000        7.47433000        6.66772000
  |   86: Species C             3.12739000       10.36590000        0.63422700
  |   87: Species C             7.20225000       10.33690000        0.45799600
  |   88: Species C             0.21912900        7.40793000        6.75895000
  |   89: Species C            -3.39811000        7.16658000        5.36295000
  |   90: Species C             2.85914000        9.95265000        1.91071000
  |   91: Species C             6.83698000       10.59380000        1.76237000
  |   92: Species C             0.63863600        7.73223000        5.47068000
  |   93: Species H            -1.14681000        6.45851000        3.37678000
  |   94: Species H             0.74928500        9.26048000        3.91348000
  |   95: Species H             4.55499000       11.39980000        3.90917000
  |   96: Species H             2.94747000        8.26860000        3.32808000
  |   97: Species H             0.26544300        7.96426000        1.95712000
  |   98: Species H            -0.61219900       10.87690000        5.15202000
  |   99: Species H             3.12879000        9.84566000        5.29048000
  |  100: Species H             4.36716000        6.86698000        1.81441000
  |  101: Species H            -3.39626000        8.41127000        7.09148000
  |  102: Species H             2.83387000       11.38040000        0.33377700
  |  103: Species H             6.85323000        9.42114000       -0.03658640
  |  104: Species H             0.55823800        6.47166000        7.23168000
  |  105: Species H            -2.81246000        7.86379000        4.74639000
  |  106: Species H             2.31109000       10.62080000        2.59042000
  |  107: Species H             6.25089000        9.81454000        2.32776000
  |  108: Species H             1.32175000        7.04888000        4.96352000
  |  109: Species C            -5.62767000        5.99065000        9.53717000
  |  110: Species C            -4.82945000        9.18278000       11.88660000
  |  111: Species C            -0.65440500       11.88760000       11.93120000
  |  112: Species C            -1.81284000        9.00283000        9.48404000
  |  113: Species C            -4.92185000        6.90796000        8.79139000
  |  114: Species C            -5.58105000        9.96328000       12.72150000
  |  115: Species C            -1.44230000       10.99780000       12.63340000
  |  116: Species C            -1.04681000        8.07713000        8.82649000
  |  117: Species C            -4.54537000        6.59442000        7.44615000
  |  118: Species C            -5.89377000        9.55729000       14.03130000
  |  119: Species C            -1.85998000       11.27800000       13.94960000
  |  120: Species C            -0.57253200        8.33457000        7.50232000
  |  121: Species C            -8.66103000        7.45741000       13.68160000
  |  122: Species C            -1.78139000       10.48310000        7.58662000
  |  123: Species C             2.22360000       10.29680000        7.79178000
  |  124: Species C            -4.60234000        7.53640000       13.64870000
  |  125: Species C            -8.30609000        7.04928000       12.41800000
  |  126: Species C            -2.22450000       10.22200000        8.86006000
  |  127: Species C             1.78817000       10.74140000        9.01878000
  |  128: Species C            -4.28517000        7.95154000       12.36650000
  |  129: Species H            -5.87809000        6.18670000       10.57750000
  |  130: Species H            -4.51251000        9.56227000       10.91350000
  |  131: Species H            -0.36687700       11.74620000       10.88800000
  |  132: Species H            -2.24559000        8.79182000       10.47490000
  |  133: Species H            -4.56969000        7.82363000        9.27510000
  |  134: Species H            -5.98051000       10.93160000       12.39830000
  |  135: Species H            -1.81937000       10.08270000       12.10860000
  |  136: Species H            -0.76127300        7.14020000        9.31922000
  |  137: Species H            -8.33550000        8.43358000       14.06220000
  |  138: Species H            -2.02603000       11.42410000        7.08513000
  |  139: Species H             1.90057000        9.34882000        7.33268000
  |  140: Species H            -4.17884000        6.61987000       14.06740000
  |  141: Species H            -7.67220000        7.67062000       11.79710000
  |  142: Species H            -2.92901000       10.94120000        9.32357000
  |  143: Species H             1.05373000       10.06810000        9.51646000
  |  144: Species H            -3.53082000        7.38315000       11.79040000

  Lattice parameters for 3D lattice (in Angstroms) :     8.102000   11.880000   17.292000
  Angle(s) between unit vectors (in degrees)       :    90.000000  124.463000   90.000000


  Quantities derived from the lattice vectors (in Angstrom^-1):
  | Reciprocal lattice vector 1:  0.775510  0.000000  0.532257
  | Reciprocal lattice vector 2:  0.000000  0.528888  0.000000
  | Reciprocal lattice vector 3: -0.000000  0.000000  0.440705
  | Unit cell volume                               :   0.137227E+04  Angstrom^3

  Fractional coordinates:
                         L1                L2                L3
       atom_frac         0.09750250       -0.00791396        0.16656249  C
       atom_frac         0.43678383        0.25887542        0.33689572  C
       atom_frac         0.93019818        0.49940320        0.33794222  C
       atom_frac         0.61040246        0.23022896        0.17359476  C
       atom_frac         0.12975620        0.06909907        0.11657901  C
       atom_frac         0.40008917        0.33187374        0.38762829  C
       atom_frac         0.90066830        0.42632744        0.39112199  C
       atom_frac         0.63249190        0.15549074        0.11699424  C
       atom_frac         0.06013078        0.05132348        0.02002103  C
       atom_frac         0.46767841        0.30507997        0.48147269  C
       atom_frac         0.97303613        0.44813215        0.48511438  C
       atom_frac         0.56925997        0.18787458        0.02569258  C
       atom_frac         0.10054057        0.11290741        0.47426225  C
       atom_frac         0.45248689        0.37280976        0.04745063  C
       atom_frac         0.94147109        0.37940909        0.04311546  C
       atom_frac         0.59970886        0.12337963        0.46734290  C
       atom_frac         0.04538667        0.08496128        0.38549182  C
       atom_frac         0.52285788        0.34120034        0.14015040  C
       atom_frac         1.00426344        0.41317929        0.13206952  C
       atom_frac         0.53333660        0.15289141        0.37658749  C
       atom_frac         0.15905941        0.00665009        0.24010192  H
       atom_frac         0.38498424        0.27786785        0.26347482  H
       atom_frac         0.86641717        0.47704293        0.26506771  H
       atom_frac         0.66443227        0.20784680        0.24345814  H
       atom_frac         0.20265241        0.15004630        0.14551124  H
       atom_frac         0.32599514        0.41367593        0.35841060  H
       atom_frac         0.81739928        0.34728030        0.35877322  H
       atom_frac         0.69798232        0.07214007        0.14258147  H
       atom_frac         0.17206284        0.19613300        0.50040850  H
       atom_frac         0.38663705        0.45546212        0.02080751  H
       atom_frac         0.86407962        0.29793013        0.01492097  H
       atom_frac         0.68303205        0.04530539        0.49622883  H
       atom_frac         0.06692377        0.14053704        0.34066787  H
       atom_frac         0.50103863        0.39691498        0.18432274  H
       atom_frac         0.98165888        0.35359091        0.17444908  H
       atom_frac         0.54267705        0.09361448        0.33171374  H
       atom_frac         0.08231339        0.00881077        0.67187240  C
       atom_frac         0.43269130        0.25586700        0.84292668  C
       atom_frac         0.93009800        0.48879882        0.83763107  C
       atom_frac         0.60452743        0.24896212        0.66850075  C
       atom_frac         0.11590535        0.07948300        0.61919553  C
       atom_frac         0.41303717        0.33029377        0.89812720  C
       atom_frac         0.91232042        0.41573064        0.89390474  C
       atom_frac         0.63007989        0.17166751        0.61594663  C
       atom_frac         0.06185615        0.04573291        0.52846397  C
       atom_frac         0.47851238        0.29886616        0.99033381  C
       atom_frac         0.97213152        0.44666246        0.98457528  C
       atom_frac         0.57089890        0.19844781        0.52387959  C
       atom_frac         0.09063025        0.13122559        0.96827464  C
       atom_frac         0.43823694        0.37880135        0.53718102  C
       atom_frac         0.95061500        0.37003872        0.54061861  C
       atom_frac         0.58993254        0.11594024        0.96567243  C
       atom_frac         0.03314830        0.10606313        0.87898587  C
       atom_frac         0.50628524        0.35216414        0.63023353  C
       atom_frac         1.01317441        0.39935943        0.62998173  C
       atom_frac         0.53055716        0.15153788        0.87843878  C
       atom_frac         0.11177304        0.03534141        0.73922405  H
       atom_frac         0.38176029        0.27729630        0.77136239  H
       atom_frac         0.87834115        0.46257660        0.76715397  H
       atom_frac         0.64457032        0.22489310        0.73751262  H
       atom_frac         0.17273418        0.16555135        0.63949347  H
       atom_frac         0.33989035        0.41075084        0.87116521  H
       atom_frac         0.84600741        0.33172391        0.87136862  H
       atom_frac         0.70327513        0.09156481        0.64546242  H
       atom_frac         0.16180206        0.21167761        1.00222261  H
       atom_frac         0.37177529        0.46115741        0.50833998  H
       atom_frac         0.87743116        0.29122138        0.50724789  H
       atom_frac         0.66600220        0.03580749        0.99273261  H
       atom_frac         0.05852564        0.15842340        0.83656494  H
       atom_frac         0.48342121        0.41190741        0.67019183  H
       atom_frac         0.99403414        0.34379125        0.67376829  H
       atom_frac         0.56348901        0.09967929        0.83757496  H
       atom_frac         0.10021903        0.52061027        0.16756619  C
       atom_frac         0.45857543        0.75805471        0.34400445  C
       atom_frac         0.94732753        0.98077441        0.34782991  C
       atom_frac         0.60387317        0.72851263        0.16731579  C
       atom_frac         0.13127636        0.58827441        0.11154924  C
       atom_frac         0.41892562        0.83447138        0.39228772  C
       atom_frac         0.91103298        0.91162458        0.40006770  C
       atom_frac         0.62752247        0.66257407        0.10866296  C
       atom_frac         0.06658257        0.55369444        0.01964437  C
       atom_frac         0.46867253        0.80578114        0.48297930  C
       atom_frac         0.96875253        0.93981481        0.49138353  C
       atom_frac         0.56138623        0.69835859        0.01763001  C
       atom_frac         0.10490374        0.62915236        0.46767676  C
       atom_frac         0.43972839        0.87255051        0.04448496  C
       atom_frac         0.92774459        0.87010943        0.03212404  C
       atom_frac         0.59960541        0.62356313        0.47407568  C
       atom_frac         0.03488602        0.60324747        0.37615963  C
       atom_frac         0.51475175        0.83776515        0.13401803  C
       atom_frac         0.99315582        0.89173401        0.12361339  C
       atom_frac         0.54225265        0.65086111        0.38371586  C
       atom_frac         0.14450473        0.54364562        0.23684881  H
       atom_frac         0.42399728        0.77950168        0.27449318  H
       atom_frac         0.89335632        0.95957912        0.27419087  H
       atom_frac         0.64572119        0.69601010        0.23343297  H
       atom_frac         0.19855274        0.67039226        0.13727324  H
       atom_frac         0.36087261        0.91556397        0.36136491  H
       atom_frac         0.83433821        0.82875926        0.37107656  H
       atom_frac         0.69272341        0.57802862        0.12726350  H
       atom_frac         0.18154030        0.70801936        0.49739947  H
       atom_frac         0.37804880        0.95794613        0.02341126  H
       atom_frac         0.84276964        0.79302525       -0.00256619  H
       atom_frac         0.68150594        0.54475253        0.50723316  H
       atom_frac         0.05494107        0.66193519        0.33291385  H
       atom_frac         0.50468705        0.89400673        0.18169318  H
       atom_frac         0.96871178        0.82613973        0.16327009  H
       atom_frac         0.58360473        0.59334007        0.34814344  H
       atom_frac         0.11330306        0.50426347        0.66894123  C
       atom_frac         0.41084757        0.77296128        0.83373127  C
       atom_frac         0.92993611        1.00063973        0.83685953  C
       atom_frac         0.57965276        0.75781397        0.66521467  C
       atom_frac         0.13724386        0.58147811        0.61663190  C
       atom_frac         0.38880578        0.83865993        0.89229151  C
       atom_frac         0.89217337        0.92574074        0.88611214  C
       atom_frac         0.61849913        0.67989310        0.61909383  C
       atom_frac         0.06975443        0.55508586        0.52227618  C
       atom_frac         0.46116270        0.80448569        0.98416145  C
       atom_frac         0.95211762        0.94932660        0.97843098  C
       atom_frac         0.56486542        0.70156313        0.52621597  C
       atom_frac         0.08998647        0.62772811        0.95963334  C
       atom_frac         0.42280169        0.88241582        0.53212881  C
       atom_frac         0.93450220        0.86673401        0.54651882  C
       atom_frac         0.58814862        0.63437710        0.95732572  C
       atom_frac         0.02675427        0.59337374        0.87100389  C
       atom_frac         0.47598495        0.86043771        0.62144844  C
       atom_frac         0.98469939        0.90415825        0.63258113  C
       atom_frac         0.51867897        0.66932155        0.86739166  C
       atom_frac         0.17052230        0.52076599        0.74191043  H
       atom_frac         0.36753379        0.80490488        0.76547761  H
       atom_frac         0.87705385        0.98873737        0.76368903  H
       atom_frac         0.61017701        0.74005219        0.73471402  H
       atom_frac         0.22168535        0.65855471        0.65055953  H
       atom_frac         0.31212322        0.92016835        0.86962212  H
       atom_frac         0.80117655        0.84871212        0.84930244  H
       atom_frac         0.69548169        0.60102694        0.65365412  H
       atom_frac         0.16240654        0.70989731        0.98632879  H
       atom_frac         0.35012483        0.96162458        0.49695408  H
       atom_frac         0.85574086        0.78693771        0.51431735  H
       atom_frac         0.67588827        0.55722811        0.98669352  H
       atom_frac         0.05239576        0.64567508        0.82745370  H
       atom_frac         0.42829439        0.92097643        0.65395923  H
       atom_frac         0.93620926        0.84748316        0.66748862  H
       atom_frac         0.56298346        0.62147727        0.82698376  H

 
  Finished reading input file 'geometry.in'.
 

 
  Consistency checks for stacksize environment parameter are next.
 
  | Maximum stacksize for task 0: unlimited
  | Maximum stacksize for task 1: unlimited
  | Maximum stacksize for task 2: unlimited
  | Maximum stacksize for task 3: unlimited
  | Maximum stacksize for task 4: unlimited
  | Maximum stacksize for task 5: unlimited
  | Maximum stacksize for task 6: unlimited
  | Maximum stacksize for task 7: unlimited
  | Maximum stacksize for task 8: unlimited
  | Maximum stacksize for task 9: unlimited
  | Maximum stacksize for task 10: unlimited
  | Maximum stacksize for task 11: unlimited
  | Maximum stacksize for task 12: unlimited
  | Maximum stacksize for task 13: unlimited
  | Maximum stacksize for task 14: unlimited
  | Maximum stacksize for task 15: unlimited
  | Maximum stacksize for task 16: unlimited
  | Maximum stacksize for task 17: unlimited
  | Current stacksize for task 0: unlimited
  | Current stacksize for task 1: unlimited
  | Current stacksize for task 2: unlimited
  | Current stacksize for task 3: unlimited
  | Current stacksize for task 4: unlimited
  | Current stacksize for task 5: unlimited
  | Current stacksize for task 6: unlimited
  | Current stacksize for task 7: unlimited
  | Current stacksize for task 8: unlimited
  | Current stacksize for task 9: unlimited
  | Current stacksize for task 10: unlimited
  | Current stacksize for task 11: unlimited
  | Current stacksize for task 12: unlimited
  | Current stacksize for task 13: unlimited
  | Current stacksize for task 14: unlimited
  | Current stacksize for task 15: unlimited
  | Current stacksize for task 16: unlimited
  | Current stacksize for task 17: unlimited
 
  Consistency checks for the contents of control.in are next.
 
  MPI_IN_PLACE appears to work with this MPI implementation.
  | Keeping use_mpi_in_place .true. (see manual).
  Explicit treatment of the Coulomb operator is needed, but the RI method is not specified.
  Coulomb operator: Defaulting to 'LVL fast' resolution of identity - RI_type = LVL_fast
  Species H: Using default value for prodbas_acc =   1.000000E-06.
  Species H: Using default value max_l_prodbas =     6.
  Species C: Using default value for prodbas_acc =   1.000000E-06.
  Species C: Using default value max_l_prodbas =     6.
  Target number of points in a grid batch is not set.  Since GPU acceleration is enabled, defaulting to  200
  Method for grid partitioning is not set. Defaulting to parallel hash+maxmin partitioning.
  Batch size limit is not set. Defaulting to    200
  By default, will store active basis functions for each batch.
  If in need of memory, prune_basis_once .false. can be used to disable this option.
  communication_type for Hartree potential was not specified.
  Defaulting to calc_hartree .
  Defaulting to Pulay charge density mixer.
  Pulay mixer: Number of relevant iterations not set.
  Defaulting to    8 iterations.
  Pulay mixer: Number of initial linear mixing iterations not set.
  Defaulting to    0 iterations.
  Work space size for distributed Hartree potential not set.
  Defaulting to   0.200000E+03 MB.
  Algorithm-dependent basis array size parameters:
  | n_max_pulay                         :        8
  Maximum number of self-consistency iterations not provided.
  Presetting  1000 iterations.
  Presetting      1001 iterations before the initial mixing cycle
  is restarted anyway using the sc_init_iter criterion / keyword.
  Presetting a factor      1.000 between actual scf density residual
  and density convergence criterion sc_accuracy_rho below which sc_init_iter
  takes no effect.
 * No s.c.f. convergence criteria (sc_accuracy_*) were provided in control.in.
 * The run will proceed with a reasonable default guess, but please check whether.
 * the s.c.f. cycles seem to take too much or too little time.
  Geometry relaxation not requested: no relaxation will be performed.
 * Notice: The s.c.f. convergence criterion sc_accuracy_rho was not provided.
 * We used to stop in this case, and ask the user to provide reasonable
 * scf convergence criteria. However, this led some users to employ criteria
 * that led to extremely long run times, e.g., for simple relaxation.
 * We now preset a default value for sc_accuracy_rho if it is not set.
 * You may still wish to check if this setting is too tight or too loose for your needs.
 * Based on n_atoms and forces and force-correction status, FHI-aims chose sc_accuracy_rho =  0.391918E-04 .
  No accuracy limit for integral partition fn. given. Defaulting to  0.1000E-14.
  No threshold value for u(r) in integrations given. Defaulting to  0.1000E-05.
  No occupation type (smearing scheme) given. Defaulting to Gaussian broadening, width =  0.1000E-01 eV.
  The width will be adjusted in iteration number     2 of the first full s.c.f. cycle only.
  S.C.F. convergence parameters will be adjusted in iteration number     2 of the first full s.c.f. cycle only.
  No accuracy for occupation numbers given. Defaulting to  0.1000E-12.
  No threshold value for occupation numbers given. Defaulting to  0.0000E+00.
  No accuracy for fermi level given. Defaulting to  0.1000E-19.
  Maximum # of iterations to find E_F not set. Defaulting to  200.
  Preferred method for the eigenvalue solver ('KS_method') not specified in 'control.in'.
  Calling BLACS routine to test compilation state
  Since ScaLAPACK support is enabled, defaulting to ELPA (via ELSI).
  Will not use alltoall communication since running on < 1024 CPUs.
  Threshold for basis singularities not set.
  Default threshold for basis singularities:  0.1000E-04
  partition_type (choice of integration weights) for integrals was not specified.
  | Using a version of the partition function of Stratmann and coworkers ('stratmann_sparse').
  | At each grid point, the set of atoms used to build the partition table is smoothly restricted to
  | only those atoms whose free-atom density would be non-zero at that grid point.
  Partitioning for Hartree potential was not defined. Using partition_type for integrals.
  | Adjusted default value of keyword multip_moments_threshold to:       0.10000000E-11
  | This value may affect high angular momentum components of the Hartree potential in periodic systems.
  Angular momentum expansion for Kerker preconditioner not set explicitly.
  | Using default value of   0
  No explicit requirement for turning off preconditioner.
  | By default, it will be turned off when the charge convergence reaches
  | sc_accuracy_rho  =   0.391918E-04
  No special mixing parameter while Kerker preconditioner is on.
  Using default: charge_mix_param =     0.7500.
  Threshold for auxiliary basis singularities not set.
  Default threshold for auxiliary basis singularities:  0.1000E-04
  No q(lm)/r^(l+1) cutoff set for long-range Hartree potential.
  | Using default value of  0.100000E-09 .
  | Verify using the multipole_threshold keyword.
  Defaulting to new monopole extrapolation.
  Density update method: automatic selection selected.
  Using density matrix based charge density update.
  Using density matrix based charge density update.
  Using packed matrix style: index .
  Defaulting to use time-reversal symmetry for k-point grid.
  Charge integration errors on the 3D integration grid will be compensated
  by explicit normalization and distribution of residual charges.
  Use the "compensate_multipole_errors" flag to change this behaviour.
  Default to 1D ("use_logsbt") integrations for auxiliary 2-center integrals.
  Default onset of logarithmic r-grid for SBT is -38.000000000000
  Default onset of logarithmic k-grid for SBT is -25.000000000000
  Default range of logarithmic r- and k-grid for SBT is  45.000000000000
  Default number of logarithmic r- and k-grid for SBT is   4096
  Default of use_2d_corr is to use the efficient 2D distribution where possible
 
  Consistency checks for the contents of geometry.in are next.
 

  Range separation radius for Ewald summation (hartree_convergence_parameter):      2.91768261 bohr.
  Number of empty states per atom not set in control.in .
  | Since you are using a method that relies on the unoccupied spectrum
  | (MP2,GW,RPA et al.), will use the full Hamiltonian size (see below)
  | as the max. possible number of states (occupied plus empty).

  Structure-dependent array size parameters: 
  | Maximum number of distinct radial functions  :        9
  | Maximum number of basis functions            :     1440
  | Number of Kohn-Sham states (occupied + empty):     1440
------------------------------------------------------------
CUDA runtime version: 11060
CUDA driver version: 11060
  Initializing GPUs...

  Number of GPUs available to MPI task         0 :   1
  Number of GPUs available to MPI task         1 :   1
  Number of GPUs available to MPI task         2 :   1
  Number of GPUs available to MPI task         3 :   1
  Number of GPUs available to MPI task         4 :   1
  Number of GPUs available to MPI task         5 :   1
  Number of GPUs available to MPI task         6 :   1
  Number of GPUs available to MPI task         7 :   1
  Number of GPUs available to MPI task         8 :   1
  Number of GPUs available to MPI task         9 :   1
  Number of GPUs available to MPI task        10 :   1
  Number of GPUs available to MPI task        11 :   1
  Number of GPUs available to MPI task        12 :   1
  Number of GPUs available to MPI task        13 :   1
  Number of GPUs available to MPI task        14 :   1
  Number of GPUs available to MPI task        15 :   1
  Number of GPUs available to MPI task        16 :   1
  Number of GPUs available to MPI task        17 :   1

  | MPI task         0, GPU activated = T, Device Name = NVIDIA A100-SXM4-80GB
  | MPI task         1, GPU activated = T, Device Name = NVIDIA A100-SXM4-80GB
  | MPI task         2, GPU activated = T, Device Name = NVIDIA A100-SXM4-80GB
  | MPI task         3, GPU activated = T, Device Name = NVIDIA A100-SXM4-80GB
  | MPI task         4, GPU activated = T, Device Name = NVIDIA A100-SXM4-80GB
  | MPI task         5, GPU activated = T, Device Name = NVIDIA A100-SXM4-80GB
  | MPI task         6, GPU activated = T, Device Name = NVIDIA A100-SXM4-80GB
  | MPI task         7, GPU activated = T, Device Name = NVIDIA A100-SXM4-80GB
  | MPI task         8, GPU activated = T, Device Name = NVIDIA A100-SXM4-80GB
  | MPI task         9, GPU activated = T, Device Name = NVIDIA A100-SXM4-80GB
  | MPI task        10, GPU activated = T, Device Name = NVIDIA A100-SXM4-80GB
  | MPI task        11, GPU activated = T, Device Name = NVIDIA A100-SXM4-80GB
  | MPI task        12, GPU activated = T, Device Name = NVIDIA A100-SXM4-80GB
  | MPI task        13, GPU activated = T, Device Name = NVIDIA A100-SXM4-80GB
  | MPI task        14, GPU activated = T, Device Name = NVIDIA A100-SXM4-80GB
  | MPI task        15, GPU activated = T, Device Name = NVIDIA A100-SXM4-80GB
  | MPI task        16, GPU activated = T, Device Name = NVIDIA A100-SXM4-80GB
  | MPI task        17, GPU activated = T, Device Name = NVIDIA A100-SXM4-80GB

------------------------------------------------------------
          Preparing all fixed parts of the calculation.
------------------------------------------------------------
  Determining machine precision:
    2.225073858507201E-308
  Setting up grids for atomic and cluster calculations.

  Creating wave function, potential, and density for free atoms.
  Runtime choices for atomic solver:
  | atomic solver xc        : PW-LDA
  | compute density gradient: 0
  | compute kinetic density : F

  Species: H

  List of occupied orbitals and eigenvalues:
    n    l              occ      energy [Ha]    energy [eV]
    1    0           1.0000        -0.232375        -6.3233


  Species: C

  List of occupied orbitals and eigenvalues:
    n    l              occ      energy [Ha]    energy [eV]
    1    0           2.0000        -9.944615      -270.6068
    2    0           2.0000        -0.498807       -13.5732
    2    1           2.0000        -0.196968        -5.3598


  Adding cutoff potential to free-atom effective potential.
  Creating fixed part of basis set: Ionic, confined, hydrogenic.
 
  H                    hydrogenic:
 
  List of hydrogenic basis orbitals: 
    n    l      effective z      eigenvalue [eV]  inner max. [A]     outer max. [A]     outer radius [A]   
    2    0         2.100000       -14.9728           0.193243           1.317208           4.583499
    2    1         3.500000       -41.6669           0.602369           0.602369           3.723403
 
 
  C                    hydrogenic:
 
  List of hydrogenic basis orbitals: 
    n    l      effective z      eigenvalue [eV]  inner max. [A]     outer max. [A]     outer radius [A]   
    2    1         1.700000        -9.7616           1.230570           1.230570           4.607917
    3    2         6.000000       -54.4224           0.792453           0.792453           3.883070
    2    0         4.900000       -81.6679           0.082559           0.562749           3.078220
 
  Creating atomic-like basis functions for current effective potential.

  Species H                   :

  List of atomic basis orbitals and eigenvalues:
    n    l      energy [Ha]    energy [eV]    outer radius [A]
    1    0        -0.232375        -6.3233       4.527807


  Species C                   :

  List of atomic basis orbitals and eigenvalues:
    n    l      energy [Ha]    energy [eV]    outer radius [A]
    1    0        -9.944615      -270.6068       1.934409
    2    0        -0.498807       -13.5732       4.496620
    2    1        -0.196968        -5.3598       4.551928

  Assembling full basis from fixed parts.
  | Species H :   atomic orbital   1 s accepted.
  | Species H :    hydro orbital   2 s accepted.
  | Species H :    hydro orbital   2 p accepted.
  | Species C :   atomic orbital   1 s accepted.
  | Species C :    hydro orbital   2 s accepted.
  | Species C :   atomic orbital   2 s accepted.
  | Species C :   atomic orbital   2 p accepted.
  | Species C :    hydro orbital   2 p accepted.
  | Species C :    hydro orbital   3 d accepted.
 
  Basis size parameters after reduction:
  | Total number of radial functions:        9
  | Total number of basis functions :     1440
 
  Per-task memory consumption for arrays in subroutine allocate_ext:
  |           2.242384MB.
  Testing on-site integration grid accuracy.
  |  Species  Function  <phi|h_atom|phi> (log., in eV)  <phi|h_atom|phi> (rad., in eV)
           1        1                 -6.3245358373                 -6.3232436907
           1        2                 14.1326137532                 14.1384481100
           1        3                 25.3627025200                 25.3628451197
           2        4               -270.6067544938               -270.6067222788
           2        5                -10.5634280949                -10.5635685736
           2        6                 16.2089822398                 16.2052121796
           2        7                 -5.3613872565                 -5.3627872378
           2        8                  8.5292058327                  8.5051734780
           2        9                 27.4884461005                 27.4884542459

  Preparing densities etc. for the partition functions (integrals / Hartree potential).

  Preparations completed.
  max(cpu_time)          :      0.079 s.
  Wall clock time (cpu1) :      0.075 s.
------------------------------------------------------------

  Initializing index lists of integration centers etc. from given atomic structure:
  Mapping all atomic coordinates to central unit cell.

  Initializing the k-points
  Using symmetry for reducing the k-points
  | k-points reduced from:        2 to        2
  | Number of k-points                             :         2
  | Consuming          0 KiB for k_phase_exx.
  The eigenvectors in the calculations are REAL.
  | Number of basis functions in the Hamiltonian integrals :      8015
  | Number of basis functions in a single unit cell        :      1440
  | Number of centers in hartree potential         :      3324
  | Number of centers in hartree multipole         :      2554
  | Number of centers in electron density summation:      2004
  | Number of centers in basis integrals           :      2136
  | Number of centers in integrals                 :       964
  | Number of centers in hamiltonian               :      2008
  | Consuming          1 KiB for k_phase.
  | Number of super-cells (origin) [n_cells]                     :         175
  | Number of super-cells (after PM_index) [n_cells]             :          40
  | Number of super-cells in hamiltonian [n_cells_in_hamiltonian]:          40
  | Size of matrix packed + index [n_hamiltonian_matrix_size] :     1932341
  | Size of matrix packed + index (no_symmetry):     3861865

------------------------------------------------------------
          Begin self-consistency loop: Initialization.

          Date     :  20230119, Time     :  154520.622
------------------------------------------------------------
  | Estimated reciprocal-space cutoff momentum G_max:         3.24344278 bohr^-1 .
  | Reciprocal lattice points for long-range Hartree potential:    5310
  Using simple linear distribution as default method for k-point parallelism.
  * Using 18 tasks for Scalapack Eigenvalue solver.
  Detailed listing of tasks and assigned k-points:
   Task     0 k-point     1 on adag009
   Task     1 k-point     1 on adag009
   Task     2 k-point     1 on adag009
   Task     3 k-point     1 on adag009
   Task     4 k-point     1 on adag009
   Task     5 k-point     1 on adag009
   Task     6 k-point     1 on adag009
   Task     7 k-point     1 on adag009
   Task     8 k-point     1 on adag009
   Task     9 k-point     2 on adag009
   Task    10 k-point     2 on adag009
   Task    11 k-point     2 on adag009
   Task    12 k-point     2 on adag009
   Task    13 k-point     2 on adag009
   Task    14 k-point     2 on adag009
   Task    15 k-point     2 on adag009
   Task    16 k-point     2 on adag009
   Task    17 k-point     2 on adag009
  K-point:     1 Tasks:     9 split into      3 X      3 BLACS grid
  Calculating block size based on n_basis =         1440  max_nprow =            3  max_npcol =            3
  ScaLAPACK block size set to:           16
  Allocating        1.758 MB for ovlp
  Allocating        1.758 MB for ham
  Allocating        1.758 MB for eigenvec
  Required Scalapack workspace - INTEGER:            1  REAL:             1
  Partitioning the integration grid into batches with parallel hashing+maxmin method.
  | Number of batches:     5376
  | Maximal batch size:     200
  | Minimal batch size:     100
  | Average batch size:     142.083
  | Standard deviation of batch sizes:      31.604

  Integration load balanced across    18 MPI tasks.
  Work distribution over tasks is as follows:
  Task     0 has      42525 integration points.
  Task     1 has      42342 integration points.
  Task     2 has      42450 integration points.
  Task     3 has      42501 integration points.
  Task     4 has      42357 integration points.
  Task     5 has      42381 integration points.
  Task     6 has      42430 integration points.
  Task     7 has      42526 integration points.
  Task     8 has      42541 integration points.
  Task     9 has      42430 integration points.
  Task    10 has      42353 integration points.
  Task    11 has      42452 integration points.
  Task    12 has      42443 integration points.
  Task    13 has      42378 integration points.
  Task    14 has      42438 integration points.
  Task    15 has      42408 integration points.
  Task    16 has      42409 integration points.
  Task    17 has      42476 integration points.
  Initializing partition tables, free-atom densities, potentials, etc. across the integration grid (initialize_grid_storage).
  | initialize_grid_storage: Actual outermost partition radius vs. multipole_radius_free
  | (-- VB: in principle, multipole_radius_free should be larger, hence this output)
  | Species        1: Confinement radius =              4.999999999999999 AA, multipole_radius_free =              5.054417573612229 AA.
  | Species        1: outer_partition_radius set to              5.054417573612229 AA .
  | Species        2: Confinement radius =              4.999999999999999 AA, multipole_radius_free =              5.019602836301480 AA.
  | Species        2: outer_partition_radius set to              5.019602836301480 AA .
  | The sparse table of interatomic distances needs       7690.06 kbyte instead of     36499.97 kbyte of memory.
  | Net number of integration points:   763840
  | of which are non-zero points    :   605315
  | Numerical average free-atom electrostatic potential    :     -8.61471716 eV
  Renormalizing the initial density to the exact electron count on the 3D integration grid.
  | Initial density: Formal number of electrons (from input files) :     544.0000000000
  | Integrated number of electrons on 3D grid     :     543.9992530792
  | Charge integration error                      :      -0.0007469208
  | Normalization factor for density and gradient :       1.0000013730
  Renormalizing the free-atom superposition density to the exact electron count on the 3D integration grid.
  | Formal number of electrons (from input files) :     544.0000000000
  | Integrated number of electrons on 3D grid     :     543.9992530792
  | Charge integration error                      :      -0.0007469208
  | Normalization factor for density and gradient :       1.0000013730
  Obtaining max. number of non-zero basis functions in each batch (get_n_compute_maxes).
  | Maximal number of non-zero basis functions:      543 in task     0
  | Maximal number of non-zero basis functions:      536 in task     1
  | Maximal number of non-zero basis functions:      527 in task     2
  | Maximal number of non-zero basis functions:      547 in task     3
  | Maximal number of non-zero basis functions:      549 in task     4
  | Maximal number of non-zero basis functions:      539 in task     5
  | Maximal number of non-zero basis functions:      542 in task     6
  | Maximal number of non-zero basis functions:      552 in task     7
  | Maximal number of non-zero basis functions:      532 in task     8
  | Maximal number of non-zero basis functions:      532 in task     9
  | Maximal number of non-zero basis functions:      538 in task    10
  | Maximal number of non-zero basis functions:      535 in task    11
  | Maximal number of non-zero basis functions:      543 in task    12
  | Maximal number of non-zero basis functions:      542 in task    13
  | Maximal number of non-zero basis functions:      533 in task    14
  | Maximal number of non-zero basis functions:      540 in task    15
  | Maximal number of non-zero basis functions:      543 in task    16
  | Maximal number of non-zero basis functions:      537 in task    17
  Integrating Hamiltonian matrix: batch-based integration.
  GPU acceleration will be used when integrating the Hamiltonian matrix.
  Reporting GPU memory usage by myid 0.  Note that it is likely not the only MPI task binding to its GPU!
  Allocating        2.359 MB on GPU for hamiltonian_shell
  Allocating        0.869 MB on GPU for wave
  Allocating        0.002 MB on GPU for partition
  Allocating        0.869 MB on GPU for h_times_psi
  Time summed over all CPUs for integration: real work       34.596 s, elapsed       35.843 s
  Deallocating memory used on GPU for Hamiltonian integration.
  Integrating overlap matrix.
  Time summed over all CPUs for integration: real work       27.124 s, elapsed       27.910 s
  Deallocating overlap matrix.

  Updating Kohn-Sham eigenvalues and eigenvectors using ELSI and the ELPA eigensolver.
  Singularity check in k-point 1 (analysis for other k-points may follow below):
  Overlap matrix is not singular
  | Lowest and highest eigenvalues :  0.7946E-03,  0.8213E+01
  Finished singularity check of overlap matrix
  | Time :     0.116 s
  Starting ELPA eigensolver
  Finished Cholesky decomposition
  | Time :     0.018 s
  Finished transformation to standard eigenproblem
  | Time :     0.029 s
  Finished solving standard eigenproblem
  | Time :     0.232 s
  Finished back-transformation of eigenvectors
  | Time :     0.018 s

  Obtaining occupation numbers and electronic chemical potential using ELSI.
  | Note that, for insulating systems, the printed 'chemical potential' value is not uniquely defined.
  | It can be anywhere in the energy gap, as long as it correctly separates occupied and unoccupied states.
  | In systems with a gap, the physically relevant chemical potential is the VBM or HOMO.

  | Chemical potential (Fermi level):    -8.05835354 eV
  Writing Kohn-Sham eigenvalues.
  K-point:       1 at    0.000000    0.000000    0.000000 (in units of recip. lattice)

  State    Occupation    Eigenvalue [Ha]    Eigenvalue [eV]
      1       2.00000         -10.069433         -274.00321
      2       2.00000         -10.068151         -273.96834
      3       2.00000         -10.067620         -273.95388
      4       2.00000         -10.067208         -273.94268
      5       2.00000         -10.067154         -273.94121
      6       2.00000         -10.066989         -273.93671
      7       2.00000         -10.066888         -273.93396
      8       2.00000         -10.066549         -273.92473
      9       2.00000         -10.066525         -273.92410
     10       2.00000         -10.066278         -273.91737
     11       2.00000         -10.066176         -273.91459
     12       2.00000         -10.066011         -273.91009
     13       2.00000         -10.065660         -273.90054
     14       2.00000         -10.065580         -273.89837
     15       2.00000         -10.065532         -273.89705
     16       2.00000         -10.065397         -273.89338
     17       2.00000         -10.064952         -273.88129
     18       2.00000         -10.064903         -273.87994
     19       2.00000         -10.064631         -273.87255
     20       2.00000         -10.064475         -273.86831
     21       2.00000         -10.064437         -273.86728
     22       2.00000         -10.064284         -273.86310
     23       2.00000         -10.064177         -273.86020
     24       2.00000         -10.064078         -273.85749
     25       2.00000         -10.063981         -273.85485
     26       2.00000         -10.063790         -273.84966
     27       2.00000         -10.063614         -273.84488
     28       2.00000         -10.063533         -273.84266
     29       2.00000         -10.063430         -273.83987
     30       2.00000         -10.063399         -273.83902
     31       2.00000         -10.063338         -273.83736
     32       2.00000         -10.063211         -273.83390
     33       2.00000         -10.063210         -273.83388
     34       2.00000         -10.062901         -273.82547
     35       2.00000         -10.062875         -273.82477
     36       2.00000         -10.062716         -273.82043
     37       2.00000         -10.062692         -273.81977
     38       2.00000         -10.062600         -273.81729
     39       2.00000         -10.062529         -273.81535
     40       2.00000         -10.062422         -273.81242
     41       2.00000         -10.062226         -273.80709
     42       2.00000         -10.062168         -273.80552
     43       2.00000         -10.062144         -273.80486
     44       2.00000         -10.061976         -273.80029
     45       2.00000         -10.061672         -273.79203
     46       2.00000         -10.061568         -273.78919
     47       2.00000         -10.061557         -273.78891
     48       2.00000         -10.061380         -273.78409
     49       2.00000         -10.061319         -273.78243
     50       2.00000         -10.061303         -273.78197
     51       2.00000         -10.061281         -273.78138
     52       2.00000         -10.061259         -273.78079
     53       2.00000         -10.061255         -273.78069
     54       2.00000         -10.061008         -273.77396
     55       2.00000         -10.060889         -273.77073
     56       2.00000         -10.060879         -273.77045
     57       2.00000         -10.060576         -273.76221
     58       2.00000         -10.060551         -273.76152
     59       2.00000         -10.060493         -273.75996
     60       2.00000         -10.059976         -273.74587
     61       2.00000         -10.059756         -273.73990
     62       2.00000         -10.059747         -273.73965
     63       2.00000         -10.059706         -273.73853
     64       2.00000         -10.059625         -273.73632
     65       2.00000         -10.059601         -273.73567
     66       2.00000         -10.059302         -273.72754
     67       2.00000         -10.059220         -273.72530
     68       2.00000         -10.058930         -273.71741
     69       2.00000         -10.058893         -273.71639
     70       2.00000         -10.058258         -273.69912
     71       2.00000         -10.056295         -273.64571
     72       2.00000         -10.055398         -273.62131
     73       2.00000         -10.055160         -273.61483
[...]
  |    H      0     4.527807 A      4.583499 A        4.713786E-16 a.u.
  |    H      2     3.678162 A  1.011968E+04 A            0.556529 a.u.
  |    H      1     3.958095 A  1.721251E+06 A            0.841931 a.u.
  |    H      0     4.527807 A  3.866455E+12 A            0.581436 a.u.
  |    C      0     2.562483 A      2.562483 A        6.563029E-17 a.u.
  |    C      0     2.967371 A      2.967371 A        1.352164E-16 a.u.
  |    C      0     3.003870 A      3.003870 A        2.312640E-17 a.u.
  |    C      1     3.272245 A      3.272245 A       -3.835259E-17 a.u.
  |    C      0     3.312494 A      3.312494 A       -2.710381E-16 a.u.
  |    C      3     4.077671 A      4.077671 A       -1.683752E-15 a.u.
  |    C      3     4.077671 A      4.077671 A        1.412852E-15 a.u.
  |    C      1     4.496620 A      4.496620 A       -3.011059E-16 a.u.
  |    C      0     4.496620 A      4.551928 A        2.873903E-17 a.u.
  |    C      2     4.551928 A      4.551928 A       -4.610785E-16 a.u.
  |    C      2     4.551928 A      4.551928 A        7.440584E-16 a.u.
  |    C      2     4.551928 A      4.551928 A       -7.110458E-16 a.u.
  |    C      2     4.551928 A      4.551928 A       -1.935424E-16 a.u.
  |    C      0     4.551928 A      4.607917 A        2.067142E-16 a.u.
  |    C      0     4.551928 A      4.607917 A       -1.109786E-16 a.u.
  |    C      1     4.551928 A      4.607917 A       -9.951742E-17 a.u.
  |    C      1     4.551928 A      4.607917 A        1.937809E-16 a.u.
  |    C      1     4.607917 A      4.607917 A       -2.813308E-16 a.u.
  |    C      1     4.607917 A      4.607917 A       -7.330363E-17 a.u.
  |    C      2     4.607917 A      4.607917 A        1.318462E-15 a.u.
  |    C      2     4.607917 A      4.607917 A       -1.318397E-15 a.u.
  |    C      0     4.607917 A      4.664595 A        3.157826E-16 a.u.
  |    C      1     4.607917 A      4.664595 A        7.356967E-16 a.u.
  |    C      4     3.835889 A  2.962973E+02 A            4.379483 a.u.
  |    C      3     4.127827 A  1.725964E+03 A            9.005588 a.u.
  |    C      2     4.607917 A  2.608475E+04 A            9.531178 a.u.
  |    C      1     4.607917 A  2.736013E+06 A            2.127278 a.u.
  |    C      0     4.607917 A  4.399765E+12 A            0.661635 a.u.

  | Shrink_full_auxil_basis : there are       36  radial auxiliary wave functions
                            accepted and       7 rejected.
  | Shrink_full_auxil_basis : there are totally                8992 partial auxiliary wave functions.
 
  | Maximal number of product basis functions per thread :   512   512
 
  | Minimal total memory requirement for three-center overlap :      72.476 Gbs
  | Number of local auxiliary basis functions on task:      0   512
  | Number of local auxiliary basis functions on task:      1   512
  | Number of local auxiliary basis functions on task:      2   512
  | Number of local auxiliary basis functions on task:      3   512
  | Number of local auxiliary basis functions on task:      4   496
  | Number of local auxiliary basis functions on task:      5   496
  | Number of local auxiliary basis functions on task:      6   496
  | Number of local auxiliary basis functions on task:      7   496
  | Number of local auxiliary basis functions on task:      8   496
  | Number of local auxiliary basis functions on task:      9   496
  | Number of local auxiliary basis functions on task:     10   496
  | Number of local auxiliary basis functions on task:     11   496
  | Number of local auxiliary basis functions on task:     12   496
  | Number of local auxiliary basis functions on task:     13   496
  | Number of local auxiliary basis functions on task:     14   496
  | Number of local auxiliary basis functions on task:     15   496
  | Number of local auxiliary basis functions on task:     16   496
  | Number of local auxiliary basis functions on task:     17   496
  | 2D aux task distribution:      3 X      6
  | 2D block size (nb_aux_2d):     64
 
  Basis pair condensation :   1037520  -->     544565
 
 --------------------------------------------
  Constructing auxiliary basis (full product) ...
 
  Product basis:
  | charge radius: extent of product basis function
  | field radius: extent of its Coulomb potential
  | Species   l  charge radius    field radius  multipol momen
  |    H      1     3.910002 A      3.910002 A       -2.487223E-16 a.u.
  |    H      1     3.958095 A      3.958095 A       -2.441841E-16 a.u.
  |    H      0     4.527807 A      4.527807 A        1.268855E-16 a.u.
  |    H      0     4.527807 A      4.583499 A       -4.900954E-17 a.u.
  |    H      0     4.527807 A      4.583499 A        4.713786E-16 a.u.
  |    H      2     3.678162 A  1.011968E+04 A            0.556529 a.u.
  |    H      1     3.958095 A  1.721251E+06 A            0.841931 a.u.
  |    H      0     4.527807 A  3.866455E+12 A            0.581436 a.u.
  |    C      0     2.562483 A      2.562483 A        6.563029E-17 a.u.
  |    C      0     2.967371 A      2.967371 A        1.352164E-16 a.u.
  |    C      0     3.003870 A      3.003870 A        2.312640E-17 a.u.
  |    C      1     3.272245 A      3.272245 A       -3.835259E-17 a.u.
  |    C      0     3.312494 A      3.312494 A       -2.710381E-16 a.u.
  |    C      3     4.077671 A      4.077671 A       -1.683752E-15 a.u.
  |    C      3     4.077671 A      4.077671 A        1.412852E-15 a.u.
  |    C      1     4.496620 A      4.496620 A       -3.011059E-16 a.u.
  |    C      0     4.496620 A      4.551928 A        2.873903E-17 a.u.
  |    C      2     4.551928 A      4.551928 A       -4.610785E-16 a.u.
  |    C      2     4.551928 A      4.551928 A        7.440584E-16 a.u.
  |    C      2     4.551928 A      4.551928 A       -7.110458E-16 a.u.
  |    C      2     4.551928 A      4.551928 A       -1.935424E-16 a.u.
  |    C      0     4.551928 A      4.607917 A        2.067142E-16 a.u.
  |    C      0     4.551928 A      4.607917 A       -1.109786E-16 a.u.
  |    C      1     4.551928 A      4.607917 A       -9.951742E-17 a.u.
  |    C      1     4.551928 A      4.607917 A        1.937809E-16 a.u.
  |    C      1     4.607917 A      4.607917 A       -2.813308E-16 a.u.
  |    C      1     4.607917 A      4.607917 A       -7.330363E-17 a.u.
  |    C      2     4.607917 A      4.607917 A        1.318462E-15 a.u.
  |    C      2     4.607917 A      4.607917 A       -1.318397E-15 a.u.
  |    C      0     4.607917 A      4.664595 A        3.157826E-16 a.u.
  |    C      1     4.607917 A      4.664595 A        7.356967E-16 a.u.
  |    C      4     3.835889 A  2.962973E+02 A            4.379483 a.u.
  |    C      3     4.127827 A  1.725964E+03 A            9.005588 a.u.
  |    C      2     4.607917 A  2.608475E+04 A            9.531178 a.u.
  |    C      1     4.607917 A  2.736013E+06 A            2.127278 a.u.
  |    C      0     4.607917 A  4.399765E+12 A            0.661635 a.u.

  | Shrink_full_auxil_basis : there are       36  radial auxiliary wave functions
                            accepted and       7 rejected.
  | Shrink_full_auxil_basis : there are totally                8992 partial auxiliary wave functions.
 
  | Maximal number of product basis functions per thread :   512   512
 
  | Minimal total memory requirement for three-center overlap :      72.476 Gbs
  | Number of local auxiliary basis functions on task:      0   512
  | Number of local auxiliary basis functions on task:      1   512
  | Number of local auxiliary basis functions on task:      2   512
  | Number of local auxiliary basis functions on task:      3   512
  | Number of local auxiliary basis functions on task:      4   496
  | Number of local auxiliary basis functions on task:      5   496
  | Number of local auxiliary basis functions on task:      6   496
  | Number of local auxiliary basis functions on task:      7   496
  | Number of local auxiliary basis functions on task:      8   496
  | Number of local auxiliary basis functions on task:      9   496
  | Number of local auxiliary basis functions on task:     10   496
  | Number of local auxiliary basis functions on task:     11   496
  | Number of local auxiliary basis functions on task:     12   496
  | Number of local auxiliary basis functions on task:     13   496
  | Number of local auxiliary basis functions on task:     14   496
  | Number of local auxiliary basis functions on task:     15   496
  | Number of local auxiliary basis functions on task:     16   496
  | Number of local auxiliary basis functions on task:     17   496
  | 2D aux task distribution:      3 X      6
  | 2D block size (nb_aux_2d):     64
 
  Basis pair condensation :   1037520  -->     544565
  Allocating        0.069 MB for t_coeff
  Allocating        0.034 MB for basbas_idx
  Allocating        0.069 MB for wave
  Allocating        0.069 MB for total_wave
  Allocating        0.206 MB for wave_gradient
  Allocating        0.206 MB for total_wave_grad
 HERE1
 HERE2
  Deallocating        0.069 MB for t_coeff
  Deallocating        0.034 MB for basbas_idx
  Deallocating        0.069 MB for wave
  Deallocating        0.206 MB for wave_gradient
  Deallocating        0.206 MB for total_wave_grad
dP_dE (Bohr^3) at every cycle:--->
 (1013.43868281987,0.000000000000000E+000) (5.63403083886429,0.000000000000000E+000) (-463.911706633366,0.000000000000000E+000)
 (5.62886876228159,0.000000000000000E+000) (1366.29708556737,0.000000000000000E+000) (-3.54497268317812,0.000000000000000E+000)
 (-464.160586162611,0.000000000000000E+000) (-3.53533891032203,0.000000000000000E+000) (1674.39833393360,0.000000000000000E+000)
DFPT polarizability (Bohr^3)        xx        yy        zz        xy        xz        yz
  | Polarizability:--->                      1013.438682820                 1366.297085567                 1674.398333934                    5.634030839                 -463.911706633                   -3.544972683

DFPT for dielectric_constant:--->  # PARSE DFPT_dielectric_tensor
               2.375214675500023             0.007645259672018            -0.629518290463619
               0.007638254844205             2.854036001405649            -0.004810452315268
              -0.629856014676095            -0.004797379490995             3.272122823505393

                                               :  max(cpu_time)    wall_clock(cpu1)
  | Time for  dielectric calculation            :        0.000 s           0.000 s
===========================================================================

------------------------------------------------------------------------------
  Final output of selected total energy values:

  The following output summarizes some interesting total energy values
  at the end of a run (AFTER all relaxation, molecular dynamics, etc.).

  | Total energy of the DFT / Hartree-Fock s.c.f. calculation      :         -83267.561982383 eV
  | Final zero-broadening corrected energy (caution - metals only) :         -83267.561982383 eV
  | For reference only, the value of 1 Hartree used in FHI-aims is :             27.211384500 eV
  | For reference only, the overall average (free atom contribution
  | + realspace contribution) of the electrostatic potential after
  | s.c.f. convergence is                                          :             -7.707854747 eV

  Before relying on these values, please be sure to understand exactly which
  total energy value is referred to by a given number. Different objects may
  all carry the same name 'total energy'. Definitions:

  Total energy of the DFT / Hartree-Fock s.c.f. calculation:
  | Note that this energy does not include ANY quantities calculated after the
  | s.c.f. cycle, in particular not ANY RPA, MP2, etc. many-body perturbation terms.

  Final zero-broadening corrected energy:
  | For metallic systems only, a broadening of the occupation numbers at the Fermi
  | level can be extrapolated back to zero broadening by an electron-gas inspired
  | formula. For all systems that are not real metals, this value can be
  | meaningless and should be avoided.

------------------------------------------------------------------------------
  Methods described in the following list of references were used in this FHI-aims run.
  If you publish the results, please make sure to cite these reference if they apply.
  FHI-aims is an academic code, and for our developers (often, Ph.D. students
  and postdocs), scientific credit in the community is essential.
  Thank you for helping us!

  For any use of FHI-aims, please cite:

    Volker Blum, Ralf Gehrke, Felix Hanke, Paula Havu, Ville Havu,
    Xinguo Ren, Karsten Reuter, and Matthias Scheffler
    'Ab initio molecular simulations with numeric atom-centered orbitals'
    Computer Physics Communications 180, 2175-2196 (2009)
    http://doi.org/10.1016/j.cpc.2009.06.022


  For Hartree-Fock, hybrid functionals, or many-body perturbation theory used in your run, please cite:

    Xinguo Ren, Patrick Rinke, Volker Blum, Juergen Wieferink, Alex Tkatchenko,
    Andrea Sanfilippo, Karsten Reuter, and Matthias Scheffler,
    'Resolution-of-identity approach to Hartree-Fock, hybrid density functionals,
    RPA, MP2, and GW with numeric atom-centered orbital basis functions'
    New Journal of Physics 14, 053020 (2012).
    http://doi.org/10.1088/1367-2630/14/5/053020


  The provided symmetry information was generated with SPGlib:

    Atsushi Togo, Yusuke Seto, Dimitar Pashov
    SPGlib 1.7.3 obtained from http://spglib.sourceforge.net
    Copyright (C) 2008 Atsushi Togo


  The DFPT (perturbation by an electric field) part of the code was used.
  Here is the corresponding reference:

    Honghui Shang, Nathaniel Raimbault, Mariana Rossi,
    Christian Carbogno, Patrick Rinke and Matthias Scheffler,
    'All-Electron, Real-Space Perturbation Theory for Homogeneous
    Electric Fields: Theory, Implementation, and Application within dft'
    New Journal of Physics, 20(7):073040, 2018


  The ELSI infrastructure was used in your run to solve the Kohn-Sham electronic structure.
  Please check out http://elsi-interchange.org to learn more.
  If scalability is important for your project, please acknowledge ELSI by citing:

    V. W-z. Yu, F. Corsetti, A. Garcia, W. P. Huhn, M. Jacquelin, W. Jia,
    B. Lange, L. Lin, J. Lu, W. Mi, A. Seifitokaldani, A. Vazquez-Mayagoitia,
    C. Yang, H. Yang, and V. Blum
    'ELSI: A unified software interface for Kohn-Sham electronic structure solvers'
    Computer Physics Communications 222, 267-285 (2018).
    http://doi.org/10.1016/j.cpc.2017.09.007


  For the real-space grid partitioning and parallelization used in this calculation, please cite:

    Ville Havu, Volker Blum, Paula Havu, and Matthias Scheffler,
    'Efficient O(N) integration for all-electron electronic structure calculation'
    'using numerically tabulated basis functions'
    Journal of Computational Physics 228, 8367-8379 (2009).
    http://doi.org/10.1016/j.jcp.2009.08.008


  The high-level electronic structure method used in your calculation
  employed our efficient localized resolution of identity for the Coulomb operator.
  Some calculations, especially large-scale hybrid density functional theory,
  are only possible thanks to this development. For this feature, please cite:

    Arvid Ihrig, Juergen Wieferink, Igor Ying Zhang, Matti Ropo, Xinguo Ren,
    Patrick Rinke, Matthias Scheffler, and Volker Blum,
    'Accurate localized resolution of identity approach for linear-scaling
    hybrid density functionals and for many-body perturbation theory'
    New Journal of Physics 117, 093020 (2015).
    http://doi.org/10.1088/1367-2630/17/9/093020

  Of course, there are many other important community references, e.g., those cited in the
  above references. Our list is limited to references that describe implementations in the
  FHI-aims code. The reason is purely practical (length of this list) - please credit others as well.

------------------------------------------------------------
          Leaving FHI-aims.
          Date     :  20230119, Time     :  161153.658

          Computational steps:
          | Number of self-consistency cycles          :           46
          | Number of SCF (re)initializations          :            1
          | Number of coupled perturbed self-consistency cycles          :            0
          | Number of CPSCF (re)initializations          :            0

          Detailed time accounting                     :  max(cpu_time)    wall_clock(cpu1)
          | Total time                                  :     1595.727 s        1619.454 s
          | GPU initialization                          :        2.463 s          25.150 s
          | Preparation time                            :        0.079 s           0.075 s
          | Boundary condition initalization            :        1.055 s           1.055 s
          | Grid partitioning                           :        1.248 s           1.249 s
          | Preloading free-atom quantities on grid     :        4.201 s           4.201 s
          | Free-atom superposition energy              :        0.512 s           0.512 s
          | Total time for integrations                 :       22.656 s          22.794 s
          | Product basis setup: Total time             :        0.000 s           0.000 s
          | Product basis: | 2-center integrations     :(       0.000 s)  (       0.000 s)
          | Product basis: | LVL 3-center & coefficient:(       0.000 s)  (       0.000 s)
          | Total time for solution of K.-S. equations  :        3.868 s           3.868 s
          | Total time for density update               :       15.940 s          16.153 s
          | Total time for mixing & preconditioning     :       13.361 s          13.365 s
          | Total time for Hartree multipole update     :        0.091 s           0.092 s
          | Total time for Hartree multipole sum        :       46.083 s          46.097 s
          | Total time for total energy evaluation      :        0.006 s           0.002 s
          | Total time first_order_DM                   :        1.785 s           1.781 s
          | Total time first_order_density              :      294.882 s         294.952 s
          | Total time first_order_potential            :      119.802 s         119.832 s
          | Total time first_order_H                    :      560.660 s         560.803 s
          | Total time solving of Sternheimer equations :        1.746 s           1.746 s
          | Total time for dielectric constant          :        0.000 s           0.000 s
          | Total time momentum matrix                  :        0.000 s           0.000 s

          GPU acceleration has been used for charge density update.
          GPU acceleration has been used for real-space Hamiltonian integration.
          Due to GPU usage, wall_clock(cpu1) will give a more reliable estimate for timings.

          Partial memory accounting:
          | Residual value for overall tracked memory usage across tasks:     1.234863 MB (should be 0.000000 MB)
          |
          | Largest tracked array allocation:
          |   Minimum:      103.198 MB (DFPT_pulay_mixing::initialize_pulay_mixing::X_in_diffs on task  0)
          |   Maximum:      103.198 MB (DFPT_pulay_mixing::initialize_pulay_mixing::X_in_diffs on task  0)
          |   Average:      103.198 MB
          |
          | Because the residual tracked memory usage was not zero, the peak value for overall
          | tracked memory usage was not output, as it is probably incorrect.  This is likely due
          | to a missing aims_deallocate statement in the source code, which should be otherwise
          | harmless.
          |
          Note:  These values currently only include a subset of arrays which are explicitly tracked.
          The "true" memory usage will be greater.

          Have a nice day.
------------------------------------------------------------
